ITEM: TIMESTEP
54000
ITEM: NUMBER OF ATOMS
1800
ITEM: BOX BOUNDS pp pp pp
9.5108334735222400e-01 1.6404891665264725e+02
9.5108334735222400e-01 1.6404891665264725e+02
0.0000000000000000e+00 5.5000000000000000e+00
ITEM: ATOMS id type xs ys zs
2 1 0.0112828 0.00858903 0
3 1 0.0364713 0.000765556 0
33 1 0.0290107 0.0253277 0
31 1 0.00360858 0.032707 0
4 1 0.0531928 0.0187531 0
6 1 0.077001 0.0116395 0
35 1 0.0711373 0.0357617 0
34 1 0.0468295 0.0426189 0
8 1 0.101583 0.00481643 0
37 1 0.0946852 0.028923 0
39 1 0.119311 0.0236431 0
10 1 0.144382 0.0161282 0
41 1 0.168414 0.0093514 0
42 1 0.16249 0.0328487 0
40 1 0.137906 0.0400386 0
12 1 0.19575 0.00115526 0
43 1 0.187997 0.0259733 0
14 1 0.214314 0.019042 0
16 1 0.260812 0.0221349 0
886 1 0.239722 0.00887712 0
45 1 0.238577 0.0439145 0
18 1 0.286361 0.0130106 0
49 1 0.303469 0.0380856 0
20 1 0.307953 0.000787299 0
51 1 0.321242 0.0214275 0
22 1 0.344625 0.0297851 0
21 1 0.363082 0.0112598 0
24 1 0.3873 0.0187202 0
53 1 0.368755 0.0363756 0
894 1 0.404861 0.000689619 0
25 1 0.41056 0.025748 0
26 1 0.43532 0.033974 0
27 1 0.429866 0.00910308 0
898 1 0.452967 0.016247 0
29 1 0.477365 0.0232191 0
900 1 0.495253 0.00658448 0
28 1 0.45956 0.0405634 0
32 1 0.0215767 0.0493657 0
62 1 0.0145434 0.0727241 0
63 1 0.0401593 0.0670661 0
65 1 0.0644797 0.0599782 0
66 1 0.0813716 0.0773002 0
64 1 0.0566695 0.0845329 0
36 1 0.0881091 0.0540107 0
38 1 0.112026 0.0475063 0
67 1 0.106079 0.0709021 0
69 1 0.130686 0.0640534 0
71 1 0.154543 0.0578592 0
72 1 0.172837 0.0750127 0
70 1 0.148018 0.0812511 0
73 1 0.179566 0.0502609 0
44 1 0.204895 0.0447444 0
74 1 0.220115 0.063453 0
103 1 0.196863 0.0690882 0
46 1 0.262041 0.0491104 0
75 1 0.244798 0.0686747 0
77 1 0.269428 0.0750766 0
47 1 0.286409 0.0571254 0
48 1 0.310437 0.0638371 0
78 1 0.292197 0.0818299 0
50 1 0.327237 0.046919 0
81 1 0.334517 0.0717004 0
52 1 0.352371 0.0533765 0
82 1 0.358474 0.0775396 0
55 1 0.391965 0.0431734 0
83 1 0.376175 0.0612667 0
54 1 0.400319 0.0681159 0
113 1 0.3828 0.0850127 0
57 1 0.442333 0.05771 0
85 1 0.423417 0.0743459 0
56 1 0.416954 0.0501738 0
87 1 0.447374 0.0824545 0
59 1 0.483231 0.0471907 0
58 1 0.465814 0.0648445 0
89 1 0.488995 0.0731015 0
990 1 0.00793923 0.0969451 0
92 1 0.0252604 0.115053 0
93 1 0.0319141 0.0914256 0
94 1 0.0488627 0.10813 0
95 1 0.0737278 0.101755 0
125 1 0.0675622 0.126125 0
96 1 0.0919156 0.119713 0
68 1 0.123922 0.0875481 0
97 1 0.0992261 0.0958686 0
98 1 0.116416 0.112878 0
99 1 0.14113 0.104744 0
100 1 0.165232 0.0992801 0
130 1 0.158038 0.124416 0
131 1 0.181607 0.117384 0
101 1 0.188972 0.0928518 0
102 1 0.205238 0.110719 0
105 1 0.214066 0.0876771 0
76 1 0.25181 0.0928003 0
106 1 0.231999 0.107583 0
137 1 0.255927 0.117045 0
107 1 0.275347 0.100396 0
79 1 0.315692 0.0890055 0
108 1 0.280919 0.125095 0
109 1 0.299203 0.10737 0
80 1 0.339893 0.0961479 0
110 1 0.322412 0.113254 0
141 1 0.346519 0.120039 0
111 1 0.36426 0.102758 0
84 1 0.406622 0.0922804 0
112 1 0.388073 0.109487 0
143 1 0.370648 0.128208 0
115 1 0.412594 0.116455 0
86 1 0.430126 0.0994472 0
116 1 0.435743 0.125684 0
117 1 0.454466 0.107588 0
88 1 0.471256 0.0900309 0
90 1 0.49656 0.09749 0
119 1 0.478291 0.114863 0
123 1 0.041772 0.132776 0
122 1 0.0182587 0.139166 0
153 1 0.0358474 0.156506 0
152 1 0.0127693 0.163224 0
124 1 0.0600456 0.150381 0
126 1 0.0848307 0.144359 0
155 1 0.078418 0.167384 0
154 1 0.0543308 0.174398 0
127 1 0.108979 0.137454 0
128 1 0.126717 0.155268 0
157 1 0.102682 0.161016 0
129 1 0.133496 0.130246 0
159 1 0.150234 0.149046 0
132 1 0.174101 0.142665 0
161 1 0.166909 0.167306 0
160 1 0.143374 0.173265 0
104 1 0.219688 0.129427 0
133 1 0.196895 0.136737 0
163 1 0.190881 0.161139 0
134 1 0.21697 0.15602 0
135 1 0.242042 0.13734 0
136 1 0.265123 0.143852 0
165 1 0.247395 0.160971 0
167 1 0.270809 0.16768 0
139 1 0.306344 0.131233 0
138 1 0.288568 0.149356 0
169 1 0.311824 0.156426 0
140 1 0.330459 0.13744 0
142 1 0.353618 0.145018 0
171 1 0.335564 0.161756 0
172 1 0.359402 0.169421 0
114 1 0.394236 0.134946 0
173 1 0.377359 0.151801 0
144 1 0.401333 0.159317 0
145 1 0.418021 0.141953 0
146 1 0.42437 0.167736 0
147 1 0.441604 0.149844 0
177 1 0.448611 0.174149 0
118 1 0.459593 0.131828 0
149 1 0.483342 0.139612 0
148 1 0.465503 0.156599 0
150 1 0.489952 0.163788 0
183 1 0.0303374 0.180523 0
182 1 0.0242542 0.204384 0
1080 1 0.00632476 0.186344 0
184 1 0.0479076 0.198653 0
185 1 0.072345 0.191635 0
186 1 0.090204 0.210188 0
215 1 0.0654979 0.216323 0
156 1 0.0953075 0.18582 0
158 1 0.119273 0.179188 0
187 1 0.112815 0.203244 0
189 1 0.136069 0.19706 0
191 1 0.159868 0.191251 0
221 1 0.177304 0.209429 0
190 1 0.153063 0.215106 0
162 1 0.183673 0.185909 0
193 1 0.206973 0.179143 0
192 1 0.201222 0.203548 0
164 1 0.230463 0.17837 0
195 1 0.233986 0.203122 0
166 1 0.253324 0.185732 0
196 1 0.257993 0.20994 0
168 1 0.294159 0.174566 0
197 1 0.276461 0.192835 0
199 1 0.299837 0.199304 0
198 1 0.28122 0.217487 0
170 1 0.318656 0.180412 0
201 1 0.34133 0.18721 0
200 1 0.323468 0.205529 0
202 1 0.347259 0.212074 0
203 1 0.364939 0.194083 0
174 1 0.383448 0.177223 0
204 1 0.388586 0.201578 0
175 1 0.40679 0.185077 0
205 1 0.413017 0.209126 0
176 1 0.430139 0.191615 0
207 1 0.436316 0.215383 0
178 1 0.454119 0.198472 0
179 1 0.472409 0.180766 0
180 1 0.496405 0.188596 0
209 1 0.478752 0.20531 0
213 1 0.0407739 0.222327 0
212 1 0.0180128 0.229434 0
243 1 0.035524 0.246413 0
241 1 0.0108785 0.253604 0
216 1 0.0821068 0.23482 0
214 1 0.0584895 0.240991 0
245 1 0.0769574 0.260009 0
188 1 0.129689 0.221478 0
217 1 0.10593 0.229134 0
218 1 0.122188 0.246206 0
247 1 0.0995 0.253735 0
219 1 0.146468 0.239487 0
220 1 0.169635 0.233382 0
222 1 0.182552 0.253552 0
223 1 0.193669 0.230323 0
194 1 0.217258 0.221807 0
224 1 0.22219 0.246095 0
225 1 0.240719 0.229552 0
227 1 0.264161 0.235411 0
226 1 0.245462 0.254357 0
228 1 0.287878 0.241811 0
229 1 0.305931 0.223818 0
230 1 0.311529 0.248578 0
231 1 0.329653 0.230086 0
232 1 0.353952 0.236304 0
261 1 0.335138 0.254113 0
233 1 0.371611 0.219023 0
234 1 0.377595 0.24397 0
235 1 0.396021 0.226161 0
265 1 0.40131 0.250625 0
236 1 0.425383 0.257319 0
206 1 0.420112 0.232718 0
237 1 0.443317 0.240069 0
208 1 0.460481 0.223154 0
210 1 0.483925 0.22942 0
239 1 0.467125 0.247519 0
240 1 0.490412 0.254772 0
242 1 0.0288645 0.270261 0
273 1 0.0448072 0.288673 0
271 1 0.0206302 0.298899 0
1170 1 0.00647159 0.278233 0
244 1 0.0526802 0.265654 0
275 1 0.0692494 0.285216 0
246 1 0.0938553 0.278745 0
248 1 0.11777 0.272578 0
279 1 0.120777 0.296601 0
251 1 0.163063 0.269671 0
249 1 0.140385 0.26309 0
250 1 0.143784 0.286833 0
281 1 0.167193 0.295496 0
253 1 0.204932 0.263625 0
252 1 0.186205 0.278778 0
254 1 0.209543 0.288051 0
257 1 0.269803 0.259783 0
255 1 0.228743 0.272195 0
256 1 0.251778 0.278393 0
285 1 0.233621 0.296547 0
287 1 0.257316 0.304658 0
259 1 0.294363 0.267402 0
258 1 0.275392 0.285137 0
289 1 0.298824 0.29174 0
260 1 0.317683 0.272664 0
263 1 0.358803 0.260357 0
262 1 0.341403 0.278429 0
291 1 0.323976 0.297101 0
292 1 0.347597 0.302742 0
293 1 0.365716 0.285601 0
264 1 0.382666 0.268402 0
295 1 0.389916 0.292502 0
266 1 0.407308 0.274918 0
238 1 0.448898 0.265315 0
267 1 0.43096 0.281824 0
297 1 0.413774 0.299938 0
268 1 0.453824 0.288711 0
1141 1 0.496696 0.278923 0
269 1 0.473248 0.271762 0
270 1 0.47862 0.296361 0
301 1 0.0211946 0.326157 0
272 1 0.0408634 0.312653 0
303 1 0.0433503 0.3365 0
276 1 0.0849461 0.304942 0
274 1 0.064263 0.321748 0
305 1 0.0866293 0.331444 0
304 1 0.0655347 0.347068 0
277 1 0.106187 0.317125 0
278 1 0.128396 0.325478 0
307 1 0.109183 0.342194 0
280 1 0.147811 0.310619 0
311 1 0.151235 0.33586 0
282 1 0.170553 0.321012 0
312 1 0.173736 0.346689 0
283 1 0.190412 0.304289 0
284 1 0.213517 0.312116 0
313 1 0.194496 0.329221 0
315 1 0.217201 0.339193 0
286 1 0.235671 0.323055 0
317 1 0.259451 0.329318 0
316 1 0.241387 0.347571 0
288 1 0.282442 0.310807 0
318 1 0.282089 0.338262 0
290 1 0.307388 0.31486 0
319 1 0.306081 0.338332 0
321 1 0.329699 0.332223 0
323 1 0.353599 0.325523 0
324 1 0.375899 0.334831 0
294 1 0.372115 0.309111 0
325 1 0.401195 0.341693 0
296 1 0.394667 0.317444 0
298 1 0.437544 0.306746 0
327 1 0.419848 0.323799 0
328 1 0.44305 0.33134 0
329 1 0.466532 0.339228 0
299 1 0.460365 0.313902 0
300 1 0.484328 0.320835 0
1201 1 0.491002 0.344943 0
302 1 0.0231322 0.351482 0
332 1 0.0264329 0.376237 0
331 1 0.00331733 0.366498 0
333 1 0.0464784 0.36167 0
335 1 0.0689072 0.371927 0
334 1 0.0492961 0.386441 0
306 1 0.0886986 0.356329 0
337 1 0.0920986 0.38191 0
308 1 0.111358 0.367358 0
309 1 0.131331 0.3516 0
339 1 0.134183 0.376764 0
310 1 0.154202 0.362217 0
341 1 0.157398 0.386885 0
343 1 0.177192 0.371351 0
314 1 0.196409 0.354406 0
344 1 0.200685 0.380224 0
345 1 0.221953 0.363992 0
375 1 0.224578 0.389707 0
347 1 0.26888 0.360395 0
346 1 0.245885 0.371718 0
377 1 0.265957 0.385019 0
349 1 0.295121 0.360193 0
348 1 0.290351 0.384026 0
350 1 0.313724 0.378704 0
320 1 0.322396 0.355929 0
322 1 0.346575 0.351105 0
351 1 0.337445 0.374752 0
353 1 0.362394 0.369891 0
355 1 0.382901 0.358345 0
354 1 0.381494 0.385289 0
356 1 0.405895 0.366752 0
326 1 0.424957 0.349292 0
357 1 0.430918 0.373549 0
359 1 0.448596 0.355519 0
358 1 0.454073 0.380612 0
387 1 0.412604 0.390442 0
330 1 0.472424 0.363518 0
1231 1 0.496091 0.369683 0
360 1 0.477489 0.388061 0
361 1 0.00684476 0.391459 0
363 1 0.0294748 0.401249 0
362 1 0.0100634 0.416431 0
364 1 0.0325582 0.42726 0
336 1 0.0722 0.396442 0
365 1 0.0519687 0.412409 0
366 1 0.0749145 0.421389 0
338 1 0.114295 0.391574 0
367 1 0.0943924 0.406367 0
369 1 0.119015 0.416522 0
368 1 0.0976951 0.431452 0
340 1 0.137959 0.401922 0
370 1 0.140996 0.426571 0
371 1 0.16086 0.411747 0
342 1 0.179973 0.395652 0
372 1 0.183955 0.420855 0
373 1 0.203399 0.40497 0
403 1 0.206701 0.429808 0
374 1 0.226783 0.414458 0
376 1 0.247387 0.400095 0
405 1 0.250382 0.424358 0
378 1 0.279123 0.408251 0
379 1 0.304508 0.403646 0
409 1 0.295754 0.42636 0
352 1 0.353407 0.392967 0
381 1 0.328409 0.398525 0
382 1 0.34597 0.416139 0
380 1 0.321162 0.422734 0
383 1 0.370676 0.408648 0
385 1 0.395244 0.406445 0
384 1 0.385368 0.427631 0
386 1 0.418872 0.416498 0
388 1 0.435593 0.398847 0
419 1 0.443022 0.423847 0
389 1 0.459929 0.405725 0
1261 1 0.485127 0.411533 0
390 1 0.467896 0.429818 0
393 1 0.0130214 0.44224 0
423 1 0.0169665 0.46736 0
394 1 0.0372628 0.452694 0
425 1 0.0395388 0.477891 0
395 1 0.0555125 0.43713 0
396 1 0.0597379 0.462558 0
397 1 0.078921 0.447401 0
427 1 0.0825535 0.472058 0
399 1 0.121758 0.442339 0
398 1 0.102236 0.456871 0
429 1 0.124571 0.466968 0
401 1 0.163771 0.436533 0
400 1 0.144252 0.451599 0
431 1 0.167088 0.461186 0
430 1 0.147866 0.476509 0
402 1 0.186846 0.446246 0
433 1 0.209507 0.455208 0
432 1 0.189258 0.471464 0
404 1 0.229414 0.439811 0
406 1 0.251443 0.450004 0
435 1 0.231796 0.465434 0
436 1 0.253655 0.475538 0
407 1 0.272305 0.435791 0
437 1 0.272329 0.461099 0
408 1 0.293198 0.451299 0
410 1 0.316737 0.446462 0
439 1 0.309261 0.469652 0
411 1 0.339663 0.440764 0
412 1 0.357582 0.457942 0
441 1 0.333666 0.465148 0
413 1 0.36279 0.434037 0
415 1 0.406133 0.438542 0
414 1 0.385383 0.452826 0
443 1 0.374975 0.475204 0
417 1 0.429268 0.443291 0
418 1 0.452999 0.449111 0
416 1 0.412363 0.462895 0
447 1 0.437099 0.468211 0
1291 1 0.491978 0.434903 0
420 1 0.477456 0.454706 0
449 1 0.460972 0.473033 0
454 1 0.0240675 0.518125 0
424 1 0.0207983 0.493498 0
455 1 0.0447882 0.50223 0
453 1 0.00164935 0.507366 0
426 1 0.0638789 0.487889 0
456 1 0.0675125 0.51353 0
457 1 0.0862057 0.497799 0
428 1 0.105501 0.482858 0
459 1 0.128599 0.492437 0
458 1 0.108712 0.508007 0
489 1 0.131851 0.517981 0
461 1 0.170266 0.486681 0
460 1 0.151026 0.502352 0
462 1 0.174222 0.512352 0
434 1 0.212198 0.480664 0
463 1 0.192687 0.495858 0
464 1 0.216235 0.507209 0
465 1 0.234053 0.491827 0
467 1 0.259387 0.500335 0
466 1 0.239613 0.515299 0
438 1 0.278044 0.484505 0
469 1 0.30118 0.493823 0
468 1 0.283002 0.509417 0
442 1 0.350429 0.48323 0
440 1 0.326099 0.489705 0
471 1 0.341006 0.509261 0
470 1 0.315504 0.514008 0
473 1 0.364877 0.517659 0
445 1 0.397565 0.482043 0
444 1 0.380358 0.499228 0
475 1 0.405335 0.505124 0
446 1 0.421648 0.487293 0
477 1 0.429547 0.51109 0
448 1 0.445726 0.492901 0
478 1 0.453714 0.516215 0
450 1 0.48431 0.478437 0
479 1 0.469134 0.497299 0
1381 1 0.492376 0.504192 0
480 1 0.477034 0.522969 0
452 1 0.00303792 0.532916 0
483 1 0.0261077 0.542569 0
482 1 0.00540784 0.557464 0
487 1 0.0906142 0.523877 0
485 1 0.0473957 0.528545 0
484 1 0.0492736 0.553379 0
486 1 0.069882 0.538604 0
515 1 0.0723158 0.562724 0
517 1 0.0925931 0.549298 0
488 1 0.113219 0.533502 0
519 1 0.115439 0.558423 0
490 1 0.135793 0.543544 0
491 1 0.153891 0.527081 0
521 1 0.157973 0.552712 0
492 1 0.176709 0.537199 0
493 1 0.196938 0.522057 0
494 1 0.201535 0.54659 0
495 1 0.221045 0.531339 0
525 1 0.224356 0.55704 0
523 1 0.181416 0.562469 0
496 1 0.243752 0.541237 0
497 1 0.263284 0.525286 0
527 1 0.267665 0.550783 0
499 1 0.30991 0.539065 0
498 1 0.286038 0.534657 0
529 1 0.290878 0.559157 0
472 1 0.347042 0.533468 0
501 1 0.330699 0.551741 0
502 1 0.354475 0.558946 0
474 1 0.388649 0.52272 0
503 1 0.371376 0.540638 0
505 1 0.395465 0.546082 0
476 1 0.41377 0.529435 0
507 1 0.437192 0.535773 0
506 1 0.419264 0.554488 0
508 1 0.442846 0.559855 0
509 1 0.459784 0.541726 0
510 1 0.48432 0.546531 0
539 1 0.466682 0.565111 0
513 1 0.0287922 0.567687 0
512 1 0.0311774 0.591957 0
511 1 0.00765647 0.581939 0
541 1 0.0104892 0.606232 0
514 1 0.0523071 0.578763 0
545 1 0.0748724 0.587927 0
543 1 0.0544612 0.602867 0
516 1 0.0954572 0.573221 0
518 1 0.119084 0.583074 0
547 1 0.0987563 0.598008 0
520 1 0.138855 0.569058 0
549 1 0.142443 0.59433 0
522 1 0.162293 0.578845 0
551 1 0.165451 0.605263 0
524 1 0.204343 0.572713 0
553 1 0.184718 0.588919 0
554 1 0.209751 0.59751 0
555 1 0.228787 0.580925 0
526 1 0.248397 0.566058 0
557 1 0.252818 0.591132 0
528 1 0.272058 0.575765 0
556 1 0.233362 0.606497 0
500 1 0.313469 0.56813 0
558 1 0.276591 0.600649 0
559 1 0.295464 0.584186 0
530 1 0.31937 0.59255 0
531 1 0.337128 0.576272 0
532 1 0.342807 0.601325 0
533 1 0.361268 0.582821 0
504 1 0.378509 0.564363 0
534 1 0.384508 0.590397 0
535 1 0.402009 0.57165 0
563 1 0.366555 0.607629 0
536 1 0.408707 0.596612 0
537 1 0.425927 0.578607 0
567 1 0.432228 0.603249 0
538 1 0.4498 0.583435 0
540 1 0.490398 0.570921 0
569 1 0.473689 0.589751 0
1441 1 0.498183 0.594558 0
542 1 0.0325837 0.616345 0
571 1 0.0106992 0.630452 0
573 1 0.0345272 0.641823 0
544 1 0.0554915 0.627635 0
546 1 0.0770664 0.613946 0
575 1 0.077816 0.638474 0
548 1 0.12139 0.608974 0
577 1 0.0997562 0.623567 0
579 1 0.124369 0.63475 0
576 1 0.100827 0.648958 0
550 1 0.146273 0.620547 0
581 1 0.17061 0.629309 0
580 1 0.151617 0.645933 0
552 1 0.190086 0.612949 0
582 1 0.194339 0.637855 0
583 1 0.213893 0.622618 0
584 1 0.219085 0.646732 0
585 1 0.238667 0.630804 0
586 1 0.26228 0.639923 0
587 1 0.257641 0.615454 0
560 1 0.300333 0.608472 0
589 1 0.281403 0.625583 0
590 1 0.305847 0.633467 0
588 1 0.286761 0.650154 0
561 1 0.324489 0.616649 0
562 1 0.348081 0.624816 0
591 1 0.330657 0.641477 0
593 1 0.354174 0.648671 0
565 1 0.390777 0.615141 0
564 1 0.372554 0.63171 0
595 1 0.396769 0.638696 0
566 1 0.414181 0.620228 0
596 1 0.42174 0.643672 0
597 1 0.440505 0.626241 0
599 1 0.445678 0.652052 0
568 1 0.457176 0.608104 0
570 1 0.481736 0.615524 0
600 1 0.464146 0.63437 0
1471 1 0.48773 0.640986 0
572 1 0.0131451 0.654537 0
602 1 0.0151195 0.678439 0
603 1 0.0363505 0.666982 0
633 1 0.0382619 0.693075 0
574 1 0.0574012 0.65329 0
605 1 0.0796098 0.662814 0
604 1 0.0588821 0.678912 0
606 1 0.0826152 0.688644 0
578 1 0.122322 0.658617 0
607 1 0.102549 0.673503 0
608 1 0.124337 0.684535 0
609 1 0.143136 0.668729 0
611 1 0.175911 0.654607 0
610 1 0.165434 0.676566 0
639 1 0.146599 0.693338 0
612 1 0.188187 0.683843 0
613 1 0.20132 0.662919 0
643 1 0.211097 0.691253 0
614 1 0.226945 0.673408 0
615 1 0.243393 0.654834 0
616 1 0.251541 0.682051 0
617 1 0.266718 0.664077 0
647 1 0.275018 0.689022 0
619 1 0.312188 0.657999 0
618 1 0.292759 0.673879 0
620 1 0.318022 0.682072 0
621 1 0.336198 0.665478 0
592 1 0.360196 0.672721 0
622 1 0.342898 0.690316 0
594 1 0.378421 0.655836 0
625 1 0.403152 0.661911 0
623 1 0.383997 0.679991 0
626 1 0.409029 0.687324 0
598 1 0.450511 0.675726 0
627 1 0.426784 0.668911 0
657 1 0.432886 0.693847 0
628 1 0.474693 0.683368 0
629 1 0.47081 0.658526 0
1501 1 0.496431 0.664086 0
630 1 0.498287 0.69021 0
632 1 0.0160496 0.702784 0
663 1 0.0188551 0.726594 0
634 1 0.0428228 0.722994 0
635 1 0.0612413 0.704468 0
636 1 0.0845935 0.714727 0
665 1 0.0662127 0.732725 0
637 1 0.104398 0.699352 0
638 1 0.128138 0.709466 0
667 1 0.107851 0.724935 0
669 1 0.132786 0.732861 0
641 1 0.170259 0.701196 0
640 1 0.151617 0.717954 0
671 1 0.175182 0.725204 0
642 1 0.193811 0.707999 0
673 1 0.199269 0.73313 0
644 1 0.216537 0.717033 0
645 1 0.233954 0.698993 0
675 1 0.23979 0.724938 0
646 1 0.257721 0.707706 0
677 1 0.263793 0.732282 0
649 1 0.299322 0.697895 0
648 1 0.28118 0.715494 0
679 1 0.305544 0.723945 0
650 1 0.324355 0.706672 0
651 1 0.348231 0.714435 0
681 1 0.329086 0.732239 0
652 1 0.354695 0.738269 0
653 1 0.36633 0.696357 0
624 1 0.390624 0.704586 0
654 1 0.372895 0.72168 0
685 1 0.396513 0.729104 0
655 1 0.414002 0.711436 0
656 1 0.438423 0.717158 0
686 1 0.421075 0.734983 0
687 1 0.463712 0.725384 0
658 1 0.458054 0.701032 0
659 1 0.481406 0.708135 0
689 1 0.487487 0.732989 0
662 1 0.0233717 0.749377 0
691 1 0.0033087 0.765208 0
693 1 0.0291812 0.772448 0
664 1 0.0479171 0.750647 0
695 1 0.0711093 0.758224 0
694 1 0.0528477 0.7761 0
666 1 0.089428 0.740964 0
697 1 0.0951381 0.765243 0
668 1 0.113719 0.74937 0
698 1 0.119504 0.773936 0
699 1 0.138257 0.757375 0
670 1 0.156176 0.741628 0
701 1 0.161599 0.765441 0
672 1 0.179744 0.749316 0
700 1 0.143899 0.781683 0
702 1 0.184984 0.773336 0
674 1 0.221957 0.741817 0
703 1 0.203272 0.758042 0
704 1 0.206976 0.78236 0
705 1 0.226845 0.767304 0
676 1 0.244197 0.749804 0
707 1 0.268845 0.756527 0
706 1 0.267253 0.780274 0
678 1 0.286696 0.741233 0
680 1 0.311097 0.752523 0
709 1 0.291133 0.767746 0
710 1 0.311086 0.78222 0
682 1 0.354275 0.762623 0
711 1 0.33096 0.769506 0
683 1 0.378589 0.750992 0
713 1 0.374736 0.776645 0
684 1 0.403993 0.753727 0
715 1 0.42854 0.759205 0
717 1 0.445506 0.741735 0
718 1 0.451752 0.768805 0
716 1 0.41156 0.777059 0
690 1 0.494086 0.757315 0
688 1 0.469659 0.750371 0
719 1 0.475555 0.776514 0
692 1 0.0111043 0.788619 0
722 1 0.0167637 0.812847 0
723 1 0.0350022 0.795128 0
724 1 0.0412592 0.818332 0
696 1 0.0774129 0.782334 0
725 1 0.0595146 0.800585 0
726 1 0.0828219 0.808865 0
727 1 0.100509 0.790256 0
728 1 0.125033 0.798233 0
757 1 0.106743 0.814957 0
759 1 0.130135 0.823583 0
729 1 0.1485 0.806146 0
730 1 0.173945 0.817059 0
731 1 0.167718 0.790602 0
732 1 0.198353 0.806279 0
733 1 0.221867 0.800399 0
734 1 0.218457 0.824497 0
735 1 0.243013 0.787201 0
736 1 0.243462 0.813729 0
737 1 0.266417 0.804618 0
708 1 0.288103 0.792961 0
738 1 0.285023 0.818985 0
739 1 0.306962 0.807661 0
712 1 0.351815 0.787279 0
741 1 0.329899 0.797876 0
742 1 0.348883 0.812855 0
740 1 0.326005 0.823224 0
714 1 0.393663 0.791976 0
743 1 0.371951 0.80294 0
745 1 0.393405 0.816639 0
746 1 0.416251 0.806128 0
747 1 0.434131 0.786951 0
748 1 0.439515 0.811885 0
749 1 0.457999 0.794176 0
720 1 0.482823 0.799987 0
750 1 0.46477 0.817392 0
1621 1 0.488428 0.824208 0
752 1 0.00415428 0.852906 0
753 1 0.022162 0.837084 0
783 1 0.0289661 0.861946 0
754 1 0.0470483 0.841635 0
755 1 0.0654157 0.825169 0
785 1 0.0706163 0.849191 0
784 1 0.0535386 0.865868 0
756 1 0.0890991 0.832701 0
758 1 0.11282 0.839344 0
787 1 0.0949889 0.856735 0
788 1 0.122485 0.864984 0
789 1 0.146608 0.854092 0
760 1 0.153149 0.82982 0
761 1 0.172012 0.844484 0
763 1 0.19389 0.832923 0
762 1 0.192697 0.859033 0
764 1 0.215275 0.849892 0
767 1 0.262548 0.830277 0
765 1 0.238857 0.838961 0
795 1 0.235837 0.864696 0
766 1 0.259148 0.854915 0
769 1 0.304693 0.834895 0
768 1 0.28224 0.844764 0
799 1 0.301628 0.861339 0
770 1 0.323952 0.849901 0
771 1 0.347269 0.837145 0
772 1 0.34467 0.862989 0
744 1 0.36948 0.826846 0
773 1 0.36758 0.851322 0
775 1 0.389999 0.840146 0
774 1 0.385687 0.866935 0
776 1 0.408161 0.855644 0
777 1 0.416136 0.83065 0
807 1 0.431916 0.852739 0
778 1 0.447621 0.835 0
809 1 0.455951 0.859748 0
779 1 0.47239 0.841631 0
780 1 0.481216 0.866359 0
1651 1 0.496663 0.848031 0
782 1 0.000190776 0.877807 0
813 1 0.0394386 0.885146 0
812 1 0.0175278 0.893814 0
814 1 0.0398442 0.909673 0
786 1 0.0773909 0.875348 0
815 1 0.062926 0.898462 0
816 1 0.0872822 0.897409 0
817 1 0.102878 0.879083 0
819 1 0.121544 0.895025 0
791 1 0.168157 0.869134 0
790 1 0.144658 0.879882 0
821 1 0.166276 0.893741 0
820 1 0.144124 0.904765 0
792 1 0.189956 0.883996 0
793 1 0.213083 0.874835 0
823 1 0.210092 0.900264 0
822 1 0.187412 0.907826 0
794 1 0.232788 0.890197 0
796 1 0.256974 0.880743 0
827 1 0.25388 0.905999 0
797 1 0.278999 0.869499 0
798 1 0.276502 0.895929 0
800 1 0.299202 0.885718 0
829 1 0.296182 0.910376 0
831 1 0.319635 0.901015 0
801 1 0.322352 0.875745 0
802 1 0.341791 0.88952 0
833 1 0.362916 0.903927 0
803 1 0.364475 0.879379 0
804 1 0.386515 0.89299 0
805 1 0.406837 0.879324 0
835 1 0.40444 0.909668 0
806 1 0.424666 0.896869 0
808 1 0.438496 0.877011 0
839 1 0.447455 0.903639 0
1681 1 0.487571 0.890961 0
810 1 0.463074 0.883362 0
840 1 0.470315 0.908465 0
842 1 0.00863321 0.942112 0
843 1 0.0138554 0.917704 0
844 1 0.0327841 0.934742 0
845 1 0.0571902 0.927553 0
846 1 0.0735616 0.94549 0
847 1 0.0808651 0.920439 0
875 1 0.0500711 0.953338 0
818 1 0.105974 0.914576 0
848 1 0.096688 0.938493 0
849 1 0.120708 0.934302 0
850 1 0.143268 0.928681 0
851 1 0.165747 0.918762 0
852 1 0.162382 0.943594 0
881 1 0.138517 0.952366 0
824 1 0.207386 0.92446 0
853 1 0.185033 0.93425 0
854 1 0.204927 0.949672 0
855 1 0.22769 0.940392 0
825 1 0.230774 0.915278 0
826 1 0.250177 0.930393 0
857 1 0.270026 0.945847 0
828 1 0.273891 0.921389 0
859 1 0.293869 0.936266 0
860 1 0.314406 0.95202 0
830 1 0.315801 0.92543 0
832 1 0.339065 0.915172 0
861 1 0.336061 0.940761 0
863 1 0.358868 0.929308 0
862 1 0.357479 0.954412 0
834 1 0.382152 0.919873 0
864 1 0.380098 0.943476 0
865 1 0.405822 0.934894 0
837 1 0.427594 0.920426 0
836 1 0.435597 0.943755 0
838 1 0.453522 0.927513 0
870 1 0.459614 0.95134 0
869 1 0.477778 0.931967 0
1711 1 0.495299 0.914461 0
872 1 0.0177842 0.984126 0
873 1 0.0259887 0.95906 0
871 1 0.00175669 0.966819 0
874 1 0.0423377 0.976714 0
5 1 0.0599314 0.993521 0
876 1 0.0674514 0.969992 0
7 1 0.0846376 0.988332 0
877 1 0.0910028 0.963062 0
879 1 0.115132 0.957989 0
9 1 0.126854 0.998964 0
878 1 0.107629 0.98126 0
880 1 0.132014 0.975684 0
11 1 0.151248 0.993213 0
882 1 0.157825 0.969102 0
13 1 0.176868 0.985022 0
883 1 0.180822 0.959368 0
15 1 0.219489 0.993388 0
884 1 0.20012 0.976574 0
885 1 0.224 0.966653 0
856 1 0.246805 0.955933 0
17 1 0.265368 0.997493 0
887 1 0.244832 0.9828 0
888 1 0.267355 0.970755 0
858 1 0.290985 0.960866 0
19 1 0.287837 0.985876 0
889 1 0.311948 0.976191 0
891 1 0.335335 0.966847 0
890 1 0.331823 0.993328 0
892 1 0.356036 0.984885 0
23 1 0.381063 0.993681 0
893 1 0.376768 0.968702 0
895 1 0.399631 0.976624 0
897 1 0.447248 0.991607 0
866 1 0.415871 0.958865 0
896 1 0.423247 0.98561 0
867 1 0.4403 0.967256 0
1741 1 0.483984 0.957044 0
899 1 0.471164 0.999328 0
1771 1 0.489504 0.982186 0
868 1 0.464817 0.974576 0
931 1 0.525069 0.0365975 0
901 1 0.519923 0.0123177 0
30 1 0.501008 0.0300407 0
902 1 0.5433 0.0193008 0
904 1 0.567041 0.0274407 0
906 1 0.585101 0.00954629 0
905 1 0.561696 0.00269752 0
935 1 0.590597 0.0351561 0
908 1 0.608979 0.0188351 0
939 1 0.632724 0.0275829 0
909 1 0.627415 0.0012264 0
910 1 0.652715 0.0121441 0
941 1 0.657263 0.0371618 0
912 1 0.676112 0.0202355 0
943 1 0.70361 0.0270021 0
913 1 0.694242 0.00416089 0
945 1 0.727368 0.0373668 0
914 1 0.73407 0.0130606 0
916 1 0.757618 0.00415386 0
947 1 0.752365 0.0294232 0
918 1 0.776318 0.0218354 0
919 1 0.801016 0.0145145 0
949 1 0.796276 0.0381674 0
951 1 0.820078 0.032749 0
920 1 0.825107 0.00761002 0
922 1 0.843257 0.0243296 0
953 1 0.863794 0.0422194 0
923 1 0.868198 0.0186657 0
924 1 0.893194 0.0127979 0
954 1 0.888433 0.0361324 0
955 1 0.913167 0.0324696 0
925 1 0.920533 0.00861938 0
926 1 0.937609 0.0273056 0
928 1 0.945192 0.00420007 0
930 1 0.986989 0.0148552 0
959 1 0.962657 0.0214344 0
960 1 0.979633 0.0388089 0
932 1 0.531212 0.0623756 0
961 1 0.513528 0.0801034 0
60 1 0.506133 0.0546483 0
933 1 0.548322 0.0441836 0
963 1 0.554801 0.0693222 0
934 1 0.572333 0.0526684 0
965 1 0.579098 0.0776461 0
937 1 0.614813 0.0440537 0
936 1 0.597322 0.0607847 0
967 1 0.621372 0.06895 0
966 1 0.603089 0.0855695 0
938 1 0.638436 0.0521915 0
969 1 0.644499 0.076369 0
940 1 0.663181 0.0604793 0
970 1 0.668157 0.0844708 0
942 1 0.681888 0.043544 0
971 1 0.68701 0.0678357 0
944 1 0.705689 0.0517548 0
973 1 0.70985 0.0764489 0
975 1 0.727954 0.0615201 0
974 1 0.740345 0.0815056 0
946 1 0.749466 0.0534991 0
977 1 0.766606 0.0695964 0
948 1 0.772739 0.0457963 0
979 1 0.790456 0.0628721 0
950 1 0.813616 0.0564524 0
978 1 0.80821 0.0810368 0
980 1 0.832647 0.0735568 0
981 1 0.856761 0.0679923 0
952 1 0.839073 0.049392 0
983 1 0.880524 0.0614846 0
985 1 0.905245 0.0560193 0
984 1 0.897802 0.079858 0
982 1 0.874407 0.0852818 0
957 1 0.954889 0.0450063 0
956 1 0.929912 0.0505406 0
986 1 0.922969 0.0738446 0
987 1 0.947666 0.0680859 0
988 1 0.964518 0.087061 0
958 1 0.972064 0.0626931 0
989 1 0.989423 0.0805386 0
61 1 0.996069 0.0562437 0
962 1 0.537446 0.0865278 0
991 1 0.520004 0.104588 0
120 1 0.502078 0.122222 0
993 1 0.543832 0.112053 0
992 1 0.526428 0.129558 0
964 1 0.56095 0.0938032 0
994 1 0.567407 0.119552 0
995 1 0.584782 0.101804 0
996 1 0.591184 0.126063 0
968 1 0.627646 0.093743 0
997 1 0.60941 0.109405 0
998 1 0.632568 0.11773 0
999 1 0.651571 0.102752 0
1000 1 0.656787 0.126271 0
1001 1 0.675061 0.109755 0
972 1 0.692401 0.0926593 0
1002 1 0.699682 0.116477 0
1003 1 0.718316 0.0998814 0
1004 1 0.724261 0.123992 0
976 1 0.761158 0.0935354 0
1005 1 0.741478 0.10665 0
1007 1 0.784564 0.0878191 0
1006 1 0.77766 0.112168 0
1008 1 0.802468 0.105549 0
1037 1 0.795668 0.129672 0
1039 1 0.82072 0.12287 0
1009 1 0.826419 0.0980767 0
1010 1 0.844643 0.116073 0
1011 1 0.850523 0.0924206 0
1012 1 0.868771 0.110238 0
1013 1 0.893142 0.104329 0
1014 1 0.88754 0.128101 0
1016 1 0.910842 0.121416 0
1017 1 0.940116 0.0911448 0
1015 1 0.916801 0.0977149 0
1047 1 0.934987 0.11503 0
1018 1 0.959515 0.110461 0
1019 1 0.983752 0.104743 0
1020 1 0.976357 0.128145 0
91 1 1.00114 0.12123 0
1022 1 0.532406 0.153521 0
1051 1 0.515046 0.170969 0
1021 1 0.508091 0.146411 0
1023 1 0.550264 0.136776 0
1024 1 0.556971 0.162321 0
1025 1 0.573218 0.143881 0
1055 1 0.580058 0.169652 0
1027 1 0.614875 0.134147 0
1026 1 0.596467 0.150811 0
1028 1 0.621185 0.158084 0
1029 1 0.638049 0.142298 0
1059 1 0.645042 0.166539 0
1030 1 0.662481 0.149783 0
1031 1 0.681629 0.13304 0
1032 1 0.687431 0.156743 0
1033 1 0.705811 0.140354 0
1063 1 0.713092 0.164141 0
1035 1 0.748614 0.129766 0
1034 1 0.730826 0.147703 0
1036 1 0.754503 0.154153 0
1065 1 0.736473 0.171712 0
1067 1 0.77288 0.137286 0
1038 1 0.788971 0.156098 0
1069 1 0.808281 0.171257 0
1040 1 0.814158 0.14649 0
1071 1 0.831376 0.1635 0
1041 1 0.838816 0.140009 0
1042 1 0.8557 0.158374 0
1043 1 0.863308 0.133783 0
1044 1 0.880027 0.151923 0
1075 1 0.897715 0.170769 0
1045 1 0.90377 0.145846 0
1049 1 0.951621 0.133518 0
1046 1 0.928406 0.139894 0
1048 1 0.945792 0.157982 0
1077 1 0.922106 0.163679 0
121 1 0.994569 0.144789 0
1050 1 0.96938 0.151761 0
151 1 0.987918 0.16851 0
1053 1 0.53823 0.178064 0
1052 1 0.520518 0.19606 0
1083 1 0.544128 0.202589 0
1081 1 0.501686 0.21281 0
1054 1 0.561978 0.186607 0
1056 1 0.585212 0.193567 0
1085 1 0.568337 0.211184 0
1057 1 0.604287 0.175954 0
1058 1 0.62752 0.183897 0
1087 1 0.608817 0.20114 0
1089 1 0.632921 0.20822 0
1061 1 0.669195 0.174424 0
1060 1 0.651024 0.192221 0
1091 1 0.675688 0.198068 0
1090 1 0.657873 0.215917 0
1062 1 0.693808 0.180166 0
1093 1 0.699461 0.204904 0
1064 1 0.717192 0.187976 0
1094 1 0.723961 0.213113 0
1066 1 0.760473 0.178724 0
1095 1 0.741762 0.195471 0
1097 1 0.766619 0.202862 0
1068 1 0.785205 0.182448 0
1098 1 0.789534 0.21302 0
1099 1 0.80597 0.195962 0
1070 1 0.827658 0.186872 0
1072 1 0.851368 0.182622 0
1101 1 0.842052 0.206767 0
1073 1 0.874689 0.17584 0
1103 1 0.86766 0.201061 0
1074 1 0.891367 0.1937 0
1104 1 0.885419 0.21826 0
1105 1 0.909053 0.211232 0
1078 1 0.940103 0.181607 0
1076 1 0.915227 0.187267 0
1107 1 0.933091 0.204968 0
1079 1 0.96385 0.174554 0
1109 1 0.957904 0.198319 0
181 1 0.983094 0.191946 0
211 1 0.999996 0.210628 0
1082 1 0.526167 0.220588 0
1111 1 0.507862 0.236995 0
1113 1 0.531214 0.245051 0
1084 1 0.550443 0.228229 0
1114 1 0.555835 0.252872 0
1115 1 0.573656 0.235293 0
1116 1 0.579701 0.260049 0
1086 1 0.591545 0.21837 0
1088 1 0.615523 0.224477 0
1117 1 0.597402 0.241959 0
1118 1 0.621135 0.249255 0
1119 1 0.639027 0.232044 0
1121 1 0.662995 0.240073 0
1120 1 0.645885 0.256398 0
1092 1 0.681949 0.222753 0
1122 1 0.68757 0.246775 0
1123 1 0.705262 0.228827 0
1124 1 0.711819 0.25366 0
1125 1 0.730111 0.236609 0
1096 1 0.748081 0.220088 0
1126 1 0.753089 0.24388 0
1127 1 0.77158 0.228654 0
1100 1 0.81651 0.219213 0
1129 1 0.796456 0.23633 0
1128 1 0.778092 0.252747 0
1159 1 0.801919 0.259821 0
1130 1 0.820364 0.244197 0
1131 1 0.83918 0.231012 0
1132 1 0.850288 0.254055 0
1102 1 0.862097 0.225877 0
1133 1 0.877596 0.244965 0
1135 1 0.901724 0.236785 0
1134 1 0.895691 0.261158 0
1108 1 0.950918 0.221707 0
1136 1 0.920694 0.253695 0
1106 1 0.925573 0.229032 0
1137 1 0.945135 0.246234 0
1110 1 0.975329 0.214903 0
1139 1 0.969732 0.240168 0
1140 1 0.993225 0.234481 0
1169 1 0.986899 0.258904 0
1112 1 0.513863 0.262117 0
1142 1 0.520111 0.286782 0
1143 1 0.539053 0.26962 0
1144 1 0.544416 0.293021 0