ITEM: TIMESTEP
56000
ITEM: NUMBER OF ATOMS
1800
ITEM: BOX BOUNDS pp pp pp
1.0475821691172627e+00 1.6395241783088235e+02
1.0475821691172627e+00 1.6395241783088235e+02
0.0000000000000000e+00 5.5000000000000000e+00
ITEM: ATOMS id type xs ys zs
2 1 0.0129781 0.00861748 0
3 1 0.0365901 0.00183656 0
33 1 0.0301313 0.0256173 0
31 1 0.006119 0.032742 0
4 1 0.0539404 0.0200069 0
6 1 0.0775869 0.0126347 0
35 1 0.0708207 0.0364728 0
34 1 0.0474604 0.0435183 0
8 1 0.102557 0.00602284 0
37 1 0.0959234 0.0294768 0
39 1 0.120698 0.0235535 0
10 1 0.144645 0.0159546 0
41 1 0.168743 0.00923064 0
42 1 0.162846 0.0347154 0
40 1 0.138299 0.0405073 0
12 1 0.193817 0.000836333 0
43 1 0.188221 0.0251158 0
14 1 0.214061 0.0178759 0
16 1 0.258127 0.0253579 0
886 1 0.23843 0.00995083 0
18 1 0.28127 0.013577 0
49 1 0.30443 0.0383934 0
20 1 0.305928 0.000473104 0
51 1 0.3217 0.0194444 0
22 1 0.344929 0.0272886 0
21 1 0.361182 0.00871648 0
24 1 0.38772 0.0180839 0
53 1 0.369286 0.0337078 0
894 1 0.405757 0.00155203 0
55 1 0.394572 0.0427238 0
25 1 0.412064 0.0245709 0
26 1 0.436619 0.0326388 0
27 1 0.431245 0.00891228 0
898 1 0.455662 0.0154209 0
29 1 0.480149 0.0222562 0
900 1 0.497472 0.00504371 0
28 1 0.461014 0.0398185 0
32 1 0.0229556 0.049549 0
62 1 0.0155557 0.0734056 0
63 1 0.040428 0.067753 0
65 1 0.0652603 0.0608652 0
66 1 0.0822981 0.077813 0
64 1 0.0579268 0.0853223 0
36 1 0.0900152 0.0531963 0
38 1 0.113975 0.0468794 0
67 1 0.106675 0.0707753 0
69 1 0.131703 0.0641108 0
71 1 0.155671 0.0579638 0
72 1 0.172682 0.07549 0
70 1 0.148014 0.0817128 0
73 1 0.180756 0.0518828 0
44 1 0.205276 0.0433872 0
74 1 0.221787 0.0616129 0
103 1 0.198195 0.0693919 0
105 1 0.216116 0.0870787 0
45 1 0.238608 0.0413708 0
46 1 0.26401 0.0505381 0
75 1 0.246009 0.0676201 0
77 1 0.269555 0.0752292 0
47 1 0.287953 0.0571502 0
48 1 0.311882 0.0631887 0
78 1 0.29371 0.0812977 0
50 1 0.329178 0.0462451 0
81 1 0.335748 0.0706751 0
52 1 0.354059 0.0541828 0
82 1 0.359814 0.0785828 0
83 1 0.377513 0.060304 0
54 1 0.400686 0.0672873 0
113 1 0.383739 0.0856283 0
57 1 0.442785 0.0567846 0
85 1 0.424617 0.0737771 0
56 1 0.418275 0.0490032 0
87 1 0.448201 0.0819939 0
59 1 0.484988 0.0466497 0
58 1 0.466634 0.0637983 0
89 1 0.490523 0.0703882 0
990 1 0.00989853 0.0976558 0
92 1 0.027499 0.115355 0
93 1 0.0342895 0.092287 0
91 1 0.00220546 0.121972 0
94 1 0.0517023 0.109044 0
95 1 0.0754931 0.102178 0
125 1 0.0687293 0.126435 0
96 1 0.093651 0.11995 0
68 1 0.124507 0.0883877 0
97 1 0.0999081 0.0960198 0
98 1 0.116788 0.112448 0
99 1 0.140692 0.106685 0
100 1 0.165809 0.0992644 0
130 1 0.158072 0.123998 0
131 1 0.182507 0.117221 0
101 1 0.189649 0.093254 0
102 1 0.206416 0.110465 0
104 1 0.220154 0.130409 0
76 1 0.250558 0.0922092 0
106 1 0.232839 0.108292 0
137 1 0.258055 0.115621 0
107 1 0.276934 0.0998315 0
108 1 0.28209 0.12493 0
109 1 0.301299 0.107198 0
79 1 0.31807 0.0885099 0
80 1 0.341472 0.0944636 0
110 1 0.323997 0.112959 0
141 1 0.34708 0.120428 0
111 1 0.364844 0.102622 0
84 1 0.406871 0.091658 0
112 1 0.388666 0.110365 0
143 1 0.370549 0.12776 0
115 1 0.413004 0.116321 0
86 1 0.431109 0.0994942 0
116 1 0.436203 0.123968 0
117 1 0.454586 0.106353 0
88 1 0.471675 0.0885851 0
90 1 0.496435 0.0951238 0
119 1 0.478266 0.112809 0
123 1 0.0440702 0.133518 0
122 1 0.0205868 0.139722 0
153 1 0.0372612 0.15738 0
152 1 0.0135598 0.163355 0
124 1 0.0622051 0.150662 0
126 1 0.0860532 0.144114 0
155 1 0.0791071 0.169006 0
129 1 0.133463 0.130629 0
127 1 0.110068 0.137251 0
128 1 0.12723 0.154905 0
157 1 0.103127 0.162108 0
159 1 0.151331 0.148436 0
132 1 0.173993 0.141321 0
161 1 0.167001 0.167578 0
160 1 0.143457 0.173375 0
133 1 0.197523 0.136312 0
163 1 0.190682 0.159589 0
134 1 0.218421 0.155124 0
135 1 0.243041 0.135546 0
136 1 0.265821 0.14185 0
165 1 0.246659 0.159054 0
167 1 0.27182 0.166259 0
139 1 0.305931 0.131517 0
138 1 0.2888 0.149421 0
169 1 0.312291 0.156674 0
140 1 0.330069 0.138571 0
142 1 0.353591 0.145831 0
171 1 0.335944 0.164543 0
172 1 0.359531 0.170008 0
114 1 0.394336 0.134108 0
173 1 0.378036 0.152012 0
144 1 0.401353 0.159037 0
145 1 0.418376 0.141557 0
146 1 0.425154 0.166112 0
147 1 0.442079 0.148318 0
177 1 0.448647 0.173061 0
118 1 0.460102 0.130716 0
149 1 0.483427 0.137738 0
148 1 0.465472 0.155491 0
150 1 0.488761 0.16313 0
183 1 0.0308854 0.181432 0
182 1 0.0236432 0.205333 0
1080 1 0.00651757 0.186439 0
154 1 0.0552798 0.174327 0
184 1 0.0478496 0.198742 0
185 1 0.0724403 0.193069 0
186 1 0.089337 0.210788 0
215 1 0.0649231 0.216884 0
156 1 0.0959613 0.186376 0
158 1 0.120263 0.180147 0
187 1 0.113111 0.204632 0
189 1 0.136721 0.197717 0
191 1 0.161348 0.191248 0
221 1 0.179242 0.210427 0
190 1 0.153802 0.214096 0
162 1 0.185337 0.185712 0
193 1 0.207453 0.17765 0
192 1 0.203815 0.202581 0
164 1 0.230775 0.177536 0
195 1 0.234308 0.202215 0
166 1 0.253493 0.18334 0
196 1 0.25742 0.209865 0
168 1 0.29467 0.174584 0
197 1 0.276163 0.191812 0
199 1 0.299428 0.199212 0
198 1 0.280829 0.216605 0
170 1 0.317812 0.181962 0
201 1 0.341649 0.187783 0
200 1 0.322847 0.205608 0
202 1 0.347112 0.212102 0
203 1 0.365048 0.193432 0
174 1 0.382867 0.17646 0
204 1 0.388732 0.20028 0
175 1 0.40669 0.183587 0
205 1 0.412723 0.208007 0
176 1 0.430339 0.190275 0
207 1 0.435774 0.21495 0
178 1 0.453959 0.196888 0
179 1 0.471716 0.180476 0
180 1 0.496152 0.188499 0
209 1 0.478099 0.205547 0
213 1 0.0409038 0.223358 0
212 1 0.0178065 0.229816 0
243 1 0.0344684 0.248177 0
241 1 0.010716 0.253093 0
216 1 0.0835276 0.235393 0
214 1 0.0588434 0.240791 0
245 1 0.0780581 0.258578 0
188 1 0.130212 0.221495 0
217 1 0.106965 0.229016 0
218 1 0.123992 0.246906 0
247 1 0.101713 0.256132 0
219 1 0.1481 0.238614 0
220 1 0.17181 0.234326 0
222 1 0.183626 0.255012 0
223 1 0.19659 0.231356 0
194 1 0.218602 0.221561 0
224 1 0.22242 0.24597 0
225 1 0.241435 0.22917 0
227 1 0.264031 0.23622 0
226 1 0.246437 0.254876 0
228 1 0.288011 0.242089 0
229 1 0.304938 0.224136 0
230 1 0.311525 0.248918 0
231 1 0.329078 0.23039 0
232 1 0.353231 0.236322 0
261 1 0.335113 0.25385 0
263 1 0.358172 0.261351 0
233 1 0.371109 0.218146 0
234 1 0.376183 0.243641 0
235 1 0.394828 0.22561 0
265 1 0.399603 0.249637 0
236 1 0.424364 0.257594 0
206 1 0.418704 0.232407 0
237 1 0.441721 0.239577 0
208 1 0.459076 0.22182 0
210 1 0.482781 0.230227 0
239 1 0.464886 0.247515 0
240 1 0.48874 0.255462 0
242 1 0.0275201 0.272221 0
273 1 0.0451189 0.289388 0
271 1 0.0206909 0.297538 0
1170 1 0.00414033 0.277833 0
244 1 0.0525086 0.264393 0
275 1 0.0699512 0.284313 0
246 1 0.0954927 0.281394 0
248 1 0.120445 0.276218 0
279 1 0.125028 0.300517 0
251 1 0.164932 0.271007 0
249 1 0.142379 0.262442 0
250 1 0.145473 0.286017 0
281 1 0.168389 0.295867 0
253 1 0.206306 0.264574 0
252 1 0.186976 0.280018 0
254 1 0.210349 0.289016 0
257 1 0.270242 0.261714 0
255 1 0.229199 0.272594 0
256 1 0.252223 0.279632 0
285 1 0.233765 0.297017 0
259 1 0.294027 0.266296 0
258 1 0.274994 0.287579 0
289 1 0.298687 0.290269 0
260 1 0.317137 0.271782 0
262 1 0.340939 0.278586 0
291 1 0.323441 0.296313 0
292 1 0.346803 0.304076 0
293 1 0.365372 0.28548 0
264 1 0.381817 0.267816 0
295 1 0.388787 0.292725 0
266 1 0.405603 0.27384 0
238 1 0.447533 0.264505 0
267 1 0.429637 0.282111 0
297 1 0.411941 0.299721 0
268 1 0.452672 0.289185 0
1141 1 0.495195 0.278403 0
269 1 0.470545 0.271962 0
270 1 0.47736 0.29555 0
301 1 0.0193105 0.326173 0
272 1 0.0394477 0.312583 0
303 1 0.0433537 0.337198 0
1230 1 0.000488754 0.342617 0
276 1 0.0838473 0.30464 0
274 1 0.0632799 0.320693 0
305 1 0.0858297 0.331815 0
304 1 0.0663365 0.346171 0
277 1 0.104799 0.315855 0
278 1 0.128025 0.325378 0
307 1 0.109251 0.341301 0
280 1 0.148975 0.310982 0
311 1 0.151439 0.334467 0
282 1 0.171689 0.320496 0
312 1 0.174196 0.344569 0
283 1 0.190648 0.304536 0
284 1 0.213338 0.312181 0
313 1 0.194667 0.328715 0
315 1 0.216891 0.338079 0
287 1 0.257071 0.3056 0
286 1 0.235753 0.32198 0
317 1 0.258798 0.330668 0
288 1 0.281424 0.312027 0
318 1 0.281315 0.337296 0
290 1 0.30691 0.31437 0
319 1 0.305294 0.338422 0
321 1 0.328348 0.327016 0
323 1 0.352785 0.327121 0
324 1 0.375793 0.333764 0
294 1 0.370775 0.30975 0
325 1 0.400343 0.341141 0
296 1 0.394074 0.317097 0
298 1 0.43615 0.306371 0
327 1 0.418888 0.323651 0
328 1 0.442064 0.330953 0
329 1 0.465677 0.338178 0
299 1 0.460388 0.313287 0
300 1 0.483142 0.319856 0
1201 1 0.489936 0.344248 0
302 1 0.0239337 0.351107 0
332 1 0.0277128 0.376755 0
331 1 0.00484332 0.36758 0
333 1 0.0470256 0.36191 0
335 1 0.0699056 0.370749 0
334 1 0.0499173 0.386272 0
306 1 0.0899516 0.356022 0
337 1 0.0931533 0.380866 0
308 1 0.113411 0.366523 0
309 1 0.131946 0.350763 0
339 1 0.135854 0.375029 0
338 1 0.115881 0.391684 0
310 1 0.155368 0.359695 0
341 1 0.158566 0.384542 0
343 1 0.177801 0.369042 0
314 1 0.196776 0.352875 0
344 1 0.200895 0.378793 0
345 1 0.220017 0.362833 0
375 1 0.223577 0.390052 0
316 1 0.239563 0.346681 0
347 1 0.263671 0.356721 0
346 1 0.241428 0.372771 0
377 1 0.264338 0.381105 0
349 1 0.291974 0.359858 0
348 1 0.287922 0.384509 0
350 1 0.312253 0.378049 0
320 1 0.322311 0.355205 0
322 1 0.348295 0.351404 0
351 1 0.337636 0.373997 0
353 1 0.363329 0.370239 0
355 1 0.384023 0.35827 0
354 1 0.387426 0.383238 0
356 1 0.406064 0.366824 0
326 1 0.424647 0.348514 0
357 1 0.430902 0.373781 0
359 1 0.448444 0.356069 0
358 1 0.454653 0.380952 0
330 1 0.47188 0.362967 0
1231 1 0.495469 0.368854 0
360 1 0.478894 0.387004 0
361 1 0.0081014 0.392233 0
363 1 0.0304754 0.402154 0
362 1 0.0116197 0.416299 0
364 1 0.034594 0.427278 0
336 1 0.0729885 0.397154 0
365 1 0.0533352 0.411716 0
366 1 0.0767148 0.421195 0
367 1 0.0958137 0.405527 0
369 1 0.119224 0.416424 0
368 1 0.0991369 0.431606 0
340 1 0.139051 0.400252 0
370 1 0.141742 0.425731 0
371 1 0.1615 0.41002 0
342 1 0.181518 0.394508 0
372 1 0.183962 0.421041 0
373 1 0.204248 0.404607 0
403 1 0.206793 0.430548 0
374 1 0.226253 0.414892 0
376 1 0.246822 0.3986 0
405 1 0.249991 0.423766 0
378 1 0.275613 0.408465 0
379 1 0.305103 0.401564 0
409 1 0.296573 0.42454 0
352 1 0.354048 0.392291 0
381 1 0.329645 0.397044 0
382 1 0.346655 0.416762 0
380 1 0.321467 0.421247 0
413 1 0.362181 0.435397 0
383 1 0.370913 0.410688 0
385 1 0.395969 0.408322 0
384 1 0.385217 0.430335 0
387 1 0.41263 0.390621 0
386 1 0.421354 0.416363 0
388 1 0.437936 0.398767 0
419 1 0.445998 0.422894 0
389 1 0.461895 0.40449 0
1261 1 0.486689 0.411035 0
390 1 0.469778 0.430082 0
393 1 0.0145547 0.442008 0
423 1 0.0169466 0.467351 0
394 1 0.0374347 0.452497 0
425 1 0.0383692 0.47791 0
395 1 0.0569844 0.436588 0
396 1 0.0605872 0.460859 0
397 1 0.0797646 0.446551 0
427 1 0.0822863 0.47248 0
399 1 0.121897 0.441774 0
398 1 0.102464 0.45649 0
429 1 0.124471 0.467261 0
401 1 0.164592 0.434773 0
400 1 0.144729 0.450902 0
431 1 0.167648 0.460017 0
430 1 0.148241 0.475872 0
402 1 0.187411 0.445196 0
433 1 0.209085 0.455719 0
432 1 0.190151 0.470275 0
404 1 0.229116 0.440558 0
406 1 0.251331 0.449071 0
435 1 0.23217 0.465455 0
436 1 0.253635 0.475701 0
437 1 0.272722 0.460286 0
407 1 0.272323 0.433635 0
408 1 0.292717 0.448336 0
410 1 0.315881 0.44612 0
439 1 0.30638 0.468793 0
411 1 0.338328 0.439726 0
412 1 0.35433 0.458479 0
441 1 0.331619 0.465191 0
415 1 0.407513 0.43789 0
414 1 0.388672 0.455767 0
443 1 0.371995 0.475455 0
417 1 0.430701 0.44242 0
418 1 0.453744 0.449134 0
416 1 0.412656 0.461222 0
447 1 0.436912 0.467522 0
1291 1 0.493953 0.436134 0
420 1 0.477752 0.454294 0
449 1 0.461069 0.473584 0
454 1 0.0227875 0.517148 0
424 1 0.0191287 0.492168 0
455 1 0.0418432 0.502285 0
453 1 0.000111311 0.507668 0
426 1 0.0617163 0.486951 0
456 1 0.0653713 0.51215 0
457 1 0.0845008 0.497545 0
487 1 0.0887752 0.521863 0
428 1 0.105098 0.482173 0
459 1 0.128635 0.492212 0
458 1 0.108495 0.50694 0
489 1 0.130912 0.51681 0
461 1 0.170797 0.485256 0
460 1 0.151162 0.501423 0
462 1 0.173542 0.510911 0
434 1 0.21219 0.480132 0
463 1 0.192979 0.495812 0
464 1 0.215563 0.506135 0
493 1 0.196507 0.522375 0
465 1 0.235224 0.490911 0
467 1 0.257926 0.499324 0
466 1 0.238452 0.515702 0
438 1 0.278167 0.484153 0
469 1 0.3002 0.49372 0
468 1 0.280055 0.508861 0
470 1 0.311148 0.516652 0
442 1 0.349143 0.487215 0
440 1 0.324421 0.488742 0
471 1 0.337063 0.509398 0
473 1 0.361823 0.514332 0
445 1 0.39647 0.480085 0
444 1 0.380025 0.49866 0
475 1 0.403795 0.504242 0
446 1 0.420407 0.485915 0
477 1 0.428007 0.511465 0
448 1 0.444408 0.492361 0
478 1 0.451784 0.516986 0
450 1 0.484982 0.477909 0
479 1 0.468495 0.498063 0
1381 1 0.492467 0.504526 0
480 1 0.475515 0.522443 0
452 1 0.00336794 0.532486 0
483 1 0.0253957 0.542193 0
482 1 0.00510193 0.557432 0
485 1 0.0454018 0.527422 0
484 1 0.0475134 0.551978 0
486 1 0.0680208 0.538007 0
515 1 0.0711588 0.562607 0
517 1 0.0907371 0.546742 0
488 1 0.111892 0.532089 0
519 1 0.113932 0.557642 0
490 1 0.134222 0.542312 0
491 1 0.153542 0.526938 0
521 1 0.156919 0.552699 0
492 1 0.175935 0.536145 0
523 1 0.179667 0.561962 0
494 1 0.199647 0.546771 0
495 1 0.219315 0.530897 0
525 1 0.22282 0.557048 0
496 1 0.24258 0.540759 0
497 1 0.261875 0.52411 0
527 1 0.264933 0.548731 0
499 1 0.30749 0.541457 0
498 1 0.284996 0.533525 0
529 1 0.288258 0.55758 0
472 1 0.345869 0.532486 0
501 1 0.330516 0.550682 0
502 1 0.353857 0.557945 0
474 1 0.386883 0.521509 0
503 1 0.370424 0.539619 0
505 1 0.394132 0.547072 0
476 1 0.410717 0.529363 0
507 1 0.435126 0.535096 0
506 1 0.418372 0.553103 0
508 1 0.442753 0.559073 0
509 1 0.459536 0.54047 0
510 1 0.484646 0.546057 0
513 1 0.0272316 0.566883 0
512 1 0.0309397 0.591725 0
511 1 0.00737121 0.581937 0
541 1 0.00933861 0.606758 0
514 1 0.0507819 0.577195 0
545 1 0.0745935 0.5877 0
543 1 0.0535069 0.602088 0
516 1 0.0941954 0.571442 0
518 1 0.1164 0.582317 0
547 1 0.0967583 0.598874 0
548 1 0.11892 0.609119 0
520 1 0.137212 0.568168 0
549 1 0.139939 0.593013 0
522 1 0.160942 0.578118 0
551 1 0.16401 0.602761 0
524 1 0.203566 0.572502 0
553 1 0.184592 0.587951 0
554 1 0.208345 0.59765 0
555 1 0.227816 0.581197 0
526 1 0.246034 0.564546 0
557 1 0.250549 0.589993 0
528 1 0.269159 0.573849 0
556 1 0.232135 0.606671 0
500 1 0.312102 0.566593 0
558 1 0.274761 0.598515 0
559 1 0.293726 0.581997 0
560 1 0.297886 0.606645 0
530 1 0.316572 0.591195 0
531 1 0.335603 0.57508 0
532 1 0.342012 0.599351 0
533 1 0.361181 0.582252 0
504 1 0.377471 0.564339 0
534 1 0.384762 0.58855 0
535 1 0.401204 0.571185 0
563 1 0.36706 0.606558 0
536 1 0.408372 0.59544 0
537 1 0.426447 0.578509 0
567 1 0.433685 0.603411 0
538 1 0.450733 0.583829 0
539 1 0.466902 0.563599 0
540 1 0.491153 0.570244 0
569 1 0.475075 0.588951 0
1441 1 0.499723 0.593745 0
542 1 0.0326433 0.615983 0
571 1 0.0118187 0.631059 0
573 1 0.0347793 0.63998 0
544 1 0.0559439 0.626479 0
546 1 0.0762389 0.612617 0
575 1 0.0783045 0.637535 0
577 1 0.0992509 0.624784 0
579 1 0.124141 0.633311 0
576 1 0.100055 0.64879 0
550 1 0.143738 0.617644 0
581 1 0.167763 0.627076 0
580 1 0.147173 0.641884 0
552 1 0.189383 0.613333 0
582 1 0.193389 0.63776 0
583 1 0.213942 0.623339 0
584 1 0.219469 0.647976 0
585 1 0.238539 0.632959 0
586 1 0.263057 0.640853 0
587 1 0.255992 0.615552 0
589 1 0.280949 0.623186 0
590 1 0.305475 0.630779 0
588 1 0.287164 0.648221 0
561 1 0.323746 0.615407 0
562 1 0.348488 0.623291 0
591 1 0.330538 0.640485 0
593 1 0.3552 0.647068 0
565 1 0.390786 0.613856 0
564 1 0.372832 0.630661 0
595 1 0.396432 0.637923 0
566 1 0.415679 0.620195 0
596 1 0.421045 0.644041 0
597 1 0.441176 0.626266 0
599 1 0.445664 0.65119 0
568 1 0.458482 0.608384 0
570 1 0.482603 0.61476 0
600 1 0.465449 0.632415 0
1471 1 0.490973 0.638328 0
572 1 0.0162598 0.655216 0
602 1 0.0164444 0.679874 0
603 1 0.0376878 0.666915 0
633 1 0.0386958 0.692528 0
574 1 0.0571032 0.651943 0
605 1 0.0789933 0.662898 0
604 1 0.0599789 0.678059 0
606 1 0.0820897 0.688572 0
578 1 0.122005 0.658785 0
607 1 0.101701 0.674401 0
608 1 0.124035 0.683542 0
609 1 0.144401 0.666838 0
611 1 0.172154 0.651252 0
610 1 0.166309 0.675178 0
639 1 0.146728 0.692428 0
612 1 0.188683 0.684765 0
613 1 0.200731 0.663168 0
643 1 0.211428 0.692656 0
614 1 0.225288 0.673178 0
615 1 0.244547 0.658147 0
616 1 0.251075 0.682977 0
617 1 0.269208 0.665556 0
647 1 0.277028 0.690944 0
619 1 0.312296 0.656518 0
618 1 0.2947 0.673431 0
620 1 0.319047 0.683055 0
621 1 0.336659 0.664807 0
592 1 0.36167 0.672652 0
622 1 0.34204 0.690155 0
594 1 0.37876 0.655298 0
625 1 0.403018 0.661482 0
623 1 0.384387 0.67993 0
626 1 0.409073 0.687922 0
598 1 0.452214 0.67523 0
627 1 0.426801 0.66914 0
657 1 0.43298 0.693536 0
628 1 0.476634 0.680352 0
629 1 0.471706 0.655286 0
1501 1 0.496656 0.662386 0
632 1 0.0170659 0.703591 0
663 1 0.0187408 0.7275 0
634 1 0.04234 0.718871 0
635 1 0.0634376 0.705445 0
636 1 0.0846433 0.716359 0
665 1 0.0644938 0.732229 0
637 1 0.103734 0.699219 0
638 1 0.127967 0.708763 0
667 1 0.107902 0.724824 0
669 1 0.13247 0.732636 0
641 1 0.170312 0.700557 0
640 1 0.150998 0.716786 0
671 1 0.174115 0.725136 0
642 1 0.193555 0.709574 0
673 1 0.199357 0.734317 0
644 1 0.216547 0.717985 0
645 1 0.233636 0.701228 0
675 1 0.239713 0.725471 0
646 1 0.258746 0.707198 0
677 1 0.263269 0.733071 0
649 1 0.299967 0.699372 0
648 1 0.282062 0.717158 0
679 1 0.305419 0.724605 0
650 1 0.324155 0.708051 0
651 1 0.347782 0.714064 0
681 1 0.32881 0.732161 0
652 1 0.353763 0.737691 0
653 1 0.366412 0.696979 0
624 1 0.389704 0.704471 0
654 1 0.372465 0.722744 0
685 1 0.396951 0.730166 0
655 1 0.413981 0.711604 0
656 1 0.439018 0.719034 0
686 1 0.420581 0.738096 0
687 1 0.463296 0.724417 0
658 1 0.45737 0.699902 0
659 1 0.481251 0.705927 0
689 1 0.486252 0.731386 0
662 1 0.0229427 0.750133 0
691 1 0.0042154 0.766693 0
693 1 0.0295774 0.772616 0
664 1 0.0475317 0.749374 0
695 1 0.0708104 0.757645 0
694 1 0.0541917 0.776127 0
666 1 0.0889976 0.741034 0
696 1 0.0773333 0.782979 0
697 1 0.0951068 0.7654 0
668 1 0.114091 0.749328 0
698 1 0.118219 0.774472 0
699 1 0.137307 0.75855 0
670 1 0.155552 0.74171 0
701 1 0.161109 0.766656 0
672 1 0.179395 0.75001 0
702 1 0.184328 0.774838 0
674 1 0.222579 0.74322 0
703 1 0.202611 0.759022 0
705 1 0.227697 0.769786 0
676 1 0.244994 0.750424 0
707 1 0.26847 0.756127 0
706 1 0.267628 0.779965 0
678 1 0.287551 0.741719 0
680 1 0.313017 0.753194 0
709 1 0.290614 0.766602 0
710 1 0.309769 0.781861 0
682 1 0.357778 0.762505 0
711 1 0.332781 0.770776 0
683 1 0.37756 0.746898 0
713 1 0.381329 0.77147 0
684 1 0.40173 0.755931 0
715 1 0.427131 0.761374 0
717 1 0.444945 0.742333 0
718 1 0.451247 0.767904 0
716 1 0.410199 0.779059 0
690 1 0.492595 0.756713 0
688 1 0.468107 0.749058 0
719 1 0.4754 0.774082 0
1591 1 0.500012 0.781115 0
692 1 0.0107517 0.789412 0
722 1 0.0170685 0.812636 0
723 1 0.0361988 0.795015 0
724 1 0.0416312 0.819153 0
725 1 0.0593457 0.801106 0
726 1 0.0825758 0.807559 0
755 1 0.0649136 0.825423 0
727 1 0.100098 0.791032 0
728 1 0.124085 0.798586 0
757 1 0.106476 0.815118 0
759 1 0.129831 0.821696 0
700 1 0.142137 0.782068 0
729 1 0.148569 0.805997 0
730 1 0.176321 0.817416 0
731 1 0.168465 0.792417 0
704 1 0.206813 0.783353 0
732 1 0.199037 0.808045 0
733 1 0.223227 0.800041 0
734 1 0.21916 0.823839 0
735 1 0.245507 0.788278 0
736 1 0.242491 0.814316 0
737 1 0.265448 0.80451 0
708 1 0.288889 0.792306 0
738 1 0.285811 0.817935 0
739 1 0.307495 0.807086 0
712 1 0.352843 0.786618 0
741 1 0.330563 0.797566 0
742 1 0.349347 0.812445 0
740 1 0.326234 0.822708 0
714 1 0.394048 0.795489 0
743 1 0.371507 0.804225 0
745 1 0.395421 0.820883 0
746 1 0.415303 0.807089 0
747 1 0.433298 0.786945 0
748 1 0.440129 0.811231 0
749 1 0.457375 0.792151 0
720 1 0.481912 0.798415 0
750 1 0.465447 0.816699 0
1621 1 0.489042 0.823498 0
752 1 0.00832789 0.853631 0
753 1 0.0241602 0.835675 0
783 1 0.0305982 0.866571 0
754 1 0.0470569 0.843328 0
785 1 0.0722976 0.849032 0
784 1 0.0546169 0.866663 0
756 1 0.0891029 0.83215 0
758 1 0.113537 0.839522 0
787 1 0.0966669 0.855845 0
788 1 0.12478 0.864048 0
789 1 0.150334 0.854206 0
760 1 0.154393 0.82963 0
761 1 0.173791 0.844843 0
791 1 0.17035 0.869352 0
763 1 0.195759 0.83257 0
762 1 0.194027 0.858508 0
764 1 0.216213 0.849743 0
767 1 0.26291 0.829365 0
765 1 0.238432 0.839208 0
795 1 0.237067 0.864403 0
766 1 0.259031 0.854537 0
769 1 0.304421 0.833534 0
768 1 0.282132 0.843706 0
799 1 0.302224 0.858957 0
770 1 0.324436 0.848183 0
771 1 0.346398 0.836622 0
772 1 0.343259 0.864696 0
744 1 0.370498 0.828752 0
773 1 0.365843 0.853169 0
775 1 0.390054 0.84492 0
774 1 0.385035 0.868988 0
776 1 0.409617 0.858893 0
777 1 0.41702 0.834053 0
807 1 0.432803 0.853465 0
778 1 0.447116 0.834255 0
809 1 0.45629 0.858849 0
779 1 0.472535 0.840208 0
780 1 0.479907 0.866617 0
1651 1 0.496407 0.847834 0
782 1 0.0039166 0.878386 0
813 1 0.0443271 0.888553 0
812 1 0.0213786 0.895772 0
814 1 0.0385903 0.913406 0
786 1 0.0780361 0.873311 0
815 1 0.0623202 0.907158 0
816 1 0.0856355 0.896637 0
817 1 0.10309 0.879625 0
819 1 0.123129 0.892641 0
790 1 0.147768 0.878698 0
821 1 0.169272 0.893803 0
820 1 0.146781 0.902853 0
792 1 0.191395 0.883136 0
793 1 0.21419 0.873723 0
823 1 0.211585 0.899621 0
822 1 0.188722 0.909322 0
794 1 0.23376 0.88963 0
796 1 0.256577 0.879956 0
827 1 0.253854 0.905689 0
797 1 0.280185 0.86907 0
798 1 0.275497 0.895388 0
800 1 0.298547 0.885384 0
829 1 0.295051 0.910285 0
831 1 0.317478 0.900358 0
801 1 0.321357 0.874519 0
802 1 0.340236 0.890821 0
833 1 0.360039 0.905788 0
803 1 0.363771 0.880583 0
804 1 0.383239 0.896451 0
805 1 0.404259 0.883461 0
835 1 0.402453 0.911284 0
806 1 0.423682 0.896834 0
808 1 0.438904 0.877197 0
839 1 0.446429 0.902291 0
1681 1 0.486452 0.890264 0
810 1 0.462747 0.883778 0
840 1 0.469473 0.908512 0
842 1 0.00734682 0.942743 0
843 1 0.0138469 0.919203 0
844 1 0.0317261 0.93773 0
845 1 0.0556051 0.930795 0
846 1 0.0727129 0.947515 0
847 1 0.0810283 0.922629 0
875 1 0.0487072 0.954645 0
818 1 0.104593 0.913076 0
848 1 0.0971721 0.940466 0
849 1 0.119734 0.933591 0
850 1 0.143753 0.927591 0
851 1 0.165757 0.91838 0
852 1 0.162634 0.943037 0
881 1 0.138219 0.951684 0
824 1 0.207851 0.924725 0
853 1 0.185229 0.933579 0
854 1 0.204155 0.950575 0
855 1 0.227348 0.940941 0
825 1 0.230861 0.915423 0
826 1 0.250163 0.930487 0
857 1 0.269133 0.946712 0
856 1 0.246298 0.957749 0
828 1 0.272938 0.920841 0
859 1 0.292215 0.93613 0
860 1 0.312053 0.95109 0
830 1 0.314798 0.924861 0
832 1 0.337649 0.91569 0
861 1 0.3348 0.94064 0
863 1 0.357725 0.931731 0
862 1 0.356382 0.956679 0
834 1 0.379562 0.921083 0
864 1 0.381108 0.945511 0
865 1 0.40779 0.937049 0
837 1 0.426728 0.920068 0
836 1 0.434356 0.942519 0
838 1 0.451576 0.926272 0
870 1 0.458533 0.949788 0
869 1 0.476383 0.932764 0
1711 1 0.492794 0.914087 0
872 1 0.0192319 0.984788 0
873 1 0.0244434 0.961222 0
871 1 0.00120348 0.967745 0
874 1 0.0430632 0.978513 0
5 1 0.0602854 0.995687 0
876 1 0.0669095 0.971499 0
7 1 0.0850969 0.989291 0
877 1 0.0906459 0.964897 0
879 1 0.114691 0.957875 0
9 1 0.126523 0.99934 0
878 1 0.10824 0.981167 0
880 1 0.132181 0.974947 0
11 1 0.15071 0.99205 0
882 1 0.157767 0.967105 0
13 1 0.175216 0.984504 0
883 1 0.181332 0.95971 0
15 1 0.219015 0.993594 0
884 1 0.199805 0.975137 0
885 1 0.223144 0.966972 0
17 1 0.261458 0.998239 0
887 1 0.241935 0.982076 0
888 1 0.266213 0.972418 0
858 1 0.288501 0.961048 0
19 1 0.284784 0.987155 0
889 1 0.310311 0.976491 0
891 1 0.33348 0.966241 0
890 1 0.329899 0.991797 0
892 1 0.355128 0.982032 0
23 1 0.381274 0.99382 0
893 1 0.377742 0.969961 0
895 1 0.400716 0.977756 0
897 1 0.448843 0.99091 0
866 1 0.417492 0.959893 0
896 1 0.424437 0.985215 0
867 1 0.442355 0.96778 0
868 1 0.466801 0.973783 0
1771 1 0.490666 0.980391 0
1741 1 0.484545 0.956519 0
899 1 0.473294 0.998671 0
630 1 0.499811 0.688669 0
931 1 0.526846 0.0363219 0
901 1 0.5219 0.0117258 0
30 1 0.503311 0.0301666 0
902 1 0.544854 0.019155 0
904 1 0.568297 0.0269081 0
906 1 0.586739 0.00981467 0
905 1 0.562907 0.00146479 0
935 1 0.592267 0.0348607 0
908 1 0.610007 0.0185017 0
939 1 0.633589 0.0268359 0
909 1 0.628545 0.00170878 0
937 1 0.615079 0.0437271 0
910 1 0.65327 0.0126844 0
941 1 0.65839 0.0359336 0
912 1 0.676626 0.0201366 0
943 1 0.701699 0.0273437 0
913 1 0.695398 0.00396711 0
945 1 0.726049 0.0353437 0
914 1 0.73444 0.0120294 0
916 1 0.75806 0.00526355 0
947 1 0.752606 0.0297257 0
918 1 0.777637 0.0230738 0
919 1 0.800847 0.0144651 0
949 1 0.798144 0.0393386 0
951 1 0.821252 0.0316463 0
920 1 0.824875 0.00719081 0
922 1 0.845714 0.02427 0
921 1 0.848702 0.999412 0
953 1 0.864068 0.0423941 0
923 1 0.868818 0.0180352 0
924 1 0.894239 0.0117354 0
954 1 0.889738 0.0368966 0
955 1 0.914264 0.0332032 0
925 1 0.919031 0.00826425 0
926 1 0.938131 0.0272688 0
928 1 0.945972 0.00470906 0
930 1 0.989597 0.0152369 0
959 1 0.964355 0.0213752 0
960 1 0.981205 0.0387393 0
932 1 0.532851 0.0606025 0
961 1 0.515078 0.0792119 0
60 1 0.50871 0.0539715 0
962 1 0.537959 0.0854169 0
933 1 0.550709 0.0442863 0
963 1 0.555615 0.0691964 0
934 1 0.57366 0.0522007 0
965 1 0.579667 0.0773744 0
936 1 0.596819 0.0595502 0
967 1 0.620528 0.0682756 0
966 1 0.603585 0.0859918 0
938 1 0.639461 0.0525895 0
969 1 0.645012 0.0767317 0
940 1 0.66289 0.0601118 0
970 1 0.668142 0.0837524 0
942 1 0.682272 0.0437236 0
971 1 0.686743 0.0676103 0
944 1 0.705922 0.0509635 0
973 1 0.710065 0.0751495 0
975 1 0.728592 0.0596344 0
974 1 0.744715 0.0789115 0
946 1 0.751766 0.0547147 0
977 1 0.769094 0.072303 0
948 1 0.774732 0.0472492 0
979 1 0.792806 0.0638466 0
950 1 0.816077 0.0568386 0
978 1 0.810018 0.081226 0
980 1 0.833636 0.0740473 0
981 1 0.858153 0.0668485 0
952 1 0.840106 0.0491582 0
983 1 0.882233 0.0610615 0
985 1 0.906314 0.0557531 0
984 1 0.898754 0.0792312 0
982 1 0.875216 0.0861064 0
956 1 0.930522 0.0508913 0
986 1 0.923899 0.0746089 0
987 1 0.948851 0.0680866 0
957 1 0.955957 0.0443676 0
958 1 0.973538 0.0619985 0
989 1 0.991761 0.0803651 0
61 1 0.998232 0.0563203 0
988 1 0.967275 0.0861458 0
991 1 0.519649 0.103187 0
120 1 0.502026 0.120284 0
993 1 0.543731 0.111447 0
992 1 0.525329 0.127791 0
964 1 0.561363 0.0940985 0
994 1 0.567145 0.118851 0
995 1 0.584828 0.102003 0
996 1 0.589929 0.126357 0
968 1 0.627138 0.0935207 0
997 1 0.608341 0.109284 0
998 1 0.632095 0.117572 0
999 1 0.650427 0.100475 0
1000 1 0.656849 0.124876 0
1001 1 0.674754 0.108438 0
972 1 0.69156 0.0918368 0
1002 1 0.698892 0.115255 0
1003 1 0.716487 0.0982119 0
1004 1 0.723309 0.121592 0
976 1 0.763861 0.0961044 0
1005 1 0.740562 0.104 0
1035 1 0.748009 0.127607 0
1007 1 0.786643 0.0893181 0
1006 1 0.780515 0.113416 0
1008 1 0.804392 0.105905 0
1039 1 0.821076 0.1255 0
1009 1 0.827379 0.0989271 0
1010 1 0.845638 0.11796 0
1011 1 0.85171 0.0926105 0
1012 1 0.868769 0.111385 0
1013 1 0.893425 0.104581 0
1014 1 0.888565 0.129143 0
1016 1 0.912381 0.122282 0
1017 1 0.94281 0.092027 0
1015 1 0.917064 0.098004 0
1047 1 0.935952 0.115443 0
1018 1 0.960492 0.110614 0
1019 1 0.984682 0.104108 0
1020 1 0.979188 0.127775 0
1022 1 0.530117 0.152416 0
1051 1 0.512742 0.169367 0
1021 1 0.506893 0.145127 0
1023 1 0.548955 0.13538 0
1024 1 0.554531 0.159746 0
1025 1 0.572644 0.143705 0
1055 1 0.578524 0.167667 0
1027 1 0.613385 0.133793 0
1026 1 0.595671 0.150729 0
1028 1 0.619641 0.158642 0
1029 1 0.638165 0.141254 0
1059 1 0.643828 0.1658 0
1030 1 0.661576 0.148733 0
1031 1 0.681065 0.13243 0
1032 1 0.686886 0.155394 0
1033 1 0.70524 0.139629 0
1063 1 0.711684 0.163847 0
1034 1 0.729394 0.146226 0
1036 1 0.75294 0.152108 0
1065 1 0.735977 0.171327 0
1037 1 0.796555 0.131645 0
1067 1 0.772067 0.136967 0
1038 1 0.789769 0.157123 0
1069 1 0.808344 0.173306 0
1040 1 0.814485 0.14997 0
1071 1 0.833039 0.16695 0
1041 1 0.83925 0.142732 0
1042 1 0.856121 0.161278 0
1043 1 0.863514 0.135245 0
1044 1 0.880375 0.153317 0
1075 1 0.898714 0.17053 0
1045 1 0.904966 0.14738 0
1049 1 0.953922 0.134478 0
1046 1 0.929593 0.140089 0
1048 1 0.946964 0.158886 0
1077 1 0.92362 0.164311 0
121 1 0.995498 0.145506 0
1050 1 0.971134 0.152319 0
151 1 0.989424 0.168981 0
1053 1 0.536923 0.177294 0
1052 1 0.519527 0.195776 0
1083 1 0.54336 0.202731 0
1081 1 0.501034 0.213217 0
1054 1 0.560219 0.183643 0
1056 1 0.583857 0.19246 0
1085 1 0.566562 0.209046 0
1057 1 0.602042 0.17526 0
1058 1 0.626772 0.182478 0
1087 1 0.608152 0.198932 0
1089 1 0.6323 0.208081 0
1086 1 0.590818 0.216517 0
1061 1 0.667646 0.172999 0
1060 1 0.65075 0.190557 0
1091 1 0.675672 0.196842 0
1090 1 0.656065 0.214039 0
1062 1 0.693241 0.179902 0
1093 1 0.698538 0.204422 0
1064 1 0.716664 0.187559 0
1094 1 0.722356 0.212241 0
1066 1 0.760933 0.175828 0
1095 1 0.740616 0.195187 0
1097 1 0.76412 0.200544 0
1068 1 0.785432 0.183956 0
1098 1 0.786052 0.209505 0
1099 1 0.806353 0.197808 0
1070 1 0.829294 0.19123 0
1072 1 0.852862 0.185505 0
1101 1 0.844912 0.210672 0
1073 1 0.875804 0.177735 0
1103 1 0.868966 0.203294 0
1074 1 0.892441 0.194754 0
1105 1 0.910783 0.213745 0
1078 1 0.941076 0.182909 0
1076 1 0.916179 0.189397 0
1107 1 0.934272 0.208164 0
1079 1 0.965295 0.176212 0
1109 1 0.957805 0.201195 0
181 1 0.983215 0.193789 0
211 1 0.999947 0.211106 0
1082 1 0.524655 0.219594 0
1111 1 0.507594 0.237747 0
1113 1 0.531485 0.243791 0
1084 1 0.549388 0.226207 0
1114 1 0.556015 0.250901 0
1115 1 0.572039 0.233237 0
1116 1 0.579525 0.258025 0
1088 1 0.614455 0.224301 0
1117 1 0.596699 0.242011 0
1118 1 0.621264 0.249319 0
1119 1 0.63924 0.232413 0
1121 1 0.663199 0.238333 0
1120 1 0.644634 0.256581 0
1092 1 0.68098 0.221987 0
1122 1 0.687157 0.246353 0
1123 1 0.704428 0.228998 0
1124 1 0.711362 0.253956 0
1125 1 0.728449 0.236917 0
1096 1 0.746044 0.220028 0
1126 1 0.752481 0.244843 0
1127 1 0.770326 0.227708 0
1155 1 0.734044 0.261689 0
1129 1 0.795112 0.233416 0
1128 1 0.776769 0.251201 0
1159 1 0.799694 0.257771 0
1100 1 0.820773 0.218471 0
1130 1 0.818342 0.242929 0
1131 1 0.84096 0.234686 0
1132 1 0.853575 0.25581 0
1102 1 0.863793 0.226958 0
1104 1 0.886823 0.220334 0
1133 1 0.878555 0.246462 0
1135 1 0.9026 0.238257 0
1108 1 0.951614 0.225636 0
1136 1 0.921199 0.255941 0
1106 1 0.926864 0.232485 0
1137 1 0.946103 0.249068 0
1110 1 0.976671 0.217974 0
1139 1 0.969749 0.242026 0
1140 1 0.993698 0.235263 0
1169 1 0.98739 0.259134 0
1112 1 0.512683 0.26154 0