ITEM: TIMESTEP
58000
ITEM: NUMBER OF ATOMS
1800
ITEM: BOX BOUNDS pp pp pp
1.0025042798679493e+00 1.6399749572013135e+02
1.0025042798679493e+00 1.6399749572013135e+02
0.0000000000000000e+00 5.5000000000000000e+00
ITEM: ATOMS id type xs ys zs
2 1 0.0136916 0.00930951 0
3 1 0.0380175 0.00230832 0
33 1 0.0305181 0.0265324 0
31 1 0.00590181 0.0321527 0
4 1 0.0544342 0.0200096 0
6 1 0.079551 0.0134219 0
35 1 0.0717843 0.0374233 0
8 1 0.103175 0.00639403 0
37 1 0.097766 0.0303765 0
39 1 0.121902 0.0232867 0
10 1 0.145674 0.01561 0
41 1 0.169654 0.01007 0
42 1 0.164011 0.0339146 0
40 1 0.139531 0.0402173 0
12 1 0.193595 0.00194423 0
43 1 0.188882 0.0269263 0
14 1 0.215841 0.0190172 0
16 1 0.256258 0.0231904 0
886 1 0.237314 0.00742383 0
45 1 0.236729 0.0395715 0
18 1 0.28067 0.0154027 0
49 1 0.303988 0.0349584 0
20 1 0.305604 0.00675811 0
51 1 0.324669 0.0216445 0
22 1 0.34707 0.0300577 0
21 1 0.363096 0.0118447 0
24 1 0.388558 0.0189131 0
53 1 0.370864 0.035731 0
894 1 0.405528 0.000920891 0
55 1 0.394058 0.0428901 0
25 1 0.411999 0.0265457 0
26 1 0.436047 0.0327749 0
27 1 0.428089 0.00849585 0
898 1 0.454094 0.0160895 0
29 1 0.478965 0.0215948 0
900 1 0.496319 0.00521284 0
28 1 0.460234 0.0401924 0
32 1 0.0227217 0.0503991 0
62 1 0.0162899 0.0740936 0
63 1 0.041076 0.0682809 0
34 1 0.0474383 0.0439463 0
65 1 0.0647819 0.0612992 0
66 1 0.0832841 0.0787488 0
64 1 0.0593159 0.0856187 0
36 1 0.0906324 0.0542708 0
38 1 0.115042 0.0471136 0
67 1 0.10857 0.0729936 0
69 1 0.132457 0.0651807 0
71 1 0.156791 0.0584822 0
72 1 0.174521 0.0753313 0
70 1 0.150332 0.0824753 0
73 1 0.181998 0.051095 0
44 1 0.206855 0.0436593 0
74 1 0.221267 0.0631687 0
103 1 0.198413 0.0696739 0
46 1 0.263216 0.0470645 0
75 1 0.246207 0.0638525 0
77 1 0.269496 0.0727757 0
47 1 0.287189 0.0542828 0
48 1 0.310638 0.0611653 0
78 1 0.293166 0.0792775 0
79 1 0.31642 0.0867685 0
50 1 0.328777 0.0454525 0
81 1 0.334423 0.0695008 0
52 1 0.352332 0.0537748 0
82 1 0.358447 0.0775121 0
83 1 0.376483 0.0598015 0
54 1 0.399072 0.0672347 0
113 1 0.382139 0.084947 0
57 1 0.442064 0.0574467 0
85 1 0.423884 0.0741659 0
56 1 0.418416 0.0502624 0
87 1 0.448169 0.0818834 0
59 1 0.484722 0.0469735 0
58 1 0.46606 0.0637968 0
89 1 0.490162 0.0713091 0
990 1 0.00974577 0.0979378 0
92 1 0.0276972 0.115561 0
93 1 0.0342488 0.0917056 0
91 1 0.00297712 0.122287 0
94 1 0.0515607 0.109361 0
95 1 0.0761439 0.102844 0
125 1 0.0696508 0.127323 0
96 1 0.0939608 0.120755 0
68 1 0.126039 0.0896808 0
97 1 0.101335 0.0961612 0
98 1 0.118551 0.113808 0
99 1 0.143055 0.107426 0
100 1 0.16716 0.0998209 0
130 1 0.159732 0.125199 0
105 1 0.216827 0.0883022 0
131 1 0.184021 0.117858 0
101 1 0.191474 0.0929914 0
102 1 0.207183 0.110992 0
76 1 0.249441 0.0889006 0
106 1 0.232148 0.108847 0
137 1 0.258259 0.111998 0
107 1 0.275999 0.0958187 0
108 1 0.281739 0.122388 0
109 1 0.299741 0.105224 0
80 1 0.339974 0.0938677 0
110 1 0.323014 0.112505 0
141 1 0.34674 0.119519 0
111 1 0.364405 0.102607 0
84 1 0.405721 0.0920292 0
112 1 0.388796 0.108815 0
143 1 0.370654 0.126543 0
115 1 0.412724 0.116475 0
86 1 0.430572 0.0987755 0
116 1 0.436552 0.123031 0
117 1 0.45468 0.106294 0
88 1 0.472318 0.0884428 0
90 1 0.496602 0.095547 0
119 1 0.478471 0.112419 0
123 1 0.045125 0.133561 0
122 1 0.020602 0.139974 0
153 1 0.0388485 0.157376 0
152 1 0.0144159 0.16453 0
124 1 0.0623813 0.151286 0
126 1 0.0861935 0.145601 0
155 1 0.0797493 0.168906 0
129 1 0.134853 0.132107 0
127 1 0.110606 0.137944 0
128 1 0.127576 0.155613 0
157 1 0.103842 0.162668 0
159 1 0.152316 0.149382 0
132 1 0.17595 0.142945 0
161 1 0.168622 0.166961 0
160 1 0.145153 0.173161 0
104 1 0.221903 0.130906 0
133 1 0.198765 0.137265 0
163 1 0.192645 0.161332 0
134 1 0.21694 0.155229 0
135 1 0.245476 0.131441 0
136 1 0.266748 0.142502 0
165 1 0.247566 0.158418 0
167 1 0.270994 0.167593 0
139 1 0.305894 0.130978 0
138 1 0.288735 0.150142 0
169 1 0.312109 0.155625 0
140 1 0.329652 0.137838 0
142 1 0.35311 0.144159 0
171 1 0.33621 0.162742 0
172 1 0.359251 0.169226 0
114 1 0.394895 0.133412 0
173 1 0.37727 0.150755 0
144 1 0.400397 0.159232 0
145 1 0.418115 0.14128 0
146 1 0.423827 0.166011 0
147 1 0.441892 0.147322 0
177 1 0.448209 0.171495 0
118 1 0.460566 0.130478 0
149 1 0.484523 0.137451 0
148 1 0.465418 0.155172 0
150 1 0.48926 0.162314 0
183 1 0.0307643 0.182418 0
182 1 0.0247516 0.207595 0
1080 1 0.00773306 0.189081 0
211 1 0.000971354 0.212499 0
154 1 0.0555017 0.175866 0
184 1 0.0487456 0.200989 0
185 1 0.0722205 0.193444 0
186 1 0.0893612 0.211191 0
215 1 0.0659509 0.217336 0
156 1 0.0962557 0.187516 0
158 1 0.121057 0.179807 0
187 1 0.115108 0.203835 0
189 1 0.138357 0.197559 0
191 1 0.161556 0.190284 0
221 1 0.179289 0.208058 0
190 1 0.156102 0.215216 0
162 1 0.185134 0.183981 0
193 1 0.208851 0.179061 0
192 1 0.203281 0.202191 0
164 1 0.232522 0.176674 0
195 1 0.233573 0.202351 0
166 1 0.253943 0.186499 0
196 1 0.260035 0.210181 0
168 1 0.293993 0.174023 0
197 1 0.277612 0.191598 0
199 1 0.300481 0.198942 0
170 1 0.317124 0.18041 0
198 1 0.283641 0.216343 0
201 1 0.341552 0.187973 0
200 1 0.323511 0.20575 0
202 1 0.347416 0.212147 0
203 1 0.365073 0.194573 0
174 1 0.381545 0.176764 0
204 1 0.388035 0.201403 0
175 1 0.405685 0.184069 0
205 1 0.410651 0.208968 0
176 1 0.428662 0.190615 0
207 1 0.435869 0.215282 0
178 1 0.452961 0.196124 0
179 1 0.471232 0.179296 0
180 1 0.496276 0.186753 0
209 1 0.477319 0.203513 0
213 1 0.0425114 0.225407 0
212 1 0.0181909 0.231774 0
243 1 0.0361504 0.24865 0
241 1 0.0114472 0.255441 0
216 1 0.0835933 0.235654 0
214 1 0.0603846 0.242467 0
245 1 0.0774391 0.260841 0
188 1 0.1325 0.221262 0
217 1 0.106778 0.228015 0
218 1 0.1239 0.245089 0
247 1 0.100708 0.253653 0
219 1 0.149596 0.239416 0
220 1 0.174017 0.231705 0
222 1 0.181258 0.254724 0
223 1 0.199138 0.237636 0
194 1 0.217244 0.221481 0
224 1 0.222433 0.245308 0
225 1 0.241198 0.227621 0
227 1 0.26439 0.234346 0
226 1 0.245525 0.251832 0
257 1 0.269528 0.258905 0
228 1 0.287982 0.241141 0
229 1 0.306022 0.224215 0
230 1 0.311502 0.248102 0
231 1 0.329523 0.2297 0
232 1 0.353447 0.236901 0
261 1 0.334069 0.25533 0
233 1 0.370958 0.219824 0
234 1 0.376612 0.244638 0
235 1 0.394356 0.227135 0
265 1 0.400455 0.251176 0
236 1 0.424903 0.257557 0
206 1 0.418387 0.233376 0
237 1 0.442428 0.238839 0
208 1 0.459408 0.220044 0
210 1 0.483632 0.228696 0
239 1 0.46513 0.246268 0
240 1 0.489879 0.253829 0
242 1 0.0284708 0.273681 0
271 1 0.0199738 0.299304 0
1170 1 0.00566306 0.27991 0
273 1 0.0451618 0.290501 0
244 1 0.0523186 0.266783 0
275 1 0.0685193 0.285212 0
276 1 0.0835036 0.304172 0
246 1 0.0935624 0.280892 0
248 1 0.117717 0.272053 0
279 1 0.123753 0.298068 0
251 1 0.16292 0.270374 0
249 1 0.140432 0.262185 0
250 1 0.143787 0.285943 0
281 1 0.167178 0.296296 0
253 1 0.204424 0.261908 0
252 1 0.185429 0.278958 0
254 1 0.209394 0.2862 0
283 1 0.190744 0.303751 0
255 1 0.227736 0.269233 0
256 1 0.251765 0.276584 0
285 1 0.23221 0.294583 0
287 1 0.25516 0.30288 0
259 1 0.293129 0.266944 0
258 1 0.274589 0.286958 0
289 1 0.298497 0.291319 0
260 1 0.316732 0.273891 0
263 1 0.358745 0.262445 0
262 1 0.341046 0.279899 0
291 1 0.322009 0.297619 0
293 1 0.364913 0.286885 0
264 1 0.38263 0.268826 0
295 1 0.388737 0.293218 0
266 1 0.406419 0.275721 0
238 1 0.448374 0.265021 0
267 1 0.430035 0.282269 0
297 1 0.412447 0.30033 0
268 1 0.453454 0.28943 0
1141 1 0.496464 0.277644 0
269 1 0.471719 0.270184 0
270 1 0.477935 0.295471 0
301 1 0.0211477 0.327829 0
272 1 0.0408529 0.313791 0
303 1 0.0449203 0.337795 0
1230 1 0.00139377 0.343408 0
274 1 0.0637506 0.320574 0
305 1 0.0864007 0.331166 0
304 1 0.0675628 0.34722 0
277 1 0.105801 0.316145 0
278 1 0.128478 0.324667 0
307 1 0.109147 0.340767 0
280 1 0.147776 0.31032 0
311 1 0.151588 0.334755 0
282 1 0.170915 0.320548 0
312 1 0.175816 0.344529 0
284 1 0.213668 0.311917 0
313 1 0.194709 0.328266 0
315 1 0.219352 0.336833 0
286 1 0.23679 0.319423 0
317 1 0.259676 0.328194 0
316 1 0.242263 0.346362 0
288 1 0.279378 0.311409 0
318 1 0.282595 0.337121 0
290 1 0.303791 0.315288 0
319 1 0.30779 0.339401 0
292 1 0.345831 0.304501 0
321 1 0.327872 0.324025 0
323 1 0.352198 0.32696 0
324 1 0.375487 0.337218 0
294 1 0.370422 0.311481 0
325 1 0.400049 0.342242 0
296 1 0.393726 0.317938 0
298 1 0.436058 0.307159 0
327 1 0.418062 0.325173 0
328 1 0.441867 0.330891 0
329 1 0.465693 0.33601 0
299 1 0.460298 0.312588 0
300 1 0.483947 0.319005 0
1201 1 0.488932 0.343358 0
302 1 0.0248326 0.352836 0
332 1 0.0279873 0.377042 0
331 1 0.00455778 0.367853 0
333 1 0.0473125 0.362537 0
335 1 0.0701943 0.371508 0
334 1 0.0502824 0.387417 0
306 1 0.0902715 0.357106 0
337 1 0.0933016 0.38153 0
308 1 0.113579 0.365179 0
309 1 0.131684 0.349601 0
339 1 0.136041 0.375419 0
338 1 0.11569 0.390703 0
310 1 0.155287 0.35888 0
341 1 0.158855 0.384465 0
343 1 0.178834 0.369279 0
314 1 0.199098 0.353368 0
344 1 0.203027 0.378153 0
345 1 0.221947 0.361528 0
375 1 0.224341 0.388296 0
347 1 0.265662 0.356115 0
346 1 0.24431 0.371241 0
377 1 0.267155 0.380766 0
349 1 0.294661 0.359878 0
348 1 0.290998 0.384236 0
350 1 0.315253 0.377008 0
320 1 0.328238 0.352453 0
322 1 0.353667 0.351792 0
351 1 0.340755 0.37503 0
353 1 0.365524 0.37386 0
355 1 0.383938 0.359988 0
354 1 0.387113 0.387143 0
356 1 0.406218 0.369726 0
326 1 0.423875 0.349778 0
357 1 0.431146 0.374765 0
359 1 0.448293 0.354622 0
358 1 0.45534 0.379587 0
330 1 0.47153 0.361019 0
1231 1 0.495513 0.367303 0
360 1 0.479012 0.385316 0
361 1 0.00748376 0.392104 0
363 1 0.0307253 0.40237 0
362 1 0.0110275 0.416547 0
364 1 0.0333823 0.427417 0
336 1 0.0733502 0.396797 0
365 1 0.0538785 0.412402 0
366 1 0.0767041 0.420798 0
367 1 0.0958367 0.406222 0
369 1 0.118789 0.416104 0
368 1 0.0996457 0.431048 0
340 1 0.138653 0.400926 0
370 1 0.142016 0.425165 0
371 1 0.161542 0.409447 0
342 1 0.181328 0.394114 0
372 1 0.183776 0.419591 0
373 1 0.204592 0.403665 0
403 1 0.207444 0.428528 0
374 1 0.226849 0.413484 0
376 1 0.24802 0.396676 0
405 1 0.248493 0.42208 0
407 1 0.270109 0.43255 0
378 1 0.270303 0.408021 0
379 1 0.307764 0.40161 0
409 1 0.29222 0.419719 0
352 1 0.354568 0.394486 0
381 1 0.330882 0.397855 0
382 1 0.347483 0.417522 0
380 1 0.321912 0.421839 0
383 1 0.37286 0.409174 0
385 1 0.397593 0.410494 0
384 1 0.383603 0.430958 0
387 1 0.41388 0.393164 0
386 1 0.421594 0.417438 0
388 1 0.438238 0.398954 0
419 1 0.444821 0.422591 0
389 1 0.461953 0.403647 0
1261 1 0.48551 0.411138 0
390 1 0.469421 0.430216 0
393 1 0.0140274 0.441777 0
423 1 0.017175 0.466666 0
394 1 0.0371118 0.451863 0
425 1 0.0391915 0.477193 0
395 1 0.0567389 0.43704 0
396 1 0.0607021 0.461161 0
397 1 0.08005 0.445355 0
427 1 0.0826961 0.470372 0
399 1 0.122546 0.441364 0
398 1 0.102634 0.456888 0
429 1 0.125096 0.466644 0
401 1 0.164522 0.435157 0
400 1 0.144208 0.451396 0
431 1 0.1675 0.460319 0
430 1 0.147489 0.476219 0
402 1 0.187356 0.444603 0
433 1 0.21026 0.453788 0
432 1 0.190558 0.470021 0
404 1 0.229844 0.438924 0
406 1 0.252199 0.448889 0
435 1 0.23272 0.464315 0
436 1 0.254215 0.475603 0
437 1 0.274224 0.46122 0
408 1 0.290677 0.443367 0
410 1 0.314197 0.446307 0
439 1 0.301729 0.468628 0
413 1 0.36102 0.437482 0
411 1 0.337471 0.440551 0
412 1 0.352294 0.460352 0
441 1 0.329367 0.465589 0
415 1 0.406984 0.437103 0
414 1 0.389081 0.455132 0
443 1 0.372709 0.473721 0
417 1 0.430319 0.442745 0
418 1 0.453527 0.448064 0
416 1 0.412912 0.460781 0
447 1 0.437236 0.466851 0
1291 1 0.49372 0.435047 0
420 1 0.476919 0.45403 0
449 1 0.460265 0.472119 0
450 1 0.48431 0.478012 0
454 1 0.0237557 0.516985 0
424 1 0.0197693 0.49115 0
455 1 0.0434766 0.500794 0
453 1 0.000150382 0.506723 0
426 1 0.062932 0.486054 0
456 1 0.0668676 0.511488 0
457 1 0.0851536 0.495569 0
487 1 0.0886851 0.521254 0
428 1 0.105662 0.481623 0
459 1 0.128636 0.491402 0
458 1 0.108032 0.50649 0
489 1 0.130417 0.518111 0
461 1 0.169975 0.485422 0
460 1 0.15038 0.501896 0
462 1 0.173255 0.512054 0
434 1 0.212597 0.479596 0
463 1 0.192461 0.495687 0
464 1 0.215527 0.506538 0
493 1 0.196361 0.521659 0
465 1 0.235199 0.490113 0
467 1 0.258212 0.500216 0
466 1 0.238058 0.515661 0
438 1 0.277944 0.485534 0
469 1 0.301545 0.492859 0
468 1 0.282658 0.509834 0
470 1 0.307548 0.517774 0
442 1 0.350765 0.485974 0
440 1 0.324932 0.489981 0
471 1 0.335079 0.512468 0
473 1 0.361037 0.514104 0
445 1 0.396523 0.479671 0
444 1 0.378223 0.497023 0
475 1 0.40265 0.503516 0
474 1 0.386263 0.520741 0
446 1 0.420776 0.485231 0
477 1 0.42714 0.509627 0
448 1 0.444316 0.491038 0
478 1 0.451343 0.515 0
479 1 0.46846 0.497089 0
1381 1 0.492844 0.502104 0
480 1 0.475978 0.520194 0
452 1 0.00322004 0.53126 0
483 1 0.0259356 0.541501 0
482 1 0.00538576 0.556453 0
485 1 0.0465977 0.526198 0
484 1 0.0480911 0.552513 0
486 1 0.0682992 0.537643 0
515 1 0.0703308 0.562556 0
517 1 0.0908998 0.547077 0
488 1 0.110304 0.531711 0
519 1 0.113579 0.557243 0
490 1 0.133665 0.543434 0
491 1 0.153168 0.527548 0
521 1 0.157247 0.552952 0
492 1 0.176269 0.536617 0
523 1 0.180442 0.56166 0
494 1 0.200076 0.546818 0
495 1 0.218574 0.531427 0
525 1 0.222935 0.557717 0
496 1 0.241816 0.542104 0
497 1 0.260993 0.525787 0
527 1 0.264852 0.551055 0
499 1 0.306284 0.543146 0
498 1 0.283754 0.534532 0
529 1 0.287972 0.560121 0
472 1 0.346446 0.53358 0
501 1 0.329835 0.551165 0
502 1 0.354267 0.557938 0
503 1 0.370629 0.539049 0
505 1 0.393849 0.545471 0
504 1 0.377415 0.563921 0
476 1 0.410275 0.527443 0
507 1 0.43515 0.53268 0
506 1 0.418763 0.550522 0
508 1 0.443608 0.557535 0
509 1 0.459812 0.539127 0
510 1 0.483864 0.544681 0
539 1 0.467963 0.56332 0
513 1 0.027356 0.566546 0
512 1 0.0298368 0.591894 0
511 1 0.0070272 0.58122 0
541 1 0.0082599 0.606985 0
514 1 0.0496979 0.577759 0
545 1 0.0732762 0.587293 0
543 1 0.0529299 0.60182 0
516 1 0.0937204 0.571717 0
518 1 0.116107 0.582072 0
547 1 0.096104 0.596254 0
548 1 0.1187 0.606703 0
520 1 0.136876 0.568808 0
549 1 0.139381 0.592502 0
522 1 0.161126 0.578051 0
551 1 0.16333 0.603772 0
524 1 0.202951 0.573552 0
553 1 0.183062 0.588175 0
554 1 0.205996 0.599038 0
555 1 0.226422 0.582662 0
526 1 0.246593 0.56765 0
557 1 0.250594 0.592745 0
528 1 0.269391 0.576631 0
556 1 0.229426 0.607949 0
500 1 0.311438 0.567988 0
558 1 0.274867 0.600218 0
559 1 0.293117 0.58397 0
560 1 0.299623 0.607836 0
530 1 0.317759 0.591669 0
531 1 0.335326 0.574743 0
532 1 0.34213 0.598675 0
533 1 0.359702 0.58144 0
534 1 0.383857 0.586988 0
535 1 0.40165 0.569268 0
563 1 0.366599 0.605653 0
536 1 0.408285 0.593329 0
537 1 0.426619 0.576189 0
567 1 0.432164 0.600111 0
538 1 0.450646 0.582429 0
540 1 0.491786 0.570076 0
569 1 0.474474 0.588286 0
1441 1 0.498657 0.59521 0
568 1 0.457796 0.607733 0
542 1 0.031942 0.616307 0
571 1 0.0108901 0.631617 0
573 1 0.0340975 0.640862 0
544 1 0.0549634 0.626127 0
546 1 0.075577 0.612242 0
575 1 0.0775015 0.636477 0
574 1 0.0571978 0.651644 0
577 1 0.0981535 0.621539 0
579 1 0.120768 0.63139 0
576 1 0.100393 0.64677 0
550 1 0.141317 0.617679 0
581 1 0.164239 0.628015 0
580 1 0.143728 0.642169 0
552 1 0.186364 0.614283 0
582 1 0.188255 0.639849 0
583 1 0.209681 0.625413 0
584 1 0.218372 0.648575 0
585 1 0.236556 0.632282 0
586 1 0.262099 0.640574 0
587 1 0.255543 0.616494 0
589 1 0.280459 0.624018 0
590 1 0.305469 0.632117 0
588 1 0.286219 0.64896 0
561 1 0.323883 0.616089 0
562 1 0.348444 0.623042 0
591 1 0.329586 0.640113 0
593 1 0.355317 0.646897 0
565 1 0.389712 0.611276 0
564 1 0.37225 0.629563 0
595 1 0.396713 0.63584 0
566 1 0.414931 0.617987 0
596 1 0.420789 0.642345 0
597 1 0.439498 0.625037 0
599 1 0.446595 0.650089 0
570 1 0.481361 0.613099 0
600 1 0.465199 0.632358 0
1471 1 0.489683 0.636925 0
572 1 0.0144406 0.655131 0
602 1 0.0162201 0.679563 0
603 1 0.037069 0.665398 0
633 1 0.0393598 0.690658 0
605 1 0.0796194 0.660975 0
604 1 0.0605285 0.676827 0
606 1 0.0827788 0.685721 0
578 1 0.123683 0.656693 0
607 1 0.103306 0.670779 0
608 1 0.126233 0.681428 0
611 1 0.166586 0.652563 0
609 1 0.145585 0.666589 0
610 1 0.167959 0.676477 0
639 1 0.148541 0.691596 0
612 1 0.189604 0.686228 0
613 1 0.19947 0.664766 0
643 1 0.21263 0.694399 0
614 1 0.225664 0.672629 0
615 1 0.243422 0.656892 0
616 1 0.250619 0.682565 0
617 1 0.268136 0.664822 0
647 1 0.275826 0.689031 0
619 1 0.311184 0.656019 0
618 1 0.293115 0.671944 0
620 1 0.317978 0.680448 0
621 1 0.336402 0.664329 0
592 1 0.361186 0.671266 0
622 1 0.340906 0.687992 0
594 1 0.379135 0.653201 0
625 1 0.404026 0.659851 0
623 1 0.384666 0.67691 0
626 1 0.409412 0.684619 0
598 1 0.451531 0.673809 0
627 1 0.427499 0.66644 0
657 1 0.433332 0.690848 0
628 1 0.474938 0.681506 0
629 1 0.471305 0.656483 0
1501 1 0.495438 0.66317 0
630 1 0.498428 0.687571 0
632 1 0.0178718 0.703748 0
663 1 0.0196842 0.727209 0
634 1 0.0408034 0.71544 0
635 1 0.0619856 0.702951 0
636 1 0.0841894 0.71377 0
665 1 0.0622031 0.72948 0
637 1 0.10429 0.696486 0
638 1 0.1282 0.706952 0
667 1 0.108027 0.72245 0
669 1 0.131595 0.732297 0
641 1 0.170812 0.701385 0
640 1 0.151106 0.715441 0
671 1 0.17519 0.725283 0
642 1 0.194514 0.709665 0
673 1 0.199681 0.734381 0
644 1 0.218075 0.718405 0
645 1 0.235645 0.700912 0
675 1 0.241451 0.724936 0
646 1 0.259672 0.7068 0
677 1 0.264964 0.732081 0
649 1 0.299146 0.696993 0
648 1 0.282787 0.714888 0
679 1 0.306677 0.721519 0
650 1 0.323501 0.704588 0
651 1 0.346771 0.714421 0
681 1 0.328413 0.73177 0
652 1 0.35216 0.739065 0
653 1 0.363798 0.696688 0
624 1 0.388289 0.703094 0
654 1 0.370998 0.721631 0
685 1 0.396187 0.726361 0
655 1 0.414454 0.709005 0
656 1 0.438467 0.716293 0
686 1 0.419696 0.733072 0
687 1 0.462554 0.724356 0
658 1 0.457633 0.699776 0
659 1 0.480981 0.705765 0
689 1 0.485914 0.731238 0
662 1 0.0210004 0.750687 0
691 1 0.00194225 0.766736 0
693 1 0.0298001 0.773087 0
664 1 0.0456888 0.753621 0
695 1 0.0702718 0.7585 0
694 1 0.0532859 0.778714 0
666 1 0.087722 0.739248 0
697 1 0.0952401 0.765095 0
668 1 0.112005 0.747444 0
698 1 0.11869 0.774198 0
699 1 0.137194 0.757678 0
670 1 0.155881 0.74095 0
701 1 0.159687 0.765695 0
672 1 0.179197 0.749231 0
702 1 0.183645 0.773049 0
674 1 0.22277 0.742953 0
703 1 0.203582 0.758066 0
705 1 0.226663 0.767555 0
676 1 0.246528 0.749584 0
707 1 0.270477 0.755071 0
706 1 0.267879 0.778905 0
678 1 0.290823 0.74155 0
680 1 0.313999 0.753779 0
709 1 0.292227 0.767044 0
710 1 0.311809 0.78161 0
682 1 0.359547 0.762829 0
711 1 0.335316 0.772314 0
683 1 0.378513 0.745601 0
713 1 0.387099 0.76936 0
684 1 0.403118 0.750703 0
716 1 0.410987 0.775381 0
715 1 0.426888 0.757336 0
717 1 0.444396 0.740615 0
718 1 0.450751 0.765401 0
690 1 0.491802 0.75608 0
688 1 0.468106 0.749058 0
719 1 0.473739 0.772525 0
1591 1 0.497305 0.779821 0
692 1 0.0111913 0.789959 0
722 1 0.0179652 0.813827 0
723 1 0.0353083 0.796506 0
724 1 0.0433612 0.819337 0
696 1 0.0781175 0.783193 0
725 1 0.0598012 0.801379 0
726 1 0.084172 0.808646 0
727 1 0.101557 0.791554 0
728 1 0.12565 0.799569 0
757 1 0.107264 0.816792 0
759 1 0.130991 0.82401 0
700 1 0.142626 0.782803 0
729 1 0.148578 0.807492 0
730 1 0.17341 0.816775 0
731 1 0.166387 0.79059 0
704 1 0.205917 0.783276 0
732 1 0.199441 0.807847 0
733 1 0.223072 0.800092 0
734 1 0.218965 0.823858 0
735 1 0.244221 0.786365 0
736 1 0.242669 0.813806 0
737 1 0.265244 0.803516 0
708 1 0.289555 0.793392 0
738 1 0.284149 0.818464 0
739 1 0.307529 0.808468 0
712 1 0.355475 0.788542 0
741 1 0.33145 0.798276 0
742 1 0.350549 0.813775 0
740 1 0.327527 0.823502 0
714 1 0.393972 0.794117 0
743 1 0.373227 0.806067 0
745 1 0.393238 0.81978 0
746 1 0.414499 0.806617 0
747 1 0.43229 0.785973 0
748 1 0.439279 0.809937 0
749 1 0.455979 0.790678 0
720 1 0.480131 0.796711 0
750 1 0.464312 0.816294 0
1621 1 0.488126 0.822592 0
752 1 0.00974251 0.853979 0
753 1 0.0252761 0.836523 0
783 1 0.0286872 0.869308 0
755 1 0.0671816 0.826877 0
754 1 0.0493721 0.843512 0
785 1 0.0739463 0.851373 0
784 1 0.054253 0.866633 0
756 1 0.0919495 0.835068 0
758 1 0.115944 0.84255 0
787 1 0.0974095 0.859449 0
788 1 0.12279 0.867241 0
789 1 0.147545 0.854454 0
760 1 0.153657 0.830714 0
761 1 0.173271 0.843547 0
791 1 0.168351 0.868529 0
763 1 0.19596 0.833572 0
762 1 0.191765 0.858616 0
764 1 0.215241 0.848725 0
767 1 0.261644 0.828534 0
765 1 0.238828 0.840496 0
795 1 0.236674 0.86534 0
766 1 0.258918 0.854589 0
769 1 0.304218 0.834822 0
768 1 0.28114 0.844417 0
799 1 0.30089 0.860198 0
770 1 0.323616 0.850152 0
771 1 0.347047 0.840016 0
772 1 0.341977 0.865824 0
744 1 0.369373 0.830955 0
773 1 0.364807 0.855559 0
775 1 0.388321 0.84614 0
776 1 0.407496 0.861084 0
777 1 0.413385 0.835969 0
807 1 0.430222 0.853935 0
778 1 0.445424 0.834511 0
809 1 0.454815 0.858087 0
779 1 0.471574 0.84031 0
780 1 0.478798 0.864806 0
1651 1 0.495212 0.847086 0
782 1 0.0041696 0.878349 0
813 1 0.0450227 0.889682 0
812 1 0.0216492 0.89424 0
786 1 0.0763915 0.876934 0
815 1 0.0626851 0.907438 0
816 1 0.086452 0.899784 0
817 1 0.103324 0.883256 0
819 1 0.124484 0.893515 0
790 1 0.145989 0.878657 0
821 1 0.168494 0.893294 0
820 1 0.14668 0.902927 0
792 1 0.19045 0.882777 0
793 1 0.213585 0.87385 0
823 1 0.210359 0.898992 0
822 1 0.187882 0.908935 0
794 1 0.233006 0.890213 0
796 1 0.256161 0.880198 0
827 1 0.252536 0.905276 0
797 1 0.278733 0.870957 0
798 1 0.275228 0.897384 0
800 1 0.297668 0.886724 0
829 1 0.294972 0.91281 0
831 1 0.317697 0.902763 0
801 1 0.319364 0.876663 0
802 1 0.339597 0.891197 0
833 1 0.360426 0.906763 0
803 1 0.362475 0.881859 0
774 1 0.384395 0.870715 0
804 1 0.383011 0.896589 0
805 1 0.40479 0.884937 0
835 1 0.403831 0.909811 0
806 1 0.424856 0.897059 0
808 1 0.439262 0.876958 0
839 1 0.448155 0.902429 0
1681 1 0.486977 0.889609 0
810 1 0.463139 0.88316 0
840 1 0.471674 0.909014 0
814 1 0.0387837 0.913491 0
842 1 0.00879333 0.944383 0
843 1 0.0147003 0.919301 0
844 1 0.0325732 0.937604 0
845 1 0.0556553 0.930784 0
846 1 0.0737549 0.94759 0
847 1 0.0809328 0.92366 0
875 1 0.0503106 0.954798 0
818 1 0.106018 0.914637 0
848 1 0.0976378 0.940886 0
849 1 0.120517 0.935302 0
850 1 0.143181 0.927286 0
851 1 0.165546 0.917929 0
852 1 0.161414 0.942717 0
881 1 0.138967 0.95121 0
824 1 0.207555 0.925767 0
853 1 0.184765 0.934033 0
854 1 0.203886 0.950679 0
855 1 0.226856 0.942506 0
825 1 0.229117 0.915394 0
826 1 0.249056 0.931498 0
857 1 0.268848 0.948669 0
828 1 0.272005 0.921843 0
859 1 0.291692 0.938693 0
860 1 0.311642 0.954096 0
830 1 0.314181 0.927629 0
832 1 0.337087 0.917426 0
861 1 0.333484 0.943241 0
863 1 0.356242 0.932587 0
834 1 0.379876 0.922549 0
864 1 0.379137 0.948395 0
865 1 0.407159 0.935403 0
837 1 0.428029 0.920992 0
836 1 0.436298 0.94361 0
838 1 0.453749 0.926692 0
870 1 0.459788 0.950628 0
869 1 0.478108 0.933181 0
1711 1 0.495248 0.915404 0
872 1 0.0202723 0.984707 0
873 1 0.0264076 0.961131 0
871 1 0.00243799 0.968254 0
874 1 0.0436412 0.97889 0
5 1 0.0615956 0.99601 0
876 1 0.0677 0.972236 0
7 1 0.0857464 0.98913 0
877 1 0.0915767 0.964777 0
879 1 0.115727 0.958974 0
9 1 0.127142 0.99976 0
878 1 0.109119 0.982071 0
880 1 0.133452 0.975925 0
11 1 0.151847 0.991855 0
882 1 0.157042 0.967761 0
13 1 0.175656 0.984547 0
883 1 0.181146 0.960101 0
15 1 0.218392 0.993282 0
884 1 0.198868 0.977072 0
885 1 0.221556 0.967815 0
856 1 0.245506 0.958696 0
17 1 0.260895 0.999476 0
887 1 0.240851 0.982907 0
888 1 0.266209 0.973985 0
858 1 0.288134 0.963919 0
19 1 0.285578 0.99082 0
889 1 0.30849 0.980713 0
862 1 0.353156 0.95854 0
891 1 0.331841 0.970394 0
890 1 0.328743 0.995918 0
892 1 0.352775 0.986282 0
23 1 0.381692 0.995389 0
893 1 0.3747 0.972014 0
895 1 0.399192 0.976748 0
897 1 0.44699 0.99203 0
866 1 0.417046 0.958868 0
896 1 0.42313 0.983206 0
867 1 0.44079 0.96741 0
1741 1 0.485391 0.957016 0
868 1 0.464822 0.974041 0
1771 1 0.490131 0.980478 0
899 1 0.471613 0.997429 0
931 1 0.526976 0.0364651 0
901 1 0.521411 0.0114101 0
30 1 0.503739 0.0294218 0
902 1 0.544886 0.0185922 0
904 1 0.568919 0.0261304 0
906 1 0.58732 0.00862075 0
905 1 0.563079 0.00106251 0
935 1 0.592951 0.0341202 0
908 1 0.610597 0.0174795 0
939 1 0.635516 0.0270093 0
909 1 0.628938 0.00178412 0
937 1 0.616088 0.0422744 0
910 1 0.655167 0.011379 0
941 1 0.659495 0.0356133 0
912 1 0.678016 0.0202139 0
943 1 0.702348 0.0275816 0
913 1 0.696506 0.00448327 0
945 1 0.726726 0.036466 0
914 1 0.734947 0.0125219 0
916 1 0.758223 0.006201 0
947 1 0.753068 0.0301939 0
918 1 0.778701 0.0233162 0
919 1 0.802637 0.0153799 0
949 1 0.798235 0.0402933 0
951 1 0.821124 0.0325233 0
920 1 0.825192 0.00738091 0
922 1 0.845073 0.025942 0
923 1 0.870912 0.0180366 0
924 1 0.895651 0.0131934 0
954 1 0.88792 0.0373461 0
955 1 0.912512 0.0319119 0
925 1 0.919796 0.00811091 0
926 1 0.937888 0.0281999 0
928 1 0.94767 0.00529294 0
930 1 0.988454 0.0152207 0
959 1 0.963965 0.0225882 0
960 1 0.981582 0.0393535 0
932 1 0.533091 0.0612337 0
961 1 0.514771 0.077889 0
60 1 0.508857 0.0534631 0
962 1 0.538175 0.0854909 0
933 1 0.55063 0.0434939 0
963 1 0.556389 0.0683915 0
934 1 0.574255 0.0509257 0
965 1 0.580072 0.0759672 0
936 1 0.597945 0.0586873 0
967 1 0.621523 0.066956 0
966 1 0.603566 0.0835833 0
938 1 0.640263 0.0508264 0
969 1 0.645002 0.0754077 0
940 1 0.664262 0.0594492 0
970 1 0.668553 0.0837635 0
942 1 0.68331 0.0437078 0
971 1 0.687331 0.0682426 0
944 1 0.706413 0.0516545 0
973 1 0.710086 0.0750417 0
975 1 0.728498 0.060949 0
974 1 0.744926 0.0791651 0
946 1 0.751099 0.0541367 0
977 1 0.768082 0.0718411 0
948 1 0.774219 0.0471982 0
979 1 0.791937 0.0648295 0
950 1 0.815725 0.0582062 0
978 1 0.81168 0.0823581 0
980 1 0.835442 0.0763279 0
981 1 0.858742 0.0691298 0
952 1 0.840158 0.0514158 0
953 1 0.863764 0.0441184 0
983 1 0.883754 0.0617651 0
985 1 0.907659 0.0563522 0
984 1 0.901726 0.0803415 0
982 1 0.877655 0.0868585 0
956 1 0.932185 0.0516292 0
986 1 0.925898 0.0759922 0
987 1 0.949707 0.0687562 0
957 1 0.95518 0.0446886 0
958 1 0.973609 0.0630532 0
989 1 0.992738 0.0805217 0
61 1 0.99909 0.0562631 0
991 1 0.520087 0.103156 0
120 1 0.502595 0.120012 0
993 1 0.543962 0.110333 0
992 1 0.526026 0.127929 0
964 1 0.562433 0.0936507 0
994 1 0.567884 0.118153 0
995 1 0.586032 0.101207 0
996 1 0.591029 0.126003 0
968 1 0.62675 0.0920713 0
997 1 0.608577 0.109025 0
998 1 0.633029 0.116247 0
999 1 0.650065 0.0992896 0
1000 1 0.6567 0.124839 0
1001 1 0.674271 0.108262 0
972 1 0.69295 0.091807 0
1002 1 0.698739 0.115347 0
1003 1 0.716884 0.0981014 0
1004 1 0.724009 0.12169 0
976 1 0.763075 0.0962717 0
1005 1 0.740649 0.10437 0
1035 1 0.74913 0.128829 0
1007 1 0.787032 0.0894315 0
1006 1 0.780081 0.114358 0
1008 1 0.803996 0.10757 0
1039 1 0.821778 0.124705 0
1009 1 0.828655 0.0995576 0
1010 1 0.846452 0.11882 0
1011 1 0.853793 0.0934229 0
1012 1 0.870597 0.112066 0
1013 1 0.895445 0.10486 0
1014 1 0.888669 0.129699 0
1016 1 0.913276 0.123277 0
1017 1 0.943939 0.0931119 0
1015 1 0.919233 0.0994984 0
1047 1 0.937096 0.116486 0
988 1 0.968625 0.0871758 0
1018 1 0.961791 0.11109 0
1019 1 0.985672 0.104661 0
1020 1 0.978978 0.128697 0
1022 1 0.530922 0.152452 0
1051 1 0.513683 0.169403 0
1021 1 0.50781 0.144925 0
1023 1 0.550074 0.135507 0
1024 1 0.554694 0.159815 0
1025 1 0.574614 0.143529 0
1055 1 0.578959 0.167777 0
1027 1 0.614134 0.132803 0
1026 1 0.597211 0.151424 0
1028 1 0.621076 0.158756 0
1029 1 0.638385 0.141039 0
1059 1 0.645337 0.165369 0
1030 1 0.66299 0.148549 0
1031 1 0.680776 0.131815 0
1061 1 0.668885 0.17296 0
1032 1 0.687316 0.155535 0
1033 1 0.705086 0.139013 0
1063 1 0.710958 0.162857 0
1034 1 0.729755 0.145311 0
1036 1 0.752982 0.152687 0
1065 1 0.73518 0.170514 0
1037 1 0.797715 0.132855 0
1067 1 0.774018 0.139512 0
1038 1 0.789606 0.159221 0
1040 1 0.815985 0.148729 0
1069 1 0.810008 0.172732 0
1071 1 0.834474 0.166512 0
1041 1 0.840988 0.14262 0
1042 1 0.857722 0.161606 0
1043 1 0.864464 0.136026 0
1044 1 0.882765 0.154051 0
1075 1 0.900123 0.17159 0
1045 1 0.906239 0.147513 0
1049 1 0.953662 0.134729 0
1046 1 0.93001 0.141218 0
1048 1 0.948615 0.159358 0
1077 1 0.924654 0.165241 0
121 1 0.997367 0.145804 0
1050 1 0.973125 0.152987 0
151 1 0.990632 0.17081 0
1053 1 0.537552 0.176606 0
1052 1 0.519667 0.194024 0
1083 1 0.543073 0.201613 0
1081 1 0.501097 0.210617 0
1054 1 0.561507 0.184295 0
1056 1 0.585033 0.192562 0
1085 1 0.566866 0.209979 0
1086 1 0.59138 0.215818 0
1057 1 0.603156 0.17546 0
1058 1 0.626726 0.182806 0
1087 1 0.608872 0.20029 0
1089 1 0.63251 0.207055 0
1060 1 0.651 0.189822 0
1091 1 0.674668 0.196974 0
1090 1 0.656401 0.214671 0
1062 1 0.693053 0.179671 0
1093 1 0.698504 0.203526 0
1064 1 0.716375 0.186515 0
1094 1 0.721563 0.210863 0
1066 1 0.759815 0.176773 0
1095 1 0.739844 0.194361 0
1097 1 0.763568 0.200705 0
1068 1 0.78412 0.184316 0
1098 1 0.786362 0.209212 0
1099 1 0.806481 0.196447 0
1070 1 0.829894 0.191134 0
1072 1 0.85369 0.185538 0
1101 1 0.8458 0.210363 0
1100 1 0.821439 0.215578 0
1073 1 0.876464 0.178849 0
1103 1 0.870262 0.20383 0
1074 1 0.894436 0.195963 0
1105 1 0.910895 0.213989 0
1078 1 0.94234 0.183576 0
1076 1 0.918588 0.189293 0
1107 1 0.934711 0.208438 0
1079 1 0.965783 0.177018 0
1109 1 0.959172 0.201838 0
181 1 0.983677 0.194677 0
1082 1 0.5248 0.218165 0
1111 1 0.507231 0.236291 0
1113 1 0.530945 0.243028 0
1112 1 0.512738 0.260459 0
1084 1 0.548836 0.225671 0
1114 1 0.555232 0.250114 0
1115 1 0.573271 0.233155 0
1116 1 0.578898 0.257361 0
1088 1 0.614594 0.225237 0
1117 1 0.596773 0.241269 0
1118 1 0.620668 0.24957 0
1119 1 0.638356 0.231014 0
1121 1 0.662485 0.238984 0
1120 1 0.643788 0.256041 0
1092 1 0.680157 0.221567 0
1122 1 0.686188 0.24626 0
1123 1 0.703375 0.227986 0
1124 1 0.710065 0.253357 0
1125 1 0.726409 0.235394 0
1096 1 0.744642 0.218585 0
1126 1 0.750617 0.243105 0
1127 1 0.768407 0.225019 0
1155 1 0.733322 0.260857 0
1129 1 0.793088 0.233024 0
1128 1 0.775997 0.249185 0
1159 1 0.799895 0.256817 0
1130 1 0.816836 0.24012 0
1131 1 0.840369 0.234177 0
1132 1 0.856564 0.253883 0
1161 1 0.831732 0.260533 0
1102 1 0.864509 0.228039 0
1104 1 0.887564 0.221161 0
1133 1 0.880983 0.246283 0
1135 1 0.903848 0.239507 0
1108 1 0.952356 0.225592 0
1136 1 0.922362 0.256892 0
1106 1 0.927759 0.23202 0
1137 1 0.94703 0.249164 0
1110 1 0.977188 0.218869 0
1139 1 0.970313 0.24308 0
1140 1 0.993925 0.237115 0
1142 1 0.519292 0.285105 0