ITEM: TIMESTEP
74000
ITEM: NUMBER OF ATOMS
1800
ITEM: BOX BOUNDS pp pp pp
1.1625226619929521e+00 1.6383747733800340e+02
1.1625226619929521e+00 1.6383747733800340e+02
0.0000000000000000e+00 5.5000000000000000e+00
ITEM: ATOMS id type xs ys zs
2 1 0.0118323 0.00603049 0
33 1 0.0296339 0.0228163 0
31 1 0.00507877 0.0303774 0
3 1 0.0354813 -0.000896951 0
4 1 0.0533333 0.0165047 0
6 1 0.0764548 0.00969681 0
35 1 0.070046 0.0332868 0
34 1 0.0475741 0.0408287 0
8 1 0.100524 0.00216018 0
37 1 0.0940945 0.0261779 0
39 1 0.118888 0.0183962 0
38 1 0.113989 0.0420514 0
40 1 0.138224 0.0346773 0
10 1 0.142353 0.0109864 0
41 1 0.167085 0.0036571 0
42 1 0.162189 0.0266821 0
43 1 0.185736 0.0209344 0
14 1 0.208925 0.0121641 0
44 1 0.204198 0.037362 0
45 1 0.228536 0.0295442 0
16 1 0.253167 0.0227552 0
886 1 0.233714 0.00584751 0
46 1 0.271774 0.0398208 0
18 1 0.278201 0.0156442 0
49 1 0.297128 0.0327618 0
20 1 0.301052 0.00685523 0
51 1 0.320266 0.0238501 0
22 1 0.344603 0.0307963 0
21 1 0.362606 0.0144009 0
24 1 0.388096 0.0226708 0
53 1 0.368343 0.0384969 0
894 1 0.406429 0.00406517 0
25 1 0.412591 0.0280239 0
26 1 0.436908 0.0366899 0
27 1 0.430555 0.0112507 0
898 1 0.454528 0.0182445 0
29 1 0.478281 0.0254551 0
900 1 0.49578 0.00838476 0
28 1 0.460033 0.0429005 0
899 1 0.4719 0.00113905 0
32 1 0.0239072 0.0472509 0
62 1 0.0177973 0.071718 0
63 1 0.0410885 0.0648935 0
65 1 0.065107 0.0578838 0
66 1 0.0834846 0.0743589 0
64 1 0.0595186 0.0820749 0
36 1 0.0894413 0.0501624 0
67 1 0.107725 0.0663943 0
69 1 0.13224 0.0596923 0
68 1 0.126537 0.0846338 0
71 1 0.15551 0.0516541 0
72 1 0.173258 0.0688418 0
70 1 0.15003 0.0768712 0
73 1 0.180285 0.0448586 0
74 1 0.22096 0.0545365 0
103 1 0.197184 0.0619148 0
105 1 0.215439 0.078559 0
101 1 0.1915 0.0856409 0
75 1 0.246368 0.0465694 0
77 1 0.263496 0.0641418 0
76 1 0.239104 0.0705297 0
47 1 0.288173 0.0583564 0
48 1 0.31159 0.0666345 0
78 1 0.291315 0.083742 0
50 1 0.329577 0.0496917 0
81 1 0.334018 0.0739931 0
52 1 0.352146 0.0566282 0
82 1 0.358673 0.0809969 0
55 1 0.394118 0.047696 0
83 1 0.375763 0.0632827 0
54 1 0.399614 0.0716226 0
57 1 0.442418 0.0615697 0
85 1 0.423639 0.0777552 0
56 1 0.417922 0.0540099 0
87 1 0.447521 0.0853362 0
59 1 0.48497 0.0503405 0
58 1 0.466666 0.0684624 0
89 1 0.490591 0.0752242 0
990 1 0.0109069 0.0955008 0
92 1 0.0291321 0.112704 0
93 1 0.0359068 0.0893941 0
91 1 0.00561535 0.119486 0
94 1 0.054365 0.105621 0
95 1 0.0784746 0.0986734 0
125 1 0.0719613 0.122517 0
123 1 0.0477462 0.129037 0
96 1 0.0961459 0.114868 0
97 1 0.102358 0.0901317 0
98 1 0.120376 0.10796 0
99 1 0.144471 0.100535 0
100 1 0.16853 0.094177 0
130 1 0.161266 0.117651 0
129 1 0.138337 0.125309 0
131 1 0.186065 0.110918 0
102 1 0.210184 0.10286 0
133 1 0.204147 0.127259 0
104 1 0.227648 0.120534 0
106 1 0.234009 0.0956605 0
137 1 0.257165 0.0879652 0
135 1 0.252797 0.112796 0
107 1 0.275173 0.103075 0
108 1 0.282074 0.127019 0
109 1 0.299177 0.108569 0
79 1 0.314826 0.09065 0
80 1 0.34104 0.0985295 0
110 1 0.323701 0.115898 0
141 1 0.347621 0.122755 0
113 1 0.382546 0.0888349 0
111 1 0.363763 0.104969 0
84 1 0.406294 0.0967834 0
112 1 0.388213 0.113777 0
115 1 0.412788 0.121086 0
86 1 0.429797 0.10211 0
116 1 0.436167 0.127133 0
117 1 0.454462 0.110372 0
88 1 0.471743 0.092239 0
90 1 0.495482 0.0991751 0
119 1 0.478184 0.11732 0
122 1 0.0237542 0.136712 0
153 1 0.0425578 0.15364 0
152 1 0.0188547 0.161258 0
124 1 0.0672448 0.147079 0
126 1 0.0900226 0.140178 0
155 1 0.0854773 0.164359 0
154 1 0.0613256 0.171894 0
127 1 0.114233 0.131613 0
128 1 0.132526 0.148388 0
157 1 0.1085 0.156356 0
159 1 0.156712 0.141897 0
132 1 0.180211 0.134865 0
161 1 0.17481 0.159995 0
160 1 0.150174 0.165651 0
163 1 0.198649 0.152272 0
134 1 0.222226 0.145516 0
193 1 0.21838 0.169976 0
136 1 0.266036 0.145563 0
165 1 0.244413 0.136639 0
167 1 0.270535 0.169922 0
164 1 0.244398 0.160988 0
139 1 0.305798 0.132602 0
138 1 0.289072 0.151298 0
169 1 0.312985 0.158367 0
140 1 0.330198 0.140657 0
142 1 0.352121 0.148342 0
171 1 0.334979 0.165979 0
172 1 0.359365 0.173692 0
143 1 0.370235 0.131671 0
114 1 0.394278 0.138141 0
173 1 0.376696 0.155355 0
144 1 0.400032 0.163333 0
145 1 0.417471 0.145608 0
146 1 0.424094 0.169617 0
147 1 0.441764 0.151363 0
118 1 0.460201 0.134162 0
149 1 0.484334 0.141157 0
148 1 0.465792 0.158293 0
150 1 0.490231 0.165265 0
183 1 0.0367272 0.178339 0
182 1 0.0307297 0.202374 0
1080 1 0.0127807 0.185113 0
211 1 0.00696052 0.2094 0
184 1 0.0557323 0.196166 0
185 1 0.0793427 0.18836 0
215 1 0.0742876 0.212978 0
186 1 0.0977555 0.205333 0
156 1 0.103172 0.181299 0
158 1 0.126832 0.173023 0
187 1 0.121696 0.196826 0
189 1 0.145547 0.189783 0
191 1 0.169866 0.184007 0
190 1 0.163019 0.207772 0
188 1 0.139934 0.21561 0
221 1 0.186731 0.202124 0
162 1 0.193595 0.176993 0
192 1 0.211407 0.193653 0
195 1 0.234116 0.203168 0
166 1 0.251351 0.185289 0
196 1 0.25749 0.210611 0
168 1 0.293845 0.175829 0
197 1 0.275565 0.194078 0
199 1 0.298876 0.20092 0
170 1 0.316359 0.183662 0
201 1 0.341239 0.190591 0
200 1 0.322434 0.20845 0
202 1 0.346153 0.215767 0
203 1 0.364641 0.199069 0
174 1 0.382814 0.181976 0
204 1 0.388213 0.205484 0
175 1 0.406279 0.188881 0
177 1 0.447333 0.176839 0
205 1 0.411915 0.212504 0
176 1 0.430906 0.19492 0
178 1 0.454708 0.201506 0
179 1 0.471806 0.183254 0
180 1 0.496346 0.189559 0
209 1 0.478587 0.208032 0
212 1 0.0252203 0.226476 0
243 1 0.0441132 0.244543 0
241 1 0.0205806 0.250998 0
1140 1 0.00106008 0.234055 0
213 1 0.0494369 0.219707 0
214 1 0.067757 0.237202 0
245 1 0.0864913 0.254916 0
216 1 0.0922406 0.230249 0
217 1 0.11601 0.221304 0
218 1 0.132839 0.239191 0
247 1 0.110945 0.250048 0
219 1 0.156842 0.235662 0
220 1 0.179064 0.22634 0
222 1 0.179606 0.25218 0
223 1 0.199885 0.238734 0
194 1 0.214576 0.219049 0
224 1 0.22272 0.246386 0
225 1 0.23915 0.227844 0
227 1 0.262305 0.235739 0
226 1 0.24644 0.25416 0
257 1 0.269606 0.262311 0
198 1 0.281071 0.21972 0
228 1 0.286293 0.24377 0
229 1 0.304678 0.226265 0
230 1 0.311097 0.250924 0
231 1 0.329022 0.234094 0
232 1 0.353074 0.240753 0
261 1 0.335227 0.258763 0
233 1 0.3702 0.222585 0
234 1 0.376989 0.247494 0
235 1 0.394664 0.229497 0
265 1 0.400299 0.255025 0
207 1 0.435331 0.220106 0
206 1 0.418168 0.237048 0
237 1 0.441158 0.243828 0
236 1 0.423426 0.261448 0
208 1 0.459891 0.226239 0
210 1 0.48323 0.232454 0
239 1 0.465611 0.250575 0
240 1 0.489885 0.257342 0
242 1 0.0383758 0.268115 0
271 1 0.0311272 0.291476 0
1170 1 0.0139942 0.274835 0
1200 1 0.00802306 0.298292 0
273 1 0.0576893 0.288949 0
244 1 0.0621091 0.262415 0
275 1 0.0796937 0.279455 0
276 1 0.0838289 0.304609 0
246 1 0.103228 0.290525 0
248 1 0.123194 0.274834 0
279 1 0.127011 0.300864 0
249 1 0.143778 0.260531 0
251 1 0.165487 0.271342 0
250 1 0.146104 0.285817 0
281 1 0.169044 0.295342 0
253 1 0.204737 0.262865 0
252 1 0.187873 0.280144 0
254 1 0.210733 0.287503 0
255 1 0.228409 0.271123 0
256 1 0.251539 0.279362 0
285 1 0.233752 0.295155 0
287 1 0.256487 0.304026 0
259 1 0.293006 0.268391 0
258 1 0.274956 0.286804 0
289 1 0.299409 0.293134 0
260 1 0.316623 0.276177 0
263 1 0.358462 0.264594 0
262 1 0.340146 0.283835 0
291 1 0.322369 0.301158 0
293 1 0.364039 0.289764 0
264 1 0.381538 0.272067 0
295 1 0.388007 0.295868 0
266 1 0.405952 0.279484 0
238 1 0.447248 0.267759 0
267 1 0.430704 0.285041 0
297 1 0.411916 0.303417 0
268 1 0.454215 0.291685 0
1141 1 0.495576 0.281462 0
269 1 0.472544 0.27451 0
270 1 0.4786 0.299123 0
301 1 0.0215701 0.318403 0
1230 1 0.00408691 0.33613 0
272 1 0.0450666 0.311057 0
303 1 0.0446452 0.334694 0
274 1 0.0662725 0.321834 0
305 1 0.0880814 0.331826 0
304 1 0.0672839 0.346454 0
277 1 0.106453 0.315151 0
278 1 0.130449 0.325165 0
307 1 0.111703 0.33993 0
280 1 0.150081 0.310559 0
311 1 0.153686 0.335205 0
282 1 0.173703 0.320823 0
312 1 0.177056 0.344972 0
283 1 0.192056 0.305129 0
284 1 0.215318 0.311923 0
313 1 0.197735 0.32928 0
315 1 0.220612 0.337778 0
286 1 0.238775 0.321044 0
317 1 0.262751 0.329317 0
316 1 0.243888 0.34575 0
288 1 0.280093 0.311655 0
318 1 0.286367 0.335661 0
290 1 0.303968 0.318117 0
319 1 0.310615 0.343489 0
292 1 0.346326 0.307741 0
321 1 0.329125 0.325157 0
323 1 0.352863 0.330881 0
324 1 0.376966 0.33821 0
294 1 0.370455 0.313836 0
325 1 0.400648 0.344841 0
296 1 0.394544 0.320045 0
298 1 0.436774 0.310893 0
327 1 0.418478 0.327633 0
328 1 0.442771 0.334705 0
329 1 0.466767 0.341791 0
299 1 0.460165 0.317389 0
300 1 0.483672 0.323357 0
1201 1 0.491013 0.347715 0
302 1 0.0251405 0.350072 0
332 1 0.0274529 0.375313 0
331 1 0.00489924 0.362496 0
361 1 0.00761901 0.389165 0
333 1 0.0471206 0.360123 0
335 1 0.0709765 0.370308 0
334 1 0.0505544 0.384856 0
306 1 0.0908978 0.356068 0
337 1 0.0936095 0.379782 0
308 1 0.115038 0.365167 0
309 1 0.135114 0.350647 0
338 1 0.11736 0.389424 0
339 1 0.136987 0.375111 0
310 1 0.158852 0.361274 0
341 1 0.161011 0.385539 0
343 1 0.181351 0.370454 0
314 1 0.200677 0.35468 0
344 1 0.204719 0.380813 0
345 1 0.224077 0.362976 0
375 1 0.229564 0.38798 0
347 1 0.267869 0.353312 0
346 1 0.248154 0.370379 0
377 1 0.273054 0.377418 0
349 1 0.292554 0.360138 0
348 1 0.298703 0.384822 0
350 1 0.316963 0.366833 0
320 1 0.335539 0.349244 0
322 1 0.359676 0.355983 0
351 1 0.341803 0.374082 0
353 1 0.366741 0.381098 0
355 1 0.383876 0.363857 0
354 1 0.390733 0.388288 0
356 1 0.407704 0.369023 0
326 1 0.425213 0.351719 0
357 1 0.430748 0.377186 0
359 1 0.448795 0.358688 0
358 1 0.455268 0.38401 0
330 1 0.472323 0.365948 0
1231 1 0.497058 0.3714 0
360 1 0.479319 0.391048 0
363 1 0.0310223 0.399439 0
362 1 0.010696 0.413335 0
364 1 0.0337017 0.424984 0
336 1 0.0736295 0.394812 0
365 1 0.053389 0.409879 0
366 1 0.0766295 0.41914 0
367 1 0.0974183 0.404468 0
369 1 0.120674 0.413962 0
368 1 0.100247 0.428876 0
340 1 0.140429 0.400071 0
370 1 0.143923 0.425361 0
371 1 0.163647 0.409963 0
401 1 0.167542 0.434233 0
342 1 0.183799 0.395631 0
372 1 0.189205 0.419756 0
373 1 0.209155 0.405022 0
403 1 0.212237 0.429954 0
374 1 0.234935 0.415821 0
376 1 0.253979 0.395939 0
405 1 0.262575 0.419187 0
378 1 0.280884 0.401355 0
379 1 0.306151 0.408114 0
409 1 0.2894 0.424673 0
410 1 0.312284 0.432062 0
381 1 0.324062 0.390836 0
352 1 0.348539 0.397844 0
382 1 0.354688 0.423144 0
380 1 0.330942 0.415167 0
383 1 0.37337 0.405728 0
385 1 0.396789 0.413928 0
384 1 0.378662 0.430926 0
387 1 0.413969 0.395878 0
386 1 0.420781 0.41955 0
388 1 0.438522 0.401451 0
419 1 0.444171 0.426355 0
389 1 0.461338 0.40956 0
1261 1 0.485286 0.414532 0
390 1 0.467269 0.43277 0
393 1 0.0130807 0.438723 0
423 1 0.0157957 0.464791 0
394 1 0.0365871 0.449612 0
425 1 0.0403711 0.474707 0
395 1 0.0574056 0.434566 0
396 1 0.0603371 0.459756 0
397 1 0.0802727 0.443536 0
427 1 0.0831373 0.468681 0
399 1 0.122738 0.438714 0
398 1 0.102314 0.453225 0
429 1 0.124499 0.464389 0
400 1 0.145408 0.449788 0
431 1 0.169149 0.459255 0
430 1 0.148697 0.473783 0
402 1 0.190517 0.445084 0
433 1 0.21252 0.456333 0
432 1 0.190882 0.470742 0
404 1 0.23326 0.442471 0
406 1 0.253456 0.455921 0
435 1 0.233253 0.468411 0
407 1 0.271988 0.440921 0
437 1 0.276716 0.46448 0
408 1 0.295646 0.449503 0
439 1 0.299181 0.474046 0
441 1 0.318303 0.45699 0
413 1 0.359604 0.448733 0
411 1 0.336688 0.440726 0
412 1 0.341609 0.46468 0
415 1 0.402561 0.437549 0
414 1 0.383426 0.45529 0
443 1 0.365584 0.473607 0
416 1 0.407475 0.461933 0
417 1 0.425861 0.444574 0
418 1 0.450143 0.451522 0
447 1 0.432262 0.469015 0
1291 1 0.492407 0.438131 0
420 1 0.474025 0.457376 0
449 1 0.456267 0.475407 0
1321 1 0.497689 0.462945 0
454 1 0.0213664 0.515449 0
424 1 0.0194203 0.489671 0
455 1 0.0428099 0.499776 0
426 1 0.0632016 0.485052 0
456 1 0.0659344 0.51129 0
457 1 0.0856484 0.494801 0
487 1 0.0882838 0.520753 0
428 1 0.10512 0.479575 0
459 1 0.12893 0.489962 0
458 1 0.10742 0.505143 0
489 1 0.13054 0.51553 0
461 1 0.170905 0.484729 0
460 1 0.151139 0.499107 0
462 1 0.172264 0.510219 0
434 1 0.212572 0.482316 0
463 1 0.192048 0.495921 0
464 1 0.213777 0.506847 0
493 1 0.19492 0.521577 0
436 1 0.25664 0.479338 0
465 1 0.236537 0.492633 0
467 1 0.260057 0.503128 0
466 1 0.237861 0.517133 0
438 1 0.280358 0.488851 0
469 1 0.303848 0.497713 0
468 1 0.283454 0.513258 0
442 1 0.34768 0.492053 0
440 1 0.323284 0.482115 0
471 1 0.327793 0.506581 0
473 1 0.350987 0.517248 0
445 1 0.38929 0.480728 0
444 1 0.371281 0.49874 0
475 1 0.395829 0.50537 0
446 1 0.413688 0.48687 0
477 1 0.420122 0.512701 0
448 1 0.437761 0.49429 0
478 1 0.44502 0.519241 0
450 1 0.479795 0.481817 0
479 1 0.4629 0.500041 0
1381 1 0.486709 0.506703 0
452 1 0.00078667 0.528793 0
483 1 0.0237727 0.540319 0
482 1 0.00305628 0.554665 0
485 1 0.04424 0.526023 0
513 1 0.0264277 0.56445 0
484 1 0.0473659 0.550768 0
486 1 0.0675942 0.536675 0
515 1 0.0707801 0.561409 0
517 1 0.0902403 0.545621 0
488 1 0.1111 0.530864 0
519 1 0.112346 0.556432 0
490 1 0.13287 0.540956 0
491 1 0.152792 0.526087 0
521 1 0.155729 0.551771 0
492 1 0.175388 0.536448 0
523 1 0.177926 0.561743 0
494 1 0.198011 0.546226 0
495 1 0.217612 0.532166 0
525 1 0.220539 0.556621 0
496 1 0.240647 0.541824 0
497 1 0.261452 0.526892 0
527 1 0.263296 0.550694 0
470 1 0.307552 0.521774 0
499 1 0.305731 0.546929 0
498 1 0.284142 0.536568 0
529 1 0.285647 0.561871 0
472 1 0.330825 0.531954 0
501 1 0.32768 0.556658 0
502 1 0.349356 0.563983 0
503 1 0.358103 0.541219 0
474 1 0.376731 0.523295 0
505 1 0.385979 0.547943 0
476 1 0.402147 0.529499 0
507 1 0.428224 0.536151 0
506 1 0.411758 0.554441 0
508 1 0.43674 0.561484 0
509 1 0.453212 0.542628 0
480 1 0.469784 0.524358 0
510 1 0.477796 0.548498 0
1382 1 0.494125 0.530399 0
512 1 0.0287056 0.589373 0
511 1 0.00564247 0.579259 0
541 1 0.00865891 0.603195 0
514 1 0.0498409 0.575372 0
545 1 0.0720092 0.586962 0
543 1 0.0513893 0.600606 0
516 1 0.0926391 0.571183 0
518 1 0.115275 0.581717 0
547 1 0.0946884 0.595815 0
548 1 0.118126 0.607403 0
520 1 0.13531 0.56652 0
549 1 0.137997 0.592434 0
522 1 0.157121 0.576932 0
551 1 0.161031 0.60197 0
553 1 0.180601 0.586775 0
524 1 0.201086 0.572006 0
554 1 0.203328 0.596776 0
555 1 0.224051 0.581814 0
556 1 0.226593 0.606484 0
526 1 0.24333 0.566523 0
557 1 0.246511 0.592323 0
528 1 0.266221 0.576175 0
558 1 0.270744 0.60313 0
500 1 0.308928 0.571355 0
559 1 0.289637 0.587156 0
530 1 0.313871 0.596648 0
531 1 0.332175 0.580487 0
532 1 0.338607 0.604283 0
533 1 0.355961 0.587236 0
504 1 0.372546 0.568531 0
534 1 0.380579 0.592331 0
535 1 0.396372 0.574545 0
536 1 0.403504 0.598963 0
537 1 0.419193 0.579932 0
567 1 0.427203 0.604241 0
538 1 0.444643 0.585621 0
539 1 0.461225 0.567163 0
540 1 0.485896 0.573059 0
569 1 0.469118 0.591424 0
1441 1 0.493262 0.598731 0
542 1 0.0308276 0.614144 0
571 1 0.0104607 0.628018 0
573 1 0.0336148 0.640738 0
544 1 0.0542231 0.625633 0
546 1 0.0740904 0.611838 0
575 1 0.0773501 0.636909 0
574 1 0.0570726 0.651187 0
577 1 0.0969782 0.621211 0
579 1 0.120777 0.632448 0
576 1 0.0997354 0.646923 0
550 1 0.141173 0.61788 0
581 1 0.164683 0.62643 0
580 1 0.144111 0.642603 0
611 1 0.167489 0.65241 0
552 1 0.184471 0.611667 0
582 1 0.186871 0.636384 0
583 1 0.206689 0.621478 0
584 1 0.210364 0.646043 0
585 1 0.230457 0.631337 0
586 1 0.253448 0.641333 0
587 1 0.250339 0.617344 0
560 1 0.29505 0.613259 0
589 1 0.27601 0.629951 0
590 1 0.30151 0.637433 0
561 1 0.319579 0.62125 0
563 1 0.362881 0.610071 0
562 1 0.343707 0.628441 0
591 1 0.325027 0.64544 0
593 1 0.350615 0.651656 0
565 1 0.386009 0.616559 0
564 1 0.368485 0.633954 0
595 1 0.392168 0.640061 0
568 1 0.451326 0.608914 0
566 1 0.410184 0.623149 0
596 1 0.417403 0.646641 0
597 1 0.43378 0.627959 0
570 1 0.475205 0.615543 0
600 1 0.458828 0.63434 0
1471 1 0.48268 0.64024 0
572 1 0.0134062 0.654215 0
602 1 0.0149685 0.67833 0
603 1 0.0371663 0.666622 0
633 1 0.0395108 0.691626 0
605 1 0.0790215 0.662464 0
604 1 0.0593223 0.677232 0
606 1 0.0821227 0.687546 0
578 1 0.123283 0.6572 0
607 1 0.102268 0.671774 0
608 1 0.126223 0.681528 0
609 1 0.147081 0.667495 0
610 1 0.170833 0.67692 0
639 1 0.149498 0.692293 0
612 1 0.194198 0.686052 0
613 1 0.190085 0.662053 0
614 1 0.213409 0.670835 0
615 1 0.233642 0.656022 0
616 1 0.239741 0.680569 0
617 1 0.259961 0.665172 0
647 1 0.264463 0.689551 0
588 1 0.282799 0.65378 0
619 1 0.306408 0.661843 0
618 1 0.289101 0.679031 0
620 1 0.31405 0.686749 0
621 1 0.33225 0.669153 0
592 1 0.35716 0.675397 0
622 1 0.339537 0.692803 0
594 1 0.375338 0.658123 0
625 1 0.399055 0.665426 0
623 1 0.38088 0.682894 0
626 1 0.405306 0.689275 0
599 1 0.441673 0.652745 0
598 1 0.447176 0.677495 0
627 1 0.422689 0.671104 0
657 1 0.429042 0.69557 0
628 1 0.472139 0.681918 0
629 1 0.466033 0.658349 0
1501 1 0.489737 0.663586 0
630 1 0.496641 0.689423 0
632 1 0.0174886 0.703051 0
663 1 0.0178162 0.727441 0
634 1 0.0400623 0.717659 0
635 1 0.0617924 0.702907 0
636 1 0.0851906 0.713683 0
665 1 0.0641614 0.728591 0
637 1 0.104873 0.697257 0
638 1 0.129226 0.705952 0
667 1 0.109119 0.72119 0
669 1 0.133424 0.730646 0
641 1 0.174077 0.701281 0
640 1 0.15281 0.71612 0
671 1 0.179389 0.725553 0
643 1 0.219091 0.696102 0
642 1 0.199294 0.710373 0
673 1 0.202035 0.735457 0
644 1 0.221622 0.721087 0
645 1 0.241896 0.704833 0
675 1 0.24414 0.730443 0
646 1 0.26397 0.715263 0
649 1 0.295746 0.703413 0
648 1 0.286012 0.725707 0
679 1 0.309269 0.729668 0
650 1 0.322546 0.70962 0
651 1 0.34565 0.720174 0
653 1 0.363768 0.700807 0
624 1 0.387752 0.706948 0
654 1 0.370041 0.725399 0
685 1 0.395178 0.731813 0
655 1 0.412533 0.713073 0
656 1 0.437575 0.719519 0
686 1 0.420046 0.737733 0
658 1 0.454802 0.701239 0
687 1 0.461264 0.724617 0
659 1 0.478965 0.707666 0
689 1 0.48617 0.731438 0
662 1 0.0201946 0.751329 0
691 1 -0.000235624 0.767215 0
693 1 0.0290751 0.772419 0
664 1 0.0457561 0.747671 0
666 1 0.0897938 0.738646 0
695 1 0.0710667 0.75684 0
694 1 0.0536501 0.774903 0
696 1 0.078692 0.781775 0
697 1 0.0953551 0.76338 0
668 1 0.113246 0.747103 0
698 1 0.118802 0.772377 0
699 1 0.137157 0.755521 0
670 1 0.158664 0.740304 0
701 1 0.162034 0.765125 0
672 1 0.182405 0.749239 0
700 1 0.142486 0.779606 0
702 1 0.185266 0.773534 0
674 1 0.225981 0.746601 0
703 1 0.204793 0.759845 0
705 1 0.227087 0.772116 0
677 1 0.265899 0.740287 0
676 1 0.24835 0.758216 0
707 1 0.273741 0.763139 0
678 1 0.294267 0.749568 0
680 1 0.317194 0.765912 0
709 1 0.294704 0.776232 0
681 1 0.329621 0.743199 0
652 1 0.353668 0.744911 0
682 1 0.360044 0.769837 0
711 1 0.337769 0.780746 0
683 1 0.378132 0.750434 0
713 1 0.384373 0.774604 0
684 1 0.402259 0.757087 0
716 1 0.410437 0.780318 0
717 1 0.4452 0.743588 0
715 1 0.42772 0.762303 0
718 1 0.45168 0.767839 0
690 1 0.492654 0.756569 0
688 1 0.469283 0.749579 0
719 1 0.475615 0.774344 0
692 1 0.0112012 0.788843 0
722 1 0.0182554 0.812574 0
723 1 0.0359477 0.7945 0
724 1 0.0423184 0.818462 0
725 1 0.0596047 0.799101 0
726 1 0.0835262 0.806521 0
755 1 0.0662558 0.823756 0
727 1 0.101561 0.789393 0
728 1 0.125454 0.796468 0
757 1 0.107791 0.814116 0
759 1 0.131536 0.820822 0
729 1 0.148935 0.804116 0
730 1 0.178263 0.815071 0
731 1 0.168902 0.791325 0
704 1 0.206571 0.784442 0
732 1 0.201849 0.808254 0
733 1 0.226396 0.799027 0
734 1 0.222074 0.823609 0
735 1 0.247965 0.785875 0
736 1 0.245987 0.814768 0
737 1 0.271442 0.810548 0
706 1 0.272403 0.786525 0
710 1 0.315828 0.790576 0
708 1 0.292943 0.80046 0
738 1 0.28937 0.826119 0
739 1 0.312269 0.816715 0
712 1 0.360039 0.798538 0
741 1 0.335159 0.805683 0
742 1 0.353165 0.823205 0
714 1 0.392496 0.797474 0
743 1 0.376816 0.816922 0
745 1 0.400665 0.8212 0
746 1 0.417481 0.804058 0
747 1 0.434791 0.786377 0
748 1 0.44146 0.8104 0
749 1 0.459345 0.792415 0
720 1 0.483413 0.798309 0
750 1 0.465895 0.816491 0
1621 1 0.490261 0.822691 0
752 1 0.00472682 0.851451 0
753 1 0.0239244 0.83664 0
783 1 0.0270065 0.862281 0
754 1 0.0474176 0.843261 0
785 1 0.0713872 0.8479 0
784 1 0.0545959 0.866812 0
756 1 0.0901429 0.830794 0
758 1 0.114588 0.839034 0
787 1 0.0960409 0.854991 0
788 1 0.121327 0.862861 0
789 1 0.147853 0.84973 0
760 1 0.155715 0.826929 0
761 1 0.174284 0.841287 0
791 1 0.169311 0.866099 0
763 1 0.197918 0.832772 0
762 1 0.193991 0.857404 0
764 1 0.218472 0.848671 0
767 1 0.265646 0.833796 0
765 1 0.241827 0.839628 0
795 1 0.237464 0.864808 0
766 1 0.261323 0.859064 0
769 1 0.30916 0.841645 0
768 1 0.284735 0.850681 0
799 1 0.30303 0.867252 0
740 1 0.331796 0.833687 0
770 1 0.327171 0.858934 0
771 1 0.351329 0.848412 0
744 1 0.379093 0.843787 0
773 1 0.367506 0.86678 0
774 1 0.391596 0.866668 0
775 1 0.406285 0.847115 0
777 1 0.424024 0.828318 0
807 1 0.432535 0.851254 0
778 1 0.449621 0.834096 0
809 1 0.456442 0.858924 0
779 1 0.473749 0.84195 0
780 1 0.480386 0.866114 0
1651 1 0.497355 0.847221 0
812 1 0.0147588 0.892623 0
814 1 0.0337759 0.909195 0
813 1 0.0380017 0.884979 0
786 1 0.0782769 0.871011 0
815 1 0.0567262 0.901093 0
816 1 0.0808319 0.895503 0
817 1 0.101118 0.879318 0
819 1 0.122279 0.889902 0
818 1 0.101757 0.907556 0
790 1 0.144979 0.87405 0
821 1 0.166872 0.890232 0
820 1 0.144837 0.898498 0
792 1 0.19016 0.881556 0
793 1 0.213752 0.872612 0
823 1 0.209755 0.897108 0
822 1 0.18593 0.905811 0
794 1 0.233884 0.888811 0
796 1 0.256617 0.882977 0
827 1 0.250368 0.906867 0
797 1 0.280151 0.875036 0
798 1 0.27423 0.899882 0
800 1 0.2977 0.892368 0
772 1 0.344897 0.875698 0
831 1 0.318353 0.908577 0
801 1 0.321209 0.883977 0
802 1 0.341533 0.900139 0
803 1 0.364745 0.89097 0
804 1 0.38284 0.907293 0
805 1 0.400097 0.889809 0
776 1 0.416606 0.871199 0
806 1 0.423519 0.896545 0
808 1 0.440195 0.877503 0
839 1 0.447324 0.902923 0
1681 1 0.487121 0.890089 0
810 1 0.463538 0.883191 0
840 1 0.47036 0.910552 0
842 1 0.00470565 0.941213 0
843 1 0.0096107 0.916739 0
844 1 0.027719 0.9332 0
845 1 0.0522249 0.925469 0
846 1 0.0698483 0.943 0
847 1 0.075425 0.918596 0
875 1 0.0462329 0.949784 0
848 1 0.0935823 0.935725 0
849 1 0.116573 0.928437 0
879 1 0.110602 0.953007 0
881 1 0.134142 0.946469 0
850 1 0.139907 0.922337 0
851 1 0.163009 0.914235 0
852 1 0.158606 0.938431 0
883 1 0.177111 0.954602 0
824 1 0.20497 0.921899 0
853 1 0.182654 0.929978 0
854 1 0.2002 0.94712 0
855 1 0.22372 0.939937 0
825 1 0.227788 0.914911 0
826 1 0.246174 0.931054 0
857 1 0.267207 0.949602 0
828 1 0.270138 0.924373 0
856 1 0.24315 0.95659 0
829 1 0.294228 0.917392 0
859 1 0.290761 0.941872 0
830 1 0.313924 0.932664 0
833 1 0.359959 0.916262 0
832 1 0.337637 0.925338 0
861 1 0.332417 0.949948 0
863 1 0.360692 0.941764 0
835 1 0.406084 0.914228 0
834 1 0.385395 0.93224 0
864 1 0.391352 0.955961 0
865 1 0.410051 0.938419 0
837 1 0.429387 0.92191 0
836 1 0.434302 0.946188 0
838 1 0.452248 0.928187 0
870 1 0.45922 0.952378 0
869 1 0.477367 0.93417 0
1711 1 0.494363 0.915362 0
872 1 0.0177491 0.982279 0
873 1 0.0227549 0.957294 0
874 1 0.0411488 0.973874 0
5 1 0.0590218 0.992248 0
876 1 0.0641713 0.967391 0
7 1 0.0821772 0.984929 0
877 1 0.0872174 0.960942 0
9 1 0.123734 0.994426 0
878 1 0.105803 0.977961 0
880 1 0.128389 0.969887 0
11 1 0.148052 0.98649 0
882 1 0.15251 0.962421 0
13 1 0.171328 0.979058 0
12 1 0.189886 0.995942 0
15 1 0.214049 0.987719 0
884 1 0.194987 0.971486 0
885 1 0.218992 0.96394 0
17 1 0.257209 0.998388 0
887 1 0.238338 0.980549 0
888 1 0.261755 0.974194 0
860 1 0.310186 0.959479 0
858 1 0.285826 0.966159 0
19 1 0.280284 0.98992 0
889 1 0.304069 0.983237 0
890 1 0.325418 0.999208 0
862 1 0.352344 0.965354 0
891 1 0.329305 0.976088 0
892 1 0.350255 0.991807 0
23 1 0.380757 0.998463 0
893 1 0.374558 0.975046 0
895 1 0.398391 0.981062 0
897 1 0.448159 0.994773 0
866 1 0.41472 0.963293 0
896 1 0.423244 0.986829 0
867 1 0.440648 0.970084 0
868 1 0.466062 0.977254 0
1771 1 0.489955 0.982957 0
1741 1 0.482941 0.959359 0
931 1 0.526738 0.0395137 0
901 1 0.519914 0.0155193 0
30 1 0.502493 0.0334742 0
902 1 0.544756 0.0210311 0
904 1 0.568062 0.0293172 0
906 1 0.58567 0.01177 0
905 1 0.562203 0.00341136 0
935 1 0.591379 0.0368397 0
908 1 0.609028 0.0206551 0
939 1 0.633728 0.0270861 0
909 1 0.625965 0.00385801 0
910 1 0.651441 0.010491 0
941 1 0.65805 0.034742 0
912 1 0.675901 0.0169406 0
943 1 0.711732 0.0210563 0
913 1 0.694078 6.77074e-05 0
942 1 0.682902 0.0403729 0
945 1 0.731175 0.0364633 0
914 1 0.739018 0.0126629 0
916 1 0.763037 0.00677104 0
947 1 0.757148 0.0315185 0
918 1 0.780685 0.0239395 0
919 1 0.804739 0.0181025 0
949 1 0.800063 0.0427401 0
951 1 0.82451 0.0378829 0
920 1 0.828904 0.0136758 0
922 1 0.84811 0.0312233 0
921 1 0.853982 0.00687154 0
923 1 0.872452 0.0240951 0
924 1 0.897123 0.018298 0
954 1 0.891078 0.0410741 0
1792 1 0.878716 0.000226366 0
955 1 0.914385 0.0353082 0
925 1 0.92133 0.0120042 0
926 1 0.938855 0.0289052 0
928 1 0.944767 0.00448667 0
930 1 0.987451 0.0133985 0
959 1 0.963999 0.02093 0
960 1 0.981957 0.0382557 0
932 1 0.532714 0.0640613 0
961 1 0.51463 0.0817484 0
60 1 0.50896 0.0572469 0
933 1 0.550036 0.0462911 0
963 1 0.555501 0.071954 0
934 1 0.574037 0.0541269 0
965 1 0.579799 0.0787425 0
937 1 0.616047 0.0447969 0
936 1 0.597722 0.0615812 0
967 1 0.622173 0.0694458 0
938 1 0.640076 0.051498 0
969 1 0.645815 0.0760125 0
940 1 0.663848 0.0588121 0
970 1 0.66946 0.0833036 0
971 1 0.687511 0.0655803 0
944 1 0.707905 0.0468096 0
973 1 0.710028 0.0726273 0
975 1 0.730582 0.0610351 0
974 1 0.746501 0.0804377 0
946 1 0.753789 0.0564538 0
977 1 0.770324 0.0738808 0
948 1 0.776701 0.0486038 0
979 1 0.794684 0.0682605 0
978 1 0.81238 0.0852315 0
950 1 0.818233 0.0613031 0
980 1 0.836136 0.0783714 0
981 1 0.861044 0.0722703 0
952 1 0.843379 0.0546142 0
953 1 0.867576 0.0484045 0
983 1 0.885591 0.0652853 0
984 1 0.903095 0.0827406 0
985 1 0.909058 0.058883 0
956 1 0.933037 0.0529933 0
986 1 0.927292 0.0762913 0
987 1 0.951137 0.0696089 0
957 1 0.957786 0.0451399 0
958 1 0.974941 0.0621871 0
989 1 0.992899 0.0790766 0
61 1 0.999627 0.0547912 0
988 1 0.968643 0.0859689 0
962 1 0.538178 0.0893377 0
991 1 0.519874 0.10685 0
120 1 0.5025 0.124162 0
993 1 0.544095 0.113822 0
964 1 0.562484 0.0972233 0
994 1 0.56911 0.120833 0
995 1 0.586375 0.103631 0
966 1 0.604322 0.0859558 0
996 1 0.593078 0.127863 0
968 1 0.62876 0.0934429 0
997 1 0.610662 0.110048 0
998 1 0.635262 0.11815 0
999 1 0.652562 0.100505 0
1000 1 0.6598 0.124023 0
1001 1 0.677039 0.107499 0
972 1 0.694007 0.0899492 0
1002 1 0.701663 0.114114 0
1003 1 0.718463 0.0964652 0
1004 1 0.725067 0.120665 0
976 1 0.765533 0.098391 0
1005 1 0.742349 0.103928 0
1035 1 0.750897 0.12722 0
1007 1 0.788895 0.0921437 0
1006 1 0.783753 0.116639 0
1008 1 0.806946 0.109229 0
1039 1 0.825292 0.127651 0
1009 1 0.830531 0.102829 0
1010 1 0.849526 0.120704 0
1011 1 0.854281 0.0962497 0
982 1 0.879244 0.0888487 0
1012 1 0.872727 0.113318 0
1013 1 0.897322 0.106182 0
1016 1 0.9151 0.124362 0
1017 1 0.9457 0.0935979 0
1015 1 0.921524 0.0999913 0
1047 1 0.939523 0.117495 0
1018 1 0.962929 0.110698 0
1019 1 0.986579 0.102873 0
1020 1 0.982045 0.126406 0
992 1 0.526401 0.1304 0
1022 1 0.533104 0.15463 0
1021 1 0.508909 0.148 0
1023 1 0.550674 0.137572 0
1024 1 0.556605 0.162098 0
1025 1 0.575527 0.14438 0
1055 1 0.581517 0.168871 0
1027 1 0.61644 0.134068 0
1026 1 0.599497 0.153266 0
1028 1 0.623653 0.159195 0
1029 1 0.641409 0.141718 0
1059 1 0.647322 0.165572 0
1030 1 0.665949 0.148727 0
1061 1 0.671724 0.172084 0
1031 1 0.683923 0.132013 0
1032 1 0.690261 0.156125 0
1033 1 0.70843 0.139028 0
1063 1 0.713054 0.163048 0
1034 1 0.731894 0.145065 0
1036 1 0.755728 0.151192 0
1065 1 0.737555 0.169379 0
1067 1 0.778606 0.141571 0
1037 1 0.801538 0.134624 0
1038 1 0.794617 0.159722 0
1040 1 0.819478 0.152254 0
1071 1 0.838053 0.168839 0
1041 1 0.843389 0.144153 0
1042 1 0.862534 0.161514 0
1014 1 0.891455 0.13099 0
1043 1 0.867327 0.137275 0
1044 1 0.885989 0.154699 0
1075 1 0.904382 0.173242 0
1045 1 0.909966 0.14865 0
1046 1 0.933324 0.142038 0
1048 1 0.952231 0.158357 0
1077 1 0.92769 0.166002 0
1049 1 0.957729 0.134478 0
1050 1 0.975887 0.151355 0
151 1 0.994257 0.167667 0
121 1 0.999974 0.143466 0
1051 1 0.514375 0.172316 0
1053 1 0.538165 0.179163 0
1052 1 0.520301 0.197014 0
1083 1 0.54449 0.203694 0
1081 1 0.501576 0.215249 0
1054 1 0.562249 0.185275 0
1056 1 0.586301 0.193008 0
1085 1 0.568696 0.21067 0
1057 1 0.60539 0.177085 0
1058 1 0.628843 0.183353 0
1087 1 0.610733 0.20077 0
1089 1 0.635613 0.207238 0
1060 1 0.652908 0.190054 0
1091 1 0.676736 0.197806 0
1090 1 0.658834 0.215007 0
1062 1 0.69555 0.180844 0
1093 1 0.701032 0.205143 0
1064 1 0.71894 0.187793 0
1094 1 0.725686 0.211796 0
1066 1 0.76225 0.175406 0
1095 1 0.743544 0.193923 0
1097 1 0.767632 0.200718 0
1069 1 0.813859 0.175862 0
1068 1 0.788264 0.184465 0
1098 1 0.789341 0.210478 0
1099 1 0.809917 0.19977 0
1070 1 0.833202 0.193347 0
1072 1 0.857187 0.186621 0
1101 1 0.851264 0.211396 0
1073 1 0.880332 0.179482 0
1103 1 0.875332 0.204423 0
1074 1 0.89837 0.197775 0
1105 1 0.91676 0.21497 0
1078 1 0.946788 0.182294 0
1076 1 0.922464 0.191015 0
1107 1 0.941053 0.206896 0
1079 1 0.97023 0.175362 0
1109 1 0.964499 0.19914 0
181 1 0.988995 0.192652 0
1110 1 0.983473 0.217074 0
1082 1 0.525999 0.22161 0
1111 1 0.507328 0.240155 0
1113 1 0.532346 0.246469 0
1084 1 0.550181 0.228747 0
1114 1 0.555493 0.252886 0
1115 1 0.573819 0.23534 0
1116 1 0.580488 0.260136 0
1086 1 0.592377 0.217919 0
1088 1 0.616623 0.224295 0
1117 1 0.598324 0.241614 0
1118 1 0.621951 0.248925 0
1119 1 0.640214 0.231939 0
1121 1 0.664196 0.239383 0
1120 1 0.646807 0.256238 0
1092 1 0.682854 0.222459 0
1122 1 0.688403 0.246674 0
1123 1 0.706225 0.228962 0
1124 1 0.712925 0.253459 0
1125 1 0.729761 0.235318 0
1096 1 0.749097 0.21824 0
1126 1 0.753651 0.243582 0
1127 1 0.771683 0.226232 0
1155 1 0.735698 0.260792 0
1129 1 0.796944 0.233589 0
1128 1 0.778404 0.250588 0
1159 1 0.802426 0.258278 0
1100 1 0.82745 0.217911 0
1130 1 0.821776 0.242625 0
1131 1 0.845677 0.235522 0
1132 1 0.863296 0.253807 0
1102 1 0.869845 0.229167 0
1104 1 0.892284 0.222103 0
1133 1 0.886838 0.246896 0
1135 1 0.911384 0.238871 0
1136 1 0.929384 0.256598 0
1106 1 0.935195 0.231841 0
1137 1 0.953184 0.249203 0
1108 1 0.959298 0.223976 0
1139 1 0.977278 0.24127 0
1169 1 0.995463 0.258149 0
1112 1 0.513924 0.264131 0
1142 1 0.520255 0.288692 0