ITEM: TIMESTEP
76000
ITEM: NUMBER OF ATOMS
1800
ITEM: BOX BOUNDS pp pp pp
1.1192729170115001e+00 1.6388072708298500e+02
1.1192729170115001e+00 1.6388072708298500e+02
0.0000000000000000e+00 5.5000000000000000e+00
ITEM: ATOMS id type xs ys zs
2 1 0.0103833 0.00655963 0
33 1 0.0285416 0.0234588 0
31 1 0.00504629 0.0308585 0
4 1 0.0528538 0.0155177 0
6 1 0.0767645 0.00889894 0
35 1 0.0706645 0.0327676 0
34 1 0.0460206 0.0397092 0
8 1 0.101228 0.00137517 0
37 1 0.0949458 0.0254476 0
39 1 0.119788 0.0185984 0
38 1 0.113254 0.0425248 0
40 1 0.136824 0.0354494 0
10 1 0.143374 0.0118143 0
41 1 0.167631 0.0043141 0
42 1 0.161634 0.0288692 0
43 1 0.186015 0.0215267 0
14 1 0.210781 0.0132059 0
44 1 0.204027 0.0377305 0
45 1 0.228093 0.0294437 0
16 1 0.252708 0.0231934 0
886 1 0.233992 0.00564095 0
46 1 0.270285 0.0400687 0
18 1 0.277227 0.0161989 0
49 1 0.295777 0.0338793 0
20 1 0.301519 0.00734714 0
51 1 0.320554 0.0250387 0
22 1 0.343933 0.0320263 0
21 1 0.361755 0.0152925 0
24 1 0.387451 0.0227953 0
53 1 0.367978 0.0388868 0
894 1 0.405636 0.005146 0
25 1 0.411589 0.0298459 0
26 1 0.436018 0.03635 0
27 1 0.42875 0.0118927 0
898 1 0.453316 0.0189928 0
29 1 0.477075 0.0247506 0
900 1 0.495939 0.00797376 0
28 1 0.459757 0.0431772 0
899 1 0.471999 0.000317629 0
32 1 0.0226031 0.0477123 0
62 1 0.0171716 0.0718988 0
63 1 0.0410696 0.0644468 0
65 1 0.0647937 0.0566705 0
66 1 0.0836085 0.0734841 0
64 1 0.0596193 0.0810624 0
36 1 0.0890814 0.0492554 0
67 1 0.107731 0.0667084 0
69 1 0.132145 0.0598925 0
68 1 0.125664 0.0839349 0
71 1 0.155922 0.052933 0
72 1 0.173645 0.0698616 0
70 1 0.149785 0.0768292 0
73 1 0.180089 0.0454359 0
74 1 0.222084 0.0549294 0
103 1 0.19759 0.0620398 0
105 1 0.216363 0.078425 0
101 1 0.192515 0.0859837 0
75 1 0.245696 0.046824 0
77 1 0.262928 0.0644039 0
76 1 0.240328 0.0715907 0
47 1 0.28794 0.0587605 0
48 1 0.310039 0.0698867 0
78 1 0.290547 0.0851895 0
50 1 0.326884 0.0512304 0
81 1 0.332845 0.0761988 0
52 1 0.35016 0.0563196 0
82 1 0.356835 0.0822193 0
55 1 0.39307 0.0467172 0
83 1 0.375139 0.0639787 0
54 1 0.39958 0.0709025 0
57 1 0.442179 0.0609068 0
85 1 0.422906 0.0782849 0
56 1 0.417247 0.0541613 0
87 1 0.447552 0.0847586 0
59 1 0.483815 0.049381 0
58 1 0.46632 0.068188 0
89 1 0.48958 0.0747715 0
990 1 0.0119819 0.0959203 0
92 1 0.0304567 0.11247 0
93 1 0.0357772 0.0886807 0
91 1 0.00699638 0.120059 0
94 1 0.0543337 0.105236 0
95 1 0.078159 0.0972825 0
125 1 0.0732168 0.121814 0
123 1 0.0480997 0.129617 0
96 1 0.0970031 0.115417 0
97 1 0.102103 0.0904665 0
98 1 0.120795 0.109173 0
99 1 0.144856 0.101193 0
100 1 0.168081 0.0939779 0
130 1 0.16333 0.119285 0
129 1 0.138646 0.125963 0
131 1 0.186602 0.111645 0
102 1 0.209752 0.103274 0
133 1 0.204772 0.128821 0
104 1 0.227064 0.119829 0
106 1 0.234287 0.0954916 0
137 1 0.258166 0.0886319 0
135 1 0.251649 0.1133 0
107 1 0.27559 0.105024 0
108 1 0.280615 0.129159 0
109 1 0.298537 0.112488 0
79 1 0.315228 0.0938011 0
80 1 0.341031 0.100588 0
110 1 0.323619 0.118252 0
141 1 0.346619 0.124536 0
113 1 0.38096 0.0885 0
111 1 0.36367 0.10686 0
84 1 0.40545 0.0960448 0
112 1 0.388265 0.113532 0
115 1 0.412825 0.119347 0
86 1 0.43023 0.102373 0
116 1 0.436357 0.127035 0
117 1 0.454996 0.109616 0
88 1 0.472375 0.0916925 0
90 1 0.495702 0.0984496 0
119 1 0.478006 0.116106 0
122 1 0.0241413 0.13665 0
153 1 0.0425957 0.153745 0
152 1 0.0194166 0.161674 0
121 1 0.00157695 0.144484 0
124 1 0.0666072 0.146249 0
155 1 0.0851017 0.1635 0
154 1 0.0619883 0.171112 0
126 1 0.0908232 0.139289 0
127 1 0.114329 0.132909 0
128 1 0.133496 0.149926 0
157 1 0.10876 0.15689 0
158 1 0.126662 0.173592 0
159 1 0.157473 0.143673 0
132 1 0.181145 0.136443 0
161 1 0.175089 0.161867 0
160 1 0.150995 0.167977 0
163 1 0.198625 0.154108 0
134 1 0.22211 0.14678 0
193 1 0.218243 0.172579 0
136 1 0.264347 0.148274 0
165 1 0.243857 0.136468 0
167 1 0.270311 0.17085 0
164 1 0.243828 0.161809 0
139 1 0.304896 0.135853 0
138 1 0.28859 0.153509 0
169 1 0.311099 0.16127 0
140 1 0.328962 0.143437 0
142 1 0.351773 0.149959 0
171 1 0.334248 0.167218 0
172 1 0.359726 0.173136 0
143 1 0.370401 0.131203 0
114 1 0.39609 0.137816 0
173 1 0.37785 0.154507 0
144 1 0.400511 0.162272 0
145 1 0.41869 0.144931 0
146 1 0.423914 0.169734 0
147 1 0.442399 0.151034 0
118 1 0.46117 0.133839 0
149 1 0.48477 0.14069 0
148 1 0.466418 0.157774 0
150 1 0.490058 0.164825 0
183 1 0.0370996 0.17759 0
182 1 0.0310701 0.202257 0
1080 1 0.0134166 0.185489 0
211 1 0.00833393 0.210118 0
184 1 0.0549944 0.196126 0
185 1 0.078998 0.188811 0
215 1 0.0734109 0.212969 0
186 1 0.0971777 0.204672 0
156 1 0.102769 0.180504 0
187 1 0.12083 0.19799 0
189 1 0.144611 0.191659 0
191 1 0.168825 0.186143 0
190 1 0.161995 0.209497 0
188 1 0.138112 0.215398 0
221 1 0.187329 0.204234 0
162 1 0.193664 0.179403 0
192 1 0.211875 0.197708 0
195 1 0.23487 0.205047 0
166 1 0.251353 0.186376 0
196 1 0.258619 0.211736 0
168 1 0.294445 0.178264 0
197 1 0.275949 0.19475 0
199 1 0.299384 0.20249 0
170 1 0.317302 0.184967 0
201 1 0.341461 0.19116 0
200 1 0.323479 0.208799 0
202 1 0.347658 0.216243 0
203 1 0.365384 0.198123 0
174 1 0.382845 0.180851 0
204 1 0.389221 0.204772 0
175 1 0.407137 0.187069 0
177 1 0.448507 0.175969 0
205 1 0.413095 0.211281 0
176 1 0.431109 0.194078 0
178 1 0.455116 0.200749 0
179 1 0.472712 0.183101 0
180 1 0.496723 0.189242 0
209 1 0.47878 0.207485 0
212 1 0.0255253 0.227002 0
243 1 0.0438386 0.24356 0
241 1 0.0194319 0.250835 0
1140 1 0.00171197 0.233888 0
213 1 0.0489281 0.220108 0
214 1 0.067693 0.237399 0
245 1 0.0846864 0.255693 0
216 1 0.0911841 0.230685 0
217 1 0.113951 0.222749 0
218 1 0.130241 0.23944 0
247 1 0.108146 0.249768 0
219 1 0.153881 0.237354 0
220 1 0.177768 0.228076 0
222 1 0.180542 0.252947 0
249 1 0.141847 0.260146 0
223 1 0.199834 0.238084 0
194 1 0.216376 0.221742 0
224 1 0.222517 0.246681 0
225 1 0.239997 0.22895 0
227 1 0.263127 0.236515 0
226 1 0.245989 0.254722 0
257 1 0.269205 0.260841 0
198 1 0.281774 0.219981 0
228 1 0.286894 0.243643 0
229 1 0.306441 0.226711 0
230 1 0.311761 0.250124 0
231 1 0.330986 0.233506 0
232 1 0.354489 0.240583 0
261 1 0.336094 0.257447 0
233 1 0.371963 0.222013 0
234 1 0.378327 0.246528 0
235 1 0.395994 0.229749 0
265 1 0.401439 0.254575 0
207 1 0.436605 0.218276 0
206 1 0.419304 0.236106 0
237 1 0.443011 0.242218 0
236 1 0.425416 0.259578 0
208 1 0.461657 0.224892 0
210 1 0.48521 0.231895 0
239 1 0.468106 0.249505 0
240 1 0.491449 0.257034 0
242 1 0.0380465 0.268043 0
271 1 0.0301593 0.291182 0
1170 1 0.0130718 0.274833 0
1200 1 0.0101468 0.304159 0
273 1 0.0548079 0.287793 0
244 1 0.0613661 0.261812 0
275 1 0.0784439 0.281127 0
246 1 0.102406 0.290007 0
248 1 0.121335 0.274393 0
279 1 0.126025 0.299392 0
251 1 0.164192 0.270509 0
250 1 0.14442 0.284051 0
281 1 0.168019 0.295018 0
253 1 0.20419 0.263177 0
252 1 0.186828 0.279812 0
254 1 0.209934 0.288063 0
255 1 0.227712 0.271606 0
256 1 0.252033 0.279296 0
285 1 0.233613 0.295319 0
287 1 0.257122 0.303129 0
259 1 0.293479 0.267569 0
258 1 0.275613 0.285713 0
289 1 0.299671 0.291933 0
260 1 0.317083 0.27513 0
263 1 0.360026 0.264226 0
262 1 0.341356 0.283304 0
291 1 0.322791 0.30011 0
293 1 0.365309 0.288626 0
264 1 0.383631 0.270904 0
295 1 0.389657 0.295458 0
266 1 0.407817 0.277949 0
238 1 0.448553 0.267045 0
267 1 0.431785 0.284101 0
297 1 0.413606 0.302806 0
268 1 0.455423 0.290857 0
1141 1 0.496908 0.280716 0
269 1 0.473258 0.274492 0
270 1 0.479376 0.298458 0
301 1 0.0221899 0.324929 0
1230 1 0.00128953 0.338995 0
272 1 0.0428788 0.312023 0
303 1 0.0446187 0.335692 0
276 1 0.0827829 0.305791 0
274 1 0.0656197 0.321716 0
305 1 0.088694 0.331631 0
304 1 0.0683467 0.346147 0
277 1 0.105737 0.31532 0
278 1 0.129627 0.323779 0
307 1 0.11165 0.340942 0
280 1 0.148993 0.30955 0
311 1 0.153069 0.335039 0
282 1 0.171595 0.319305 0
312 1 0.176426 0.344333 0
283 1 0.19117 0.304695 0
284 1 0.214408 0.31289 0
313 1 0.196395 0.328948 0
315 1 0.220105 0.337991 0
286 1 0.237758 0.320059 0
317 1 0.263103 0.32684 0
316 1 0.244384 0.345163 0
288 1 0.280391 0.309777 0
318 1 0.286742 0.334418 0
290 1 0.303612 0.31686 0
319 1 0.310942 0.341862 0
292 1 0.347487 0.307397 0
321 1 0.329458 0.324041 0
323 1 0.353624 0.331379 0
324 1 0.377518 0.338363 0
294 1 0.37201 0.313503 0
325 1 0.402304 0.344818 0
296 1 0.396026 0.320609 0
298 1 0.437941 0.309341 0
327 1 0.42043 0.327268 0
328 1 0.443654 0.335378 0
329 1 0.467296 0.342271 0
299 1 0.461157 0.316906 0
300 1 0.484783 0.323443 0
302 1 0.0242638 0.350208 0
332 1 0.0274113 0.374908 0
331 1 0.00412904 0.363552 0
361 1 0.00794071 0.389117 0
333 1 0.0476066 0.360325 0
335 1 0.0717735 0.370763 0
334 1 0.0507401 0.384735 0
306 1 0.0916361 0.356442 0
337 1 0.0946101 0.381608 0
308 1 0.11445 0.366238 0
309 1 0.134162 0.35163 0
338 1 0.117488 0.390838 0
339 1 0.137973 0.376247 0
310 1 0.157168 0.360086 0
341 1 0.1614 0.384898 0
343 1 0.181401 0.370308 0
314 1 0.202001 0.35515 0
344 1 0.206787 0.380463 0
345 1 0.225453 0.362387 0
375 1 0.231182 0.386925 0
347 1 0.268649 0.352344 0
346 1 0.250137 0.368883 0
377 1 0.274462 0.376767 0
349 1 0.292491 0.358848 0
348 1 0.298245 0.384055 0
350 1 0.316367 0.365903 0
320 1 0.335193 0.348055 0
322 1 0.35904 0.354953 0
351 1 0.341015 0.372034 0
381 1 0.32472 0.389906 0
353 1 0.365659 0.380135 0
355 1 0.383473 0.362759 0
354 1 0.389442 0.387947 0
356 1 0.406609 0.370478 0
326 1 0.425734 0.352315 0
357 1 0.430783 0.376167 0
359 1 0.449744 0.36023 0
1201 1 0.491327 0.349059 0
358 1 0.455885 0.384382 0
330 1 0.473587 0.367255 0
1231 1 0.49787 0.372971 0
360 1 0.479133 0.391171 0
363 1 0.0312824 0.399571 0
362 1 0.0114664 0.413177 0
364 1 0.0340297 0.423776 0
336 1 0.0746044 0.395323 0
365 1 0.0534404 0.409432 0
366 1 0.0773142 0.419809 0
395 1 0.0564411 0.433308 0
367 1 0.0977102 0.40602 0
369 1 0.121234 0.416697 0
368 1 0.100987 0.430344 0
340 1 0.14079 0.400564 0
370 1 0.14374 0.426152 0
371 1 0.164016 0.409913 0
401 1 0.166621 0.434782 0
342 1 0.184979 0.394187 0
372 1 0.187234 0.418686 0
373 1 0.209622 0.405232 0
403 1 0.208143 0.431103 0
374 1 0.233169 0.412853 0
376 1 0.255819 0.393125 0
405 1 0.257962 0.418055 0
378 1 0.279418 0.401291 0
379 1 0.306828 0.406892 0
409 1 0.288737 0.423344 0
410 1 0.311966 0.432177 0
352 1 0.348284 0.397621 0
382 1 0.354068 0.422075 0
380 1 0.330108 0.41548 0
383 1 0.371994 0.405243 0
385 1 0.394887 0.412679 0
384 1 0.377271 0.429893 0
387 1 0.413409 0.39474 0
386 1 0.41875 0.418852 0
388 1 0.437422 0.400467 0
419 1 0.442332 0.425431 0
389 1 0.460401 0.408874 0
1261 1 0.484744 0.414515 0
390 1 0.465862 0.432303 0
393 1 0.0140022 0.438641 0
423 1 0.0169236 0.46298 0
394 1 0.0369971 0.448778 0
425 1 0.0398135 0.473247 0
396 1 0.0600183 0.458946 0
397 1 0.0800605 0.443927 0
427 1 0.0831107 0.47004 0
399 1 0.123136 0.442062 0
398 1 0.103753 0.455249 0
429 1 0.125767 0.466697 0
400 1 0.145929 0.451097 0
431 1 0.168959 0.460757 0
430 1 0.148127 0.476478 0
402 1 0.189054 0.445699 0
433 1 0.211157 0.45712 0
432 1 0.191668 0.472256 0
404 1 0.231014 0.439169 0
406 1 0.252345 0.452107 0
435 1 0.233264 0.467393 0
407 1 0.271722 0.439443 0
436 1 0.255134 0.477987 0
437 1 0.275167 0.464209 0
408 1 0.293868 0.448303 0
439 1 0.299302 0.473526 0
441 1 0.317956 0.456236 0
413 1 0.358948 0.446853 0
411 1 0.336002 0.439547 0
412 1 0.3418 0.464507 0
415 1 0.400451 0.436632 0
414 1 0.38317 0.455163 0
443 1 0.365065 0.47231 0
416 1 0.4071 0.460898 0
417 1 0.424362 0.443459 0
418 1 0.448067 0.450256 0
447 1 0.430766 0.467129 0
1291 1 0.489965 0.438011 0
420 1 0.472602 0.456602 0
449 1 0.454997 0.473172 0
1321 1 0.496798 0.462874 0
454 1 0.0215511 0.513478 0
424 1 0.0202674 0.487332 0
455 1 0.0421307 0.498436 0
426 1 0.0622472 0.484099 0
456 1 0.0647975 0.509209 0
457 1 0.0850772 0.495289 0
487 1 0.0876054 0.519875 0
428 1 0.1055 0.480799 0
459 1 0.128624 0.492138 0
458 1 0.108068 0.505928 0
489 1 0.131637 0.51657 0
461 1 0.170742 0.485941 0
460 1 0.151305 0.501847 0
462 1 0.173754 0.512372 0
434 1 0.214546 0.483217 0
463 1 0.193854 0.497195 0
464 1 0.216594 0.508502 0
465 1 0.236749 0.492713 0
467 1 0.259035 0.503361 0
466 1 0.239292 0.517888 0
438 1 0.27914 0.488626 0
469 1 0.30252 0.497899 0
468 1 0.282343 0.512818 0
442 1 0.346673 0.488636 0
440 1 0.323004 0.481107 0
471 1 0.326441 0.505613 0
473 1 0.352823 0.513335 0
445 1 0.388761 0.479641 0
444 1 0.371642 0.497722 0
475 1 0.397226 0.503734 0
474 1 0.377603 0.521605 0
446 1 0.414352 0.48516 0
477 1 0.421446 0.510456 0
448 1 0.438647 0.491442 0
478 1 0.444837 0.517927 0
450 1 0.479147 0.480606 0
479 1 0.462498 0.498469 0
1381 1 0.48708 0.505715 0
452 1 0.0015309 0.527692 0
483 1 0.0248768 0.538103 0
482 1 0.00385175 0.552501 0
485 1 0.0444043 0.523714 0
513 1 0.0262216 0.563492 0
484 1 0.0474604 0.549263 0
486 1 0.0667376 0.534192 0
515 1 0.0697734 0.55997 0
517 1 0.0891074 0.544794 0
488 1 0.111295 0.529913 0
519 1 0.111283 0.554776 0
490 1 0.133721 0.541092 0
491 1 0.153571 0.526913 0
521 1 0.156419 0.551515 0
492 1 0.176493 0.537928 0
523 1 0.178551 0.562009 0
493 1 0.196776 0.522827 0
494 1 0.199772 0.547766 0
495 1 0.218598 0.533068 0
525 1 0.22184 0.558551 0
496 1 0.241048 0.543042 0
497 1 0.261449 0.527808 0
527 1 0.263747 0.553319 0
470 1 0.306406 0.522715 0
499 1 0.305864 0.546876 0
498 1 0.283936 0.537203 0
529 1 0.287475 0.562674 0
472 1 0.334616 0.530504 0
501 1 0.328649 0.554837 0
502 1 0.351937 0.561635 0
503 1 0.360346 0.538697 0
505 1 0.38549 0.547053 0
476 1 0.403106 0.528996 0
507 1 0.427367 0.536283 0
506 1 0.410545 0.553664 0
508 1 0.435537 0.560086 0
509 1 0.452955 0.541247 0
480 1 0.470254 0.523074 0
510 1 0.477296 0.546896 0
1382 1 0.494747 0.529355 0
512 1 0.0293358 0.588553 0
511 1 0.00651362 0.577644 0
541 1 0.00905457 0.602557 0
514 1 0.0501993 0.574103 0
545 1 0.0728199 0.585638 0
543 1 0.0520111 0.599627 0
516 1 0.0925341 0.570061 0
518 1 0.114981 0.579775 0
547 1 0.095674 0.594234 0
548 1 0.117747 0.605314 0
520 1 0.135733 0.566423 0
549 1 0.13792 0.590892 0
522 1 0.158612 0.576046 0
551 1 0.161368 0.600972 0
553 1 0.181799 0.586911 0
524 1 0.201283 0.572578 0
554 1 0.204653 0.59673 0
555 1 0.224938 0.583409 0
556 1 0.22799 0.608178 0
526 1 0.244538 0.569067 0
557 1 0.247829 0.593883 0
528 1 0.267865 0.578385 0
558 1 0.272141 0.60306 0
500 1 0.310223 0.571524 0
559 1 0.29068 0.587153 0
530 1 0.314239 0.596707 0
531 1 0.333143 0.579803 0
532 1 0.338298 0.603904 0
533 1 0.357063 0.586232 0
504 1 0.3745 0.568406 0
534 1 0.379949 0.592006 0
535 1 0.396926 0.574363 0
536 1 0.403853 0.598963 0
537 1 0.421074 0.579849 0
567 1 0.427244 0.604588 0
538 1 0.444142 0.584855 0
539 1 0.460702 0.565316 0
540 1 0.485333 0.57114 0
569 1 0.468895 0.589734 0
1441 1 0.493949 0.596734 0
542 1 0.030959 0.613377 0
571 1 0.0105426 0.627071 0
573 1 0.0330158 0.638905 0
572 1 0.0111958 0.652007 0
544 1 0.0538399 0.624209 0
546 1 0.0742737 0.610195 0
575 1 0.0774012 0.634657 0
574 1 0.0569646 0.648798 0
577 1 0.0978992 0.619551 0
579 1 0.120657 0.631277 0
576 1 0.10059 0.646238 0
550 1 0.141122 0.616728 0
581 1 0.164384 0.626259 0
580 1 0.14369 0.641261 0
611 1 0.167084 0.650244 0
552 1 0.184525 0.61121 0
582 1 0.187281 0.635888 0
583 1 0.207607 0.62113 0
584 1 0.211957 0.646142 0
585 1 0.232472 0.632202 0
586 1 0.256438 0.642407 0
587 1 0.252708 0.618174 0
560 1 0.294861 0.611672 0
589 1 0.275999 0.626924 0
590 1 0.299861 0.637097 0
561 1 0.319367 0.621096 0
563 1 0.362045 0.610918 0
562 1 0.343301 0.629453 0
591 1 0.324132 0.645274 0
565 1 0.385372 0.617188 0
564 1 0.367507 0.634361 0
595 1 0.391979 0.641599 0
568 1 0.451911 0.608587 0
566 1 0.410196 0.624066 0
596 1 0.417337 0.647094 0
597 1 0.434087 0.629143 0
570 1 0.476086 0.613942 0
600 1 0.458368 0.633662 0
1471 1 0.483175 0.638156 0
602 1 0.0139071 0.676387 0
603 1 0.0363072 0.663094 0
633 1 0.0386808 0.689066 0
605 1 0.0808592 0.660729 0
604 1 0.0592676 0.675348 0
606 1 0.0824712 0.68723 0
578 1 0.123864 0.656182 0
607 1 0.103587 0.670965 0
608 1 0.126473 0.680827 0
609 1 0.147137 0.665312 0
610 1 0.170806 0.674496 0
639 1 0.150126 0.69049 0
612 1 0.194763 0.684442 0
613 1 0.191108 0.660556 0
614 1 0.21477 0.669948 0
615 1 0.235536 0.655772 0
616 1 0.238672 0.680879 0
617 1 0.258679 0.667856 0
647 1 0.264002 0.690902 0
588 1 0.279229 0.65289 0
619 1 0.304295 0.661641 0
618 1 0.286111 0.677765 0
620 1 0.310853 0.685809 0
593 1 0.350061 0.653297 0
621 1 0.330896 0.669971 0
592 1 0.356227 0.676792 0
622 1 0.33862 0.694332 0
594 1 0.37359 0.65863 0
625 1 0.398869 0.665059 0
623 1 0.38025 0.684412 0
626 1 0.405245 0.688976 0
599 1 0.441295 0.652886 0
598 1 0.448074 0.677193 0
627 1 0.423587 0.670811 0
657 1 0.430412 0.695045 0
628 1 0.471377 0.682747 0
629 1 0.465914 0.657279 0
1501 1 0.489484 0.663145 0
630 1 0.495991 0.690232 0
632 1 0.0172462 0.701166 0
663 1 0.0187012 0.725806 0
634 1 0.0410509 0.713653 0
635 1 0.0619576 0.70049 0
636 1 0.0843839 0.712114 0
665 1 0.0640851 0.728355 0
666 1 0.0896979 0.736573 0
637 1 0.105821 0.695888 0
638 1 0.129557 0.705137 0
667 1 0.109665 0.721126 0
669 1 0.133108 0.729336 0
641 1 0.174436 0.699171 0
640 1 0.153863 0.715129 0
671 1 0.178508 0.724219 0
670 1 0.157279 0.739138 0
643 1 0.218781 0.695496 0
642 1 0.198991 0.708953 0
673 1 0.202 0.733858 0
644 1 0.222659 0.720698 0
645 1 0.242371 0.705239 0
675 1 0.245607 0.730444 0
646 1 0.266997 0.714876 0
649 1 0.291008 0.702756 0
648 1 0.289052 0.727828 0
679 1 0.313963 0.73349 0
650 1 0.317755 0.709279 0
651 1 0.343757 0.720198 0
653 1 0.362547 0.701719 0
624 1 0.387454 0.708973 0
654 1 0.370078 0.72669 0
685 1 0.396834 0.733003 0
655 1 0.4126 0.714064 0
656 1 0.437934 0.720112 0
686 1 0.42041 0.73878 0
658 1 0.455922 0.70132 0
687 1 0.461744 0.726167 0
659 1 0.478815 0.707779 0
689 1 0.486257 0.733129 0
662 1 0.01903 0.749961 0
693 1 0.0280731 0.771857 0
664 1 0.0434577 0.752027 0
695 1 0.0695253 0.755106 0
694 1 0.0528803 0.774411 0
696 1 0.0770512 0.779999 0
697 1 0.0944756 0.761702 0
668 1 0.113921 0.745844 0
698 1 0.118598 0.770306 0
699 1 0.138595 0.75506 0
701 1 0.16251 0.763544 0
700 1 0.143333 0.779293 0
672 1 0.181546 0.748424 0
702 1 0.185509 0.772878 0
674 1 0.226704 0.745326 0
703 1 0.205316 0.758161 0
705 1 0.229011 0.769939 0
677 1 0.267509 0.739436 0
676 1 0.249638 0.755986 0
707 1 0.275037 0.762074 0
678 1 0.298895 0.752693 0
709 1 0.295998 0.777421 0
680 1 0.319486 0.767303 0
681 1 0.332266 0.747981 0
652 1 0.356497 0.746936 0
682 1 0.361451 0.772608 0
683 1 0.379844 0.751897 0
713 1 0.385106 0.776445 0
684 1 0.403217 0.75883 0
716 1 0.409768 0.782102 0
717 1 0.444482 0.744706 0
715 1 0.427489 0.763399 0
718 1 0.45264 0.769661 0
690 1 0.491784 0.757518 0
688 1 0.467922 0.750302 0
719 1 0.475609 0.774993 0
1591 1 0.499779 0.781991 0
692 1 0.010372 0.789534 0
722 1 0.0168649 0.813844 0
723 1 0.0344935 0.795134 0
724 1 0.0421904 0.818578 0
725 1 0.0592189 0.798489 0
726 1 0.0827587 0.804621 0
755 1 0.0671818 0.822989 0
727 1 0.100455 0.788124 0
728 1 0.125033 0.796007 0
757 1 0.106393 0.812756 0
759 1 0.129903 0.820717 0
729 1 0.148803 0.803716 0
730 1 0.176742 0.812296 0
731 1 0.16768 0.789243 0
704 1 0.208833 0.782944 0
732 1 0.202558 0.806301 0
733 1 0.227048 0.79902 0
734 1 0.22193 0.822779 0
735 1 0.248425 0.785357 0
736 1 0.245166 0.816122 0
737 1 0.268727 0.809772 0
706 1 0.272979 0.786016 0
710 1 0.315769 0.793299 0
708 1 0.292233 0.801271 0
739 1 0.311551 0.817697 0
738 1 0.288228 0.825049 0
711 1 0.339467 0.783613 0
712 1 0.361317 0.799287 0
741 1 0.335395 0.80818 0
742 1 0.353392 0.825023 0
714 1 0.392613 0.800028 0
743 1 0.376304 0.818173 0
745 1 0.400521 0.825174 0
746 1 0.417674 0.806149 0
747 1 0.433778 0.788199 0
748 1 0.441553 0.813098 0
749 1 0.458949 0.79418 0
720 1 0.482104 0.799403 0
750 1 0.465517 0.818451 0
1621 1 0.489492 0.82441 0
752 1 0.00648401 0.850668 0
753 1 0.0260821 0.836765 0
783 1 0.0295782 0.861828 0
754 1 0.0498327 0.841312 0
785 1 0.0732935 0.847777 0
784 1 0.0544557 0.864958 0
756 1 0.0903688 0.831182 0
758 1 0.114837 0.839612 0
787 1 0.0966384 0.855981 0
788 1 0.12058 0.863253 0
789 1 0.142537 0.849872 0
760 1 0.15369 0.827148 0
761 1 0.174077 0.839837 0
791 1 0.168338 0.86482 0
763 1 0.197082 0.830625 0
762 1 0.192283 0.85721 0
764 1 0.215428 0.849067 0
767 1 0.264159 0.833883 0
765 1 0.239802 0.841294 0
795 1 0.236154 0.866418 0
766 1 0.260055 0.858925 0
769 1 0.306666 0.841581 0
768 1 0.282929 0.849572 0
799 1 0.302004 0.866394 0
740 1 0.330326 0.833453 0
770 1 0.326694 0.857555 0
771 1 0.349018 0.848711 0
744 1 0.383548 0.843343 0
773 1 0.368438 0.864094 0
774 1 0.392155 0.867742 0
775 1 0.407121 0.848362 0
777 1 0.425358 0.831088 0
807 1 0.432735 0.854941 0
778 1 0.449673 0.836588 0
809 1 0.457114 0.862254 0
779 1 0.473476 0.844146 0
780 1 0.481312 0.86806 0
1651 1 0.497629 0.849338 0
812 1 0.0170317 0.891518 0
814 1 0.0350209 0.908698 0
813 1 0.0410807 0.884765 0
782 1 0.000442663 0.874352 0
786 1 0.0777719 0.872571 0
815 1 0.0582346 0.902119 0
816 1 0.0828047 0.896586 0
817 1 0.100927 0.880113 0
819 1 0.123508 0.888592 0
818 1 0.105625 0.906895 0
790 1 0.145358 0.875221 0
821 1 0.166119 0.889725 0
820 1 0.144272 0.899856 0
792 1 0.188255 0.881316 0
793 1 0.212897 0.873805 0
823 1 0.20948 0.898309 0
822 1 0.186206 0.905583 0
794 1 0.232671 0.890855 0
796 1 0.255551 0.883196 0
827 1 0.251368 0.907649 0
797 1 0.279762 0.874092 0
798 1 0.275801 0.899835 0
800 1 0.298596 0.890721 0
831 1 0.317922 0.906688 0
772 1 0.345469 0.873741 0
801 1 0.321306 0.881189 0
802 1 0.341097 0.89684 0
803 1 0.367182 0.888563 0
804 1 0.381384 0.908147 0
805 1 0.398917 0.891684 0
776 1 0.415407 0.873291 0
806 1 0.422139 0.89799 0
808 1 0.439157 0.879857 0
839 1 0.446415 0.904855 0
1681 1 0.488254 0.891895 0
810 1 0.46326 0.885582 0
840 1 0.470777 0.910735 0
842 1 0.00456564 0.941638 0
843 1 0.0109591 0.91692 0
844 1 0.0289519 0.933407 0
845 1 0.0529967 0.926814 0
846 1 0.0703338 0.944135 0
847 1 0.0762508 0.920321 0
875 1 0.0467273 0.95126 0
848 1 0.0940653 0.936572 0
849 1 0.117056 0.928647 0
879 1 0.112173 0.953381 0
881 1 0.135463 0.947024 0
850 1 0.140905 0.923397 0
851 1 0.164796 0.914655 0
852 1 0.158867 0.939526 0
883 1 0.177854 0.955218 0
824 1 0.205664 0.923326 0
853 1 0.183122 0.930389 0
854 1 0.201171 0.947663 0
855 1 0.225275 0.940192 0
825 1 0.22931 0.915737 0
826 1 0.247994 0.932146 0
857 1 0.268697 0.949249 0
828 1 0.271258 0.924559 0
856 1 0.245511 0.956756 0
829 1 0.295768 0.915509 0
859 1 0.29129 0.94177 0
830 1 0.313909 0.933414 0
833 1 0.358422 0.914747 0
832 1 0.335812 0.923843 0
861 1 0.33304 0.949613 0
863 1 0.356872 0.939564 0
835 1 0.404635 0.915971 0
834 1 0.382748 0.933248 0
864 1 0.393866 0.955703 0
865 1 0.410817 0.938768 0
837 1 0.428989 0.922413 0
836 1 0.434181 0.946252 0
838 1 0.452424 0.92892 0
870 1 0.459049 0.952763 0
869 1 0.477145 0.934223 0
1711 1 0.494994 0.915659 0
3 1 0.0352369 0.998909 0
872 1 0.0163219 0.982487 0
873 1 0.0223091 0.957983 0
874 1 0.0401702 0.974705 0
5 1 0.0584658 0.991354 0
876 1 0.064379 0.968121 0
7 1 0.082439 0.984677 0
877 1 0.0879287 0.960837 0
9 1 0.124337 0.99512 0
878 1 0.10687 0.977289 0
880 1 0.130419 0.970878 0
11 1 0.148354 0.987697 0
882 1 0.154084 0.963736 0
13 1 0.172496 0.980351 0
12 1 0.190816 0.99767 0
15 1 0.214423 0.988716 0
884 1 0.196075 0.973198 0
885 1 0.220862 0.96465 0
17 1 0.258005 0.998931 0
887 1 0.239569 0.980924 0
888 1 0.263215 0.974102 0
860 1 0.310719 0.959194 0
858 1 0.287109 0.966352 0
19 1 0.282236 0.990422 0
889 1 0.307977 0.984092 0
890 1 0.328556 0.999655 0
862 1 0.352691 0.963528 0
891 1 0.330678 0.974676 0
892 1 0.353802 0.990165 0
23 1 0.380301 0.997869 0
893 1 0.375255 0.973733 0
895 1 0.399705 0.98077 0
897 1 0.447669 0.994795 0
866 1 0.41708 0.963519 0
896 1 0.423625 0.987063 0
867 1 0.44108 0.969624 0
1741 1 0.483468 0.959006 0
868 1 0.466047 0.976187 0
1771 1 0.489583 0.983273 0
931 1 0.525565 0.0379965 0
901 1 0.518754 0.0149193 0
30 1 0.500755 0.0319695 0
902 1 0.543878 0.0199009 0
904 1 0.567885 0.0274447 0
906 1 0.585977 0.00836617 0
905 1 0.562345 0.00288532 0
935 1 0.590751 0.03693 0
908 1 0.607919 0.0197405 0
939 1 0.631871 0.0268225 0
909 1 0.624263 0.00316408 0
910 1 0.649483 0.010488 0
941 1 0.657417 0.0340696 0
912 1 0.674042 0.0168846 0
943 1 0.707203 0.0215265 0
942 1 0.682789 0.0408326 0
913 1 0.691883 0.000303663 0
945 1 0.732662 0.0370943 0
914 1 0.741121 0.0148639 0
916 1 0.765024 0.00722039 0
947 1 0.758742 0.031598 0
918 1 0.782629 0.0241653 0
919 1 0.806516 0.017926 0
949 1 0.800689 0.0431986 0
951 1 0.825022 0.0371202 0
920 1 0.830415 0.0122213 0
922 1 0.848835 0.0299009 0
921 1 0.85463 0.00548221 0
923 1 0.872376 0.0227002 0
924 1 0.896853 0.0157531 0
954 1 0.890459 0.0401957 0
955 1 0.914129 0.0329706 0
925 1 0.920555 0.00932577 0
926 1 0.938107 0.0267135 0
928 1 0.944453 0.00282154 0
930 1 0.986009 0.0138508 0
959 1 0.961721 0.0191921 0
960 1 0.981019 0.0378982 0
932 1 0.530996 0.0630818 0
961 1 0.513536 0.0804504 0
60 1 0.506973 0.0556122 0
933 1 0.549028 0.0447359 0
963 1 0.554828 0.0707924 0
934 1 0.572926 0.0531053 0
965 1 0.578186 0.0777775 0
937 1 0.614539 0.0443791 0
936 1 0.596443 0.0608475 0
967 1 0.620576 0.0683274 0
966 1 0.60211 0.0855169 0
938 1 0.638674 0.0509205 0
969 1 0.645344 0.0747487 0
940 1 0.663375 0.0574702 0
970 1 0.66934 0.0815538 0
971 1 0.687726 0.0647664 0
944 1 0.707677 0.0481785 0
973 1 0.710026 0.0742128 0
975 1 0.729537 0.0604767 0
974 1 0.745252 0.0809107 0
946 1 0.753414 0.0568659 0
977 1 0.771144 0.0745269 0
948 1 0.777148 0.0499409 0
979 1 0.795364 0.0671884 0
978 1 0.812244 0.0855614 0
950 1 0.819219 0.0607493 0
980 1 0.836564 0.0793706 0
981 1 0.860787 0.0726585 0
952 1 0.84319 0.0544705 0
953 1 0.866798 0.0480631 0
983 1 0.885059 0.0659396 0
984 1 0.903185 0.0825009 0
985 1 0.908307 0.057967 0
956 1 0.932117 0.0506176 0
986 1 0.927097 0.0744794 0
987 1 0.950407 0.0680443 0
957 1 0.956996 0.0438455 0
958 1 0.975244 0.0619416 0
989 1 0.993403 0.0792526 0
61 1 0.998641 0.0549937 0
988 1 0.969418 0.0861896 0
962 1 0.537464 0.0883666 0
991 1 0.519122 0.105443 0
120 1 0.50203 0.123857 0
993 1 0.542225 0.11265 0
992 1 0.525613 0.129615 0
964 1 0.560464 0.0962844 0
994 1 0.566911 0.120301 0
995 1 0.58427 0.102561 0
996 1 0.591673 0.126772 0
968 1 0.627622 0.0921545 0
997 1 0.609234 0.109776 0
998 1 0.633654 0.117963 0
999 1 0.651165 0.099728 0
1000 1 0.656829 0.124693 0
1001 1 0.674817 0.106749 0
972 1 0.692216 0.0890033 0
1002 1 0.698384 0.112914 0
1003 1 0.71727 0.0978369 0
1004 1 0.723737 0.121417 0
976 1 0.764438 0.0975044 0
1005 1 0.741342 0.105072 0
1035 1 0.75236 0.127994 0
1007 1 0.789073 0.0923953 0
1006 1 0.781701 0.117165 0
1008 1 0.806025 0.110196 0
1039 1 0.824735 0.127638 0
1009 1 0.830228 0.103266 0
1010 1 0.84899 0.121438 0
1011 1 0.854718 0.0968137 0
982 1 0.879048 0.0895539 0
1012 1 0.873459 0.114413 0
1013 1 0.898708 0.105336 0
1016 1 0.916291 0.123379 0
1017 1 0.945533 0.0918477 0
1015 1 0.922399 0.0987878 0
1047 1 0.940563 0.116284 0
1018 1 0.964207 0.110597 0
1019 1 0.98769 0.103056 0
1020 1 0.982892 0.127511 0
1022 1 0.531767 0.155309 0
1021 1 0.508116 0.148125 0
1051 1 0.513684 0.171877 0
1023 1 0.549609 0.136884 0
1024 1 0.555384 0.161232 0
1025 1 0.573709 0.144319 0
1055 1 0.579458 0.16828 0
1027 1 0.615498 0.134906 0
1026 1 0.597492 0.150764 0
1028 1 0.620897 0.159046 0
1029 1 0.639057 0.141391 0
1059 1 0.645008 0.165977 0
1030 1 0.66279 0.147971 0
1061 1 0.66932 0.171842 0
1031 1 0.681279 0.131332 0
1032 1 0.687468 0.154664 0
1033 1 0.7066 0.138913 0
1063 1 0.71254 0.162586 0
1034 1 0.730579 0.145074 0
1036 1 0.754502 0.15352 0
1065 1 0.737255 0.170472 0
1067 1 0.776375 0.141825 0
1037 1 0.80022 0.134225 0
1038 1 0.794238 0.159583 0
1040 1 0.817846 0.151216 0
1071 1 0.83776 0.169882 0
1041 1 0.842814 0.1458 0
1042 1 0.86229 0.16245 0
1014 1 0.892144 0.130807 0
1043 1 0.867489 0.138559 0
1044 1 0.887069 0.155691 0
1075 1 0.905008 0.172715 0
1045 1 0.910918 0.148273 0
1046 1 0.934491 0.140986 0
1048 1 0.952684 0.157895 0
1077 1 0.929123 0.165613 0
1049 1 0.958453 0.133866 0
1050 1 0.976882 0.15111 0
151 1 0.99502 0.168293 0
1053 1 0.53772 0.179412 0
1052 1 0.5205 0.197522 0
1083 1 0.544644 0.204079 0
1081 1 0.502928 0.215112 0
1054 1 0.561721 0.185595 0
1056 1 0.58561 0.192795 0
1085 1 0.568487 0.211361 0
1057 1 0.60346 0.17613 0
1058 1 0.627403 0.183908 0
1087 1 0.610017 0.202059 0
1089 1 0.633513 0.208296 0
1060 1 0.651947 0.191102 0
1091 1 0.6756 0.196582 0
1090 1 0.657286 0.21509 0
1062 1 0.693595 0.17943 0
1093 1 0.699332 0.203506 0
1064 1 0.718226 0.186627 0
1094 1 0.72419 0.210842 0
1066 1 0.764101 0.176881 0
1095 1 0.74366 0.193457 0
1097 1 0.767219 0.201627 0
1069 1 0.813469 0.17565 0
1068 1 0.7899 0.184759 0
1098 1 0.789223 0.209483 0
1099 1 0.811092 0.199757 0
1070 1 0.834277 0.194639 0
1072 1 0.857537 0.186666 0
1101 1 0.851763 0.211922 0
1073 1 0.880842 0.179685 0
1103 1 0.876011 0.204093 0
1074 1 0.899297 0.197517 0
1105 1 0.917892 0.214682 0
1078 1 0.947972 0.183089 0
1076 1 0.923246 0.190186 0
1107 1 0.941505 0.207156 0
1079 1 0.97053 0.17482 0
1109 1 0.965202 0.199992 0
181 1 0.989175 0.192395 0
1110 1 0.984411 0.21756 0
1082 1 0.527239 0.221973 0
1111 1 0.509127 0.240145 0
1113 1 0.534102 0.246246 0
1084 1 0.550977 0.228668 0
1114 1 0.557539 0.253646 0
1115 1 0.573836 0.236087 0
1116 1 0.581419 0.260415 0
1086 1 0.591782 0.219062 0
1088 1 0.616621 0.225383 0
1117 1 0.598678 0.242021 0
1118 1 0.62222 0.250662 0
1119 1 0.640144 0.232363 0
1121 1 0.663809 0.23934 0
1120 1 0.646795 0.257104 0
1092 1 0.681633 0.220851 0
1122 1 0.688682 0.244322 0
1123 1 0.707147 0.228428 0
1124 1 0.713176 0.252542 0
1125 1 0.730964 0.235113 0
1096 1 0.747976 0.217914 0
1126 1 0.75496 0.242777 0
1127 1 0.772627 0.226249 0
1155 1 0.737229 0.259404 0
1129 1 0.79837 0.232386 0
1128 1 0.780621 0.249103 0
1159 1 0.803289 0.257194 0
1100 1 0.827754 0.217977 0
1130 1 0.822474 0.242086 0
1131 1 0.846149 0.235822 0
1132 1 0.862384 0.254644 0
1102 1 0.869724 0.228944 0
1104 1 0.893647 0.222171 0
1133 1 0.887088 0.245975 0
1135 1 0.911655 0.239275 0
1136 1 0.929707 0.255011 0
1106 1 0.93526 0.231586 0
1137 1 0.953768 0.248562 0
1108 1 0.959666 0.224211 0
1139 1 0.977478 0.241309 0
1169 1 0.995456 0.257832 0
1112 1 0.515013 0.264008 0