ITEM: TIMESTEP
80000
ITEM: NUMBER OF ATOMS
1800
ITEM: BOX BOUNDS pp pp pp
1.1881838970974883e+00 1.6381181610289991e+02
1.1881838970974883e+00 1.6381181610289991e+02
0.0000000000000000e+00 5.5000000000000000e+00
ITEM: ATOMS id type xs ys zs
2 1 0.0118643 0.00669622 0
33 1 0.0296567 0.0240095 0
31 1 0.00587116 0.0313395 0
4 1 0.0544134 0.0170744 0
6 1 0.0781094 0.00996471 0
35 1 0.0721134 0.0343159 0
34 1 0.0482978 0.041519 0
8 1 0.101645 0.0036389 0
37 1 0.0955954 0.0272523 0
39 1 0.119838 0.0206717 0
40 1 0.138307 0.0381549 0
10 1 0.143147 0.0134449 0
41 1 0.167374 0.00621278 0
42 1 0.16202 0.0303411 0
43 1 0.185302 0.0235544 0
14 1 0.208438 0.0146061 0
44 1 0.203337 0.0404214 0
45 1 0.2268 0.0315082 0
16 1 0.251043 0.023468 0
886 1 0.233367 0.00653603 0
46 1 0.269748 0.0393861 0
18 1 0.276476 0.0158847 0
49 1 0.295271 0.0323795 0
20 1 0.300265 0.00810624 0
51 1 0.319752 0.0248113 0
22 1 0.342603 0.032546 0
21 1 0.360941 0.0159863 0
24 1 0.384421 0.0222539 0
53 1 0.366808 0.0400473 0
894 1 0.402822 0.00421541 0
25 1 0.409105 0.0285399 0
26 1 0.433937 0.0353107 0
27 1 0.427178 0.0111051 0
898 1 0.452638 0.0187602 0
29 1 0.476225 0.0268987 0
900 1 0.49451 0.00776594 0
28 1 0.458321 0.0432319 0
899 1 0.470675 0.00152483 0
32 1 0.0245885 0.0485307 0
62 1 0.017853 0.0728973 0
63 1 0.0418436 0.0664273 0
61 1 -3.74727e-05 0.0558932 0
65 1 0.0654861 0.0583852 0
66 1 0.0844709 0.0754305 0
64 1 0.0599792 0.0825306 0
36 1 0.0900446 0.0510908 0
38 1 0.114159 0.0448602 0
67 1 0.108646 0.0685409 0
69 1 0.132314 0.0626219 0
71 1 0.156485 0.0549327 0
72 1 0.174365 0.072424 0
70 1 0.150209 0.0794854 0
73 1 0.180396 0.0484035 0
74 1 0.221793 0.0554363 0
103 1 0.198107 0.0644722 0
105 1 0.21616 0.080546 0
75 1 0.245588 0.0473023 0
77 1 0.264504 0.0637838 0
76 1 0.240147 0.072246 0
47 1 0.288271 0.0556164 0
48 1 0.307607 0.0718326 0
78 1 0.284704 0.0808432 0
50 1 0.32303 0.0499339 0
81 1 0.332598 0.0747859 0
52 1 0.348842 0.0566871 0
82 1 0.356903 0.0816744 0
55 1 0.393141 0.0465311 0
83 1 0.374588 0.0635386 0
54 1 0.399001 0.0721137 0
57 1 0.440914 0.0600537 0
85 1 0.423718 0.0775473 0
56 1 0.416979 0.0541074 0
87 1 0.447252 0.0853346 0
59 1 0.483347 0.049966 0
58 1 0.464967 0.0676685 0
89 1 0.488934 0.0749114 0
990 1 0.0124235 0.0968989 0
92 1 0.0293501 0.114148 0
93 1 0.035998 0.0899381 0
91 1 0.00536036 0.120997 0
94 1 0.05337 0.107668 0
95 1 0.0777961 0.100109 0
125 1 0.0709037 0.125174 0
68 1 0.126047 0.0861228 0
96 1 0.0955292 0.117917 0
97 1 0.101704 0.0926851 0
98 1 0.119149 0.110393 0
99 1 0.144179 0.103464 0
100 1 0.167672 0.0969119 0
130 1 0.162283 0.121526 0
129 1 0.137615 0.127876 0
101 1 0.191963 0.0890372 0
131 1 0.186174 0.114412 0
102 1 0.2101 0.105071 0
133 1 0.204263 0.131214 0
104 1 0.227456 0.120954 0
106 1 0.235032 0.0968271 0
137 1 0.259651 0.0883416 0
135 1 0.252395 0.11367 0
107 1 0.276762 0.105891 0
109 1 0.300765 0.112203 0
79 1 0.317402 0.093626 0
80 1 0.340813 0.100675 0
110 1 0.324512 0.118467 0
141 1 0.34795 0.124521 0
113 1 0.380409 0.0880178 0
111 1 0.363698 0.106822 0
84 1 0.406289 0.0951671 0
112 1 0.388934 0.112812 0
115 1 0.412711 0.120162 0
86 1 0.430559 0.102873 0
116 1 0.436781 0.127052 0
117 1 0.454615 0.109836 0
88 1 0.471609 0.0929403 0
90 1 0.495502 0.0988662 0
119 1 0.478451 0.116909 0
122 1 0.0236573 0.139021 0
153 1 0.04094 0.156841 0
152 1 0.0172562 0.163118 0
123 1 0.0471027 0.13195 0
124 1 0.0648946 0.148908 0
155 1 0.0838742 0.16623 0
126 1 0.0899158 0.141193 0
127 1 0.113064 0.134472 0
128 1 0.131389 0.152132 0
157 1 0.107727 0.159275 0
159 1 0.155844 0.14625 0
132 1 0.18004 0.138645 0
161 1 0.174178 0.162787 0
160 1 0.149989 0.170379 0
163 1 0.199188 0.156353 0
134 1 0.223205 0.148627 0
193 1 0.218784 0.173295 0
136 1 0.266021 0.147787 0
165 1 0.244888 0.137225 0
167 1 0.271454 0.171422 0
164 1 0.244738 0.162891 0
108 1 0.282965 0.12998 0
139 1 0.307018 0.136188 0
138 1 0.289284 0.153821 0
169 1 0.313078 0.159754 0
140 1 0.331068 0.143317 0
142 1 0.354678 0.149792 0
171 1 0.336276 0.167228 0
172 1 0.360347 0.173525 0
143 1 0.371577 0.131498 0
114 1 0.394598 0.137482 0
173 1 0.377719 0.15585 0
144 1 0.401567 0.16184 0
145 1 0.418079 0.144392 0
146 1 0.425817 0.170287 0
147 1 0.443141 0.15199 0
118 1 0.460663 0.134132 0
149 1 0.484878 0.140995 0
148 1 0.467356 0.159082 0
150 1 0.490692 0.165813 0
183 1 0.0352938 0.180673 0
182 1 0.0293143 0.204036 0
1080 1 0.0103766 0.186748 0
211 1 0.00509176 0.210872 0
154 1 0.0600698 0.173206 0
184 1 0.0538558 0.197452 0
185 1 0.0778375 0.190372 0
215 1 0.071884 0.215159 0
158 1 0.125602 0.176243 0
186 1 0.0956228 0.208591 0
156 1 0.1018 0.18402 0
187 1 0.120167 0.200667 0
189 1 0.14463 0.194133 0
191 1 0.169253 0.18745 0
190 1 0.163105 0.210265 0
221 1 0.188761 0.204441 0
162 1 0.193022 0.179801 0
192 1 0.212631 0.197054 0
195 1 0.235686 0.20456 0
166 1 0.252054 0.187416 0
196 1 0.25961 0.210771 0
168 1 0.296202 0.177441 0
197 1 0.277325 0.194375 0
199 1 0.301128 0.20307 0
170 1 0.319439 0.184915 0
201 1 0.342126 0.191472 0
200 1 0.325248 0.209563 0
202 1 0.349501 0.215811 0
203 1 0.366757 0.197465 0
174 1 0.385591 0.180234 0
204 1 0.389711 0.204921 0
175 1 0.408719 0.187342 0
177 1 0.449339 0.176066 0
205 1 0.413617 0.211873 0
176 1 0.432599 0.194288 0
178 1 0.455269 0.200943 0
179 1 0.473119 0.183838 0
180 1 0.497426 0.189718 0
209 1 0.479458 0.208476 0
212 1 0.0237124 0.228466 0
243 1 0.0428604 0.245722 0
241 1 0.019406 0.252018 0
213 1 0.0478884 0.221205 0
214 1 0.0666556 0.240086 0
245 1 0.0859123 0.257274 0
216 1 0.0910352 0.23414 0
217 1 0.11422 0.224372 0
218 1 0.132356 0.240052 0
247 1 0.110082 0.251285 0
188 1 0.139025 0.217188 0
219 1 0.158062 0.242969 0
220 1 0.178047 0.228363 0
222 1 0.181285 0.25352 0
223 1 0.200577 0.237523 0
194 1 0.217416 0.220968 0
224 1 0.224709 0.245591 0
225 1 0.241887 0.228012 0
227 1 0.265733 0.235494 0
226 1 0.247619 0.252642 0
257 1 0.271221 0.259886 0
198 1 0.282664 0.218428 0
228 1 0.288974 0.24345 0
229 1 0.306817 0.225606 0
230 1 0.312547 0.250276 0
231 1 0.330423 0.233 0
232 1 0.354847 0.240112 0
261 1 0.336447 0.257171 0
233 1 0.372569 0.223756 0
234 1 0.378304 0.247514 0
235 1 0.396373 0.228971 0
265 1 0.402548 0.254405 0
207 1 0.437624 0.218382 0
206 1 0.419756 0.236212 0
237 1 0.442794 0.243446 0
236 1 0.425439 0.261713 0
208 1 0.46079 0.225965 0
210 1 0.484369 0.232529 0
239 1 0.466663 0.250705 0
240 1 0.489893 0.257096 0
242 1 0.037083 0.270107 0
271 1 0.0294827 0.294016 0
1170 1 0.0122858 0.276382 0
1200 1 0.00670408 0.30212 0
273 1 0.0540156 0.288275 0
244 1 0.0609356 0.264341 0
275 1 0.0786533 0.28099 0
246 1 0.102823 0.290633 0
248 1 0.12169 0.274356 0
279 1 0.126686 0.300286 0
249 1 0.142143 0.261758 0
251 1 0.164117 0.270619 0
250 1 0.146117 0.286206 0
281 1 0.168394 0.294873 0
253 1 0.206134 0.261579 0
252 1 0.187572 0.277367 0
254 1 0.210081 0.286741 0
283 1 0.191478 0.303012 0
255 1 0.229356 0.269938 0
256 1 0.252345 0.277315 0
285 1 0.232624 0.293649 0
287 1 0.256335 0.302581 0
259 1 0.294951 0.267201 0
258 1 0.275681 0.285219 0
289 1 0.299489 0.291681 0
260 1 0.317571 0.275448 0
263 1 0.360552 0.264587 0
262 1 0.341654 0.281779 0
291 1 0.323148 0.298709 0
293 1 0.366276 0.288973 0
264 1 0.383666 0.27223 0
295 1 0.389189 0.296942 0
266 1 0.407784 0.278937 0
238 1 0.449389 0.268086 0
267 1 0.431606 0.285426 0
297 1 0.41406 0.303422 0
268 1 0.455694 0.292264 0
1141 1 0.496567 0.281456 0
269 1 0.473009 0.274681 0
270 1 0.479153 0.298966 0
301 1 0.0231883 0.322031 0
1230 1 0.00247727 0.337278 0
272 1 0.0448743 0.311593 0
276 1 0.0842085 0.306199 0
303 1 0.0454147 0.336095 0
274 1 0.0655742 0.32225 0
305 1 0.0884023 0.330867 0
304 1 0.0687599 0.347072 0
277 1 0.107815 0.31486 0
278 1 0.130642 0.325991 0
307 1 0.111372 0.340134 0
280 1 0.150164 0.311104 0
311 1 0.154828 0.336064 0
282 1 0.173446 0.320276 0
312 1 0.177381 0.345218 0
284 1 0.215267 0.311472 0
313 1 0.196337 0.328372 0
315 1 0.220836 0.336377 0
286 1 0.238654 0.319007 0
317 1 0.261824 0.327671 0
316 1 0.243936 0.344362 0
288 1 0.280426 0.309216 0
318 1 0.285938 0.333842 0
290 1 0.304509 0.315469 0
319 1 0.310288 0.34051 0
292 1 0.347607 0.306552 0
321 1 0.329058 0.323288 0
323 1 0.353471 0.331435 0
324 1 0.378111 0.337653 0
294 1 0.371547 0.313734 0
325 1 0.402278 0.344606 0
296 1 0.395591 0.32123 0
298 1 0.438056 0.310171 0
327 1 0.419779 0.327759 0
328 1 0.44441 0.334675 0
329 1 0.468009 0.342806 0
299 1 0.462259 0.317149 0
300 1 0.485636 0.325334 0
302 1 0.0246424 0.348476 0
332 1 0.0273668 0.373703 0
331 1 0.00323521 0.362567 0
361 1 0.00775792 0.388086 0
333 1 0.0474644 0.360585 0
335 1 0.071937 0.371439 0
334 1 0.0510918 0.384549 0
306 1 0.0918779 0.356007 0
337 1 0.0950143 0.38123 0
308 1 0.115312 0.365875 0
309 1 0.135159 0.350255 0
338 1 0.11768 0.389648 0
339 1 0.139237 0.375843 0
310 1 0.158736 0.360363 0
341 1 0.162119 0.385167 0
343 1 0.182407 0.370089 0
314 1 0.201402 0.353262 0
344 1 0.205971 0.378341 0
345 1 0.225061 0.361003 0
375 1 0.230974 0.386276 0
347 1 0.269555 0.351552 0
346 1 0.250746 0.368488 0
377 1 0.275355 0.374902 0
349 1 0.293072 0.358112 0
348 1 0.298832 0.382131 0
350 1 0.317266 0.364636 0
320 1 0.33422 0.347549 0
322 1 0.359573 0.3542 0
351 1 0.342228 0.370827 0
381 1 0.324574 0.388116 0
353 1 0.365645 0.378646 0
355 1 0.383889 0.361806 0
354 1 0.390407 0.386539 0
356 1 0.408275 0.369477 0
326 1 0.426674 0.352496 0
357 1 0.432726 0.377901 0
359 1 0.450485 0.360158 0
1201 1 0.492612 0.349724 0
358 1 0.456174 0.38498 0
330 1 0.473928 0.368751 0
1231 1 0.498683 0.374312 0
360 1 0.481376 0.392354 0
363 1 0.0311729 0.399005 0
362 1 0.0109483 0.412938 0
364 1 0.0337946 0.423889 0
336 1 0.0748794 0.396309 0
365 1 0.0549386 0.409973 0
366 1 0.0780568 0.420739 0
367 1 0.0974697 0.405659 0
369 1 0.120506 0.414836 0
368 1 0.100234 0.429831 0
340 1 0.141383 0.399657 0
370 1 0.143496 0.423777 0
371 1 0.164506 0.410164 0
401 1 0.166668 0.434858 0
342 1 0.18507 0.394515 0
372 1 0.188018 0.419572 0
373 1 0.20976 0.401882 0
403 1 0.21145 0.426835 0
374 1 0.233713 0.412414 0
376 1 0.254539 0.393107 0
405 1 0.259488 0.416679 0
378 1 0.281082 0.400295 0
379 1 0.307805 0.405522 0
409 1 0.291331 0.422274 0
410 1 0.313842 0.430119 0
352 1 0.348802 0.395936 0
382 1 0.355321 0.421067 0
380 1 0.331704 0.413247 0
383 1 0.372302 0.403924 0
385 1 0.396425 0.411152 0
384 1 0.378422 0.428402 0
387 1 0.414635 0.393728 0
386 1 0.420351 0.418738 0
388 1 0.438329 0.401727 0
419 1 0.443469 0.427044 0
389 1 0.462214 0.410132 0
1261 1 0.487211 0.416928 0
390 1 0.468669 0.43364 0
393 1 0.0143159 0.438178 0
423 1 0.0167195 0.463973 0
394 1 0.0367403 0.448388 0
425 1 0.0391511 0.474947 0
395 1 0.0574577 0.434695 0
396 1 0.0602662 0.459972 0
397 1 0.0803034 0.44582 0
427 1 0.0827067 0.470369 0
399 1 0.122579 0.440253 0
398 1 0.102586 0.456279 0
429 1 0.125911 0.464637 0
400 1 0.146347 0.449249 0
431 1 0.169291 0.459251 0
430 1 0.148823 0.474133 0
402 1 0.189486 0.443683 0
433 1 0.211352 0.453104 0
432 1 0.191772 0.469618 0
404 1 0.233362 0.437407 0
406 1 0.253511 0.451787 0
435 1 0.233171 0.464758 0
407 1 0.272428 0.43756 0
436 1 0.256416 0.477053 0
437 1 0.276519 0.461984 0
408 1 0.295227 0.446597 0
439 1 0.299602 0.470685 0
441 1 0.318505 0.453977 0
413 1 0.360558 0.44588 0
411 1 0.337242 0.437692 0
412 1 0.342993 0.462255 0
415 1 0.401886 0.435319 0
414 1 0.384086 0.452738 0
443 1 0.366383 0.470791 0
416 1 0.407848 0.461517 0
445 1 0.389923 0.479001 0
417 1 0.425323 0.444253 0
418 1 0.451498 0.451129 0
447 1 0.432289 0.468826 0
1291 1 0.4947 0.440953 0
420 1 0.475941 0.457937 0
449 1 0.457158 0.475594 0
1321 1 0.500348 0.464862 0
454 1 0.0222028 0.515073 0
424 1 0.0186355 0.489392 0
455 1 0.0418599 0.499774 0
426 1 0.0624779 0.484944 0
456 1 0.064052 0.510466 0
457 1 0.0851898 0.495034 0
487 1 0.087953 0.519439 0
428 1 0.10634 0.480635 0
459 1 0.128869 0.489438 0
458 1 0.109669 0.505064 0
489 1 0.131774 0.513883 0
461 1 0.172121 0.485035 0
460 1 0.15122 0.498616 0
462 1 0.174361 0.509977 0
434 1 0.214112 0.480315 0
463 1 0.194499 0.495389 0
464 1 0.21667 0.505955 0
493 1 0.196344 0.520996 0
465 1 0.236583 0.490662 0
467 1 0.260066 0.500834 0
466 1 0.23921 0.516263 0
438 1 0.280025 0.486402 0
469 1 0.303289 0.494694 0
468 1 0.282243 0.510011 0
470 1 0.307268 0.518555 0
442 1 0.347097 0.487103 0
440 1 0.323042 0.478377 0
471 1 0.326836 0.502439 0
473 1 0.3512 0.511133 0
444 1 0.372005 0.49745 0
475 1 0.395594 0.503715 0
446 1 0.414473 0.486339 0
477 1 0.419658 0.510492 0
448 1 0.438739 0.492447 0
478 1 0.444051 0.518728 0
450 1 0.481421 0.482941 0
479 1 0.462589 0.500943 0
1381 1 0.487625 0.507174 0
452 1 0.00211285 0.53041 0
483 1 0.0250696 0.539524 0
482 1 0.00404031 0.554365 0
485 1 0.0448437 0.524553 0
513 1 0.0272767 0.564479 0
484 1 0.0478627 0.549582 0
486 1 0.0689523 0.534799 0
515 1 0.0705601 0.559635 0
517 1 0.0907027 0.545256 0
488 1 0.110443 0.529905 0
519 1 0.112811 0.554617 0
490 1 0.133923 0.540008 0
491 1 0.154369 0.525105 0
521 1 0.156447 0.550569 0
492 1 0.176287 0.535496 0
523 1 0.179015 0.560008 0
494 1 0.199053 0.545838 0
495 1 0.218964 0.531865 0
525 1 0.222259 0.556326 0
496 1 0.242748 0.540609 0
497 1 0.26302 0.525735 0
527 1 0.267013 0.550407 0
499 1 0.309378 0.541897 0
498 1 0.285282 0.534498 0
529 1 0.289069 0.55831 0
472 1 0.329729 0.527193 0
501 1 0.331203 0.55199 0
502 1 0.352883 0.56114 0
503 1 0.353391 0.536396 0
474 1 0.376974 0.521142 0
505 1 0.385812 0.54545 0
476 1 0.402612 0.527801 0
507 1 0.426176 0.53616 0
506 1 0.408663 0.554041 0
508 1 0.434446 0.562021 0
509 1 0.451631 0.542701 0
480 1 0.47009 0.525119 0
510 1 0.476011 0.548783 0
1382 1 0.494327 0.531059 0
512 1 0.0297422 0.58927 0
511 1 0.00732713 0.578742 0
541 1 0.00962854 0.602476 0
514 1 0.0503749 0.57402 0
545 1 0.0724137 0.585203 0
543 1 0.0531008 0.600069 0
516 1 0.0930247 0.569795 0
518 1 0.115565 0.579657 0
547 1 0.095951 0.596244 0
548 1 0.118591 0.605594 0
520 1 0.136162 0.565396 0
549 1 0.138243 0.58998 0
522 1 0.158597 0.575273 0
551 1 0.161497 0.600789 0
553 1 0.182208 0.585492 0
524 1 0.202317 0.570406 0
554 1 0.204395 0.595507 0
555 1 0.224958 0.580369 0
556 1 0.227234 0.604573 0
526 1 0.245483 0.565112 0
557 1 0.247897 0.589972 0
528 1 0.26852 0.57414 0
558 1 0.270541 0.599321 0
500 1 0.311163 0.567765 0
559 1 0.291884 0.583307 0
530 1 0.313861 0.593584 0
531 1 0.33412 0.57748 0
532 1 0.337436 0.602217 0
533 1 0.357338 0.586187 0
504 1 0.375583 0.568517 0
534 1 0.37989 0.594063 0
535 1 0.39757 0.576614 0
536 1 0.402062 0.602606 0
537 1 0.420256 0.582999 0
567 1 0.425809 0.607499 0
538 1 0.443431 0.587892 0
539 1 0.459199 0.568559 0
540 1 0.482945 0.573093 0
569 1 0.467169 0.593817 0
1441 1 0.490492 0.599286 0
542 1 0.0328027 0.61399 0
571 1 0.011474 0.626668 0
573 1 0.0343962 0.639699 0
544 1 0.0555175 0.625057 0
546 1 0.0757815 0.610169 0
575 1 0.0771268 0.635532 0
574 1 0.0580613 0.650523 0
577 1 0.0982451 0.621832 0
579 1 0.12086 0.631661 0
576 1 0.100741 0.646595 0
550 1 0.141597 0.616153 0
581 1 0.164258 0.625637 0
580 1 0.144376 0.641127 0
611 1 0.16776 0.650756 0
552 1 0.183723 0.610405 0
582 1 0.186122 0.635953 0
583 1 0.206906 0.620958 0
584 1 0.210162 0.645324 0
585 1 0.230111 0.629257 0
586 1 0.25377 0.639361 0
587 1 0.249737 0.614653 0
560 1 0.293036 0.6083 0
589 1 0.273702 0.624102 0
590 1 0.29836 0.633878 0
588 1 0.277782 0.648311 0
561 1 0.319154 0.619384 0
563 1 0.361093 0.610568 0
562 1 0.342439 0.627116 0
591 1 0.32317 0.643415 0
565 1 0.383696 0.620637 0
564 1 0.364576 0.637168 0
595 1 0.389667 0.64472 0
566 1 0.407887 0.62655 0
568 1 0.449429 0.612215 0
596 1 0.41379 0.650619 0
597 1 0.431822 0.632081 0
570 1 0.473184 0.618596 0
600 1 0.4556 0.636695 0
1471 1 0.481175 0.64269 0
1442 1 0.496803 0.624511 0
572 1 0.0135104 0.652167 0
602 1 0.0155361 0.676617 0
603 1 0.0372195 0.663954 0
633 1 0.0385794 0.68904 0
605 1 0.080207 0.660959 0
604 1 0.0592724 0.675341 0
606 1 0.0823574 0.685992 0
578 1 0.123939 0.656272 0
607 1 0.10347 0.67285 0
608 1 0.126631 0.680926 0
609 1 0.146634 0.665707 0
610 1 0.169757 0.676054 0
639 1 0.149252 0.691302 0
612 1 0.194013 0.685141 0
613 1 0.190138 0.660431 0
614 1 0.213787 0.670249 0
643 1 0.217856 0.694518 0
615 1 0.233533 0.6544 0
616 1 0.238097 0.679537 0
617 1 0.257691 0.66355 0
647 1 0.261526 0.687946 0
619 1 0.303948 0.658697 0
618 1 0.281403 0.673256 0
620 1 0.306617 0.683625 0
593 1 0.345743 0.65278 0
621 1 0.327029 0.670099 0
592 1 0.35294 0.678062 0
594 1 0.371561 0.661928 0
625 1 0.395602 0.669157 0
623 1 0.378134 0.686323 0
626 1 0.403608 0.69199 0
599 1 0.438801 0.655771 0
598 1 0.446165 0.680943 0
627 1 0.42195 0.674788 0
628 1 0.469832 0.685985 0
629 1 0.462814 0.661101 0
1501 1 0.487279 0.667114 0
630 1 0.494321 0.690806 0
632 1 0.0171117 0.700393 0
663 1 0.0195022 0.723991 0
634 1 0.0426598 0.715283 0
635 1 0.0631861 0.701219 0
636 1 0.0854447 0.711934 0
665 1 0.065307 0.729035 0
666 1 0.0888191 0.736656 0
637 1 0.106091 0.696361 0
638 1 0.129341 0.706627 0
667 1 0.10969 0.721992 0
669 1 0.13381 0.731766 0
641 1 0.173318 0.701118 0
640 1 0.153096 0.715579 0
671 1 0.177989 0.725157 0
642 1 0.198342 0.710096 0
673 1 0.201366 0.734344 0
644 1 0.221963 0.71871 0
645 1 0.242206 0.704261 0
675 1 0.24586 0.729292 0
646 1 0.265886 0.713074 0
677 1 0.268707 0.737301 0
649 1 0.286021 0.696941 0
648 1 0.290199 0.721018 0
679 1 0.311524 0.731268 0
650 1 0.312217 0.707314 0
622 1 0.334547 0.696444 0
651 1 0.342525 0.723239 0
653 1 0.360285 0.703836 0
624 1 0.386464 0.710866 0
654 1 0.368611 0.728515 0
685 1 0.393723 0.73317 0
657 1 0.428722 0.698004 0
655 1 0.412661 0.716666 0
656 1 0.436022 0.722423 0
658 1 0.453465 0.704084 0
687 1 0.462335 0.72787 0
659 1 0.47863 0.709361 0
689 1 0.486311 0.734459 0
662 1 0.023083 0.747412 0
693 1 0.0271266 0.770254 0
691 1 0.00290249 0.762713 0
664 1 0.0474979 0.747186 0
695 1 0.0716249 0.754609 0
694 1 0.0523194 0.772088 0
696 1 0.0769647 0.779951 0
697 1 0.094595 0.762475 0
668 1 0.114291 0.747137 0
698 1 0.119639 0.771462 0
670 1 0.158344 0.739956 0
699 1 0.138509 0.755508 0
701 1 0.162367 0.764359 0
700 1 0.144309 0.779813 0
672 1 0.182479 0.750357 0
702 1 0.185968 0.774878 0
674 1 0.225287 0.743365 0
703 1 0.206662 0.760588 0
705 1 0.229441 0.773106 0
676 1 0.247215 0.75585 0
707 1 0.272041 0.76108 0
678 1 0.293032 0.747867 0
709 1 0.2927 0.773868 0
680 1 0.314088 0.763399 0
681 1 0.330898 0.746106 0
652 1 0.354685 0.74735 0
682 1 0.360995 0.770706 0
711 1 0.336123 0.774305 0
683 1 0.37881 0.752394 0
713 1 0.384757 0.776628 0
684 1 0.402242 0.75745 0
686 1 0.418536 0.739566 0
717 1 0.445035 0.745042 0
715 1 0.427593 0.763542 0
718 1 0.451718 0.768467 0
716 1 0.409935 0.781694 0
690 1 0.493166 0.758603 0
688 1 0.47005 0.751948 0
719 1 0.475573 0.775762 0
692 1 0.00832222 0.78736 0
722 1 0.0161177 0.81051 0
723 1 0.0337088 0.793045 0
724 1 0.0417405 0.815667 0
725 1 0.0585666 0.797079 0
726 1 0.0832297 0.804082 0
755 1 0.0656107 0.821702 0
727 1 0.100479 0.786823 0
728 1 0.124939 0.795571 0
757 1 0.106877 0.812134 0
759 1 0.129874 0.821029 0
729 1 0.147615 0.804732 0
730 1 0.175667 0.817129 0
731 1 0.167476 0.79053 0
704 1 0.207974 0.785119 0
732 1 0.201387 0.810124 0
733 1 0.225952 0.801283 0
734 1 0.22195 0.825727 0
735 1 0.247456 0.791154 0
736 1 0.245482 0.816652 0
737 1 0.268479 0.809218 0
706 1 0.270767 0.785462 0
710 1 0.314983 0.787111 0
708 1 0.292196 0.798962 0
739 1 0.312054 0.812768 0
738 1 0.287544 0.824522 0
712 1 0.362925 0.796712 0
741 1 0.335074 0.802558 0
742 1 0.353353 0.818917 0
714 1 0.392589 0.799804 0
743 1 0.377428 0.818313 0
745 1 0.401256 0.824471 0
746 1 0.417189 0.805891 0
747 1 0.434044 0.78695 0
748 1 0.442174 0.812005 0
749 1 0.458455 0.793323 0
720 1 0.484574 0.799461 0
750 1 0.46693 0.817202 0
1621 1 0.491572 0.824358 0
752 1 0.00352746 0.849214 0
753 1 0.0227991 0.834027 0
783 1 0.0253846 0.860864 0
754 1 0.048003 0.838856 0
785 1 0.0717162 0.845932 0
784 1 0.0518906 0.862764 0
756 1 0.0891445 0.828509 0
758 1 0.112574 0.837742 0
787 1 0.0943439 0.854639 0
788 1 0.118196 0.862366 0
789 1 0.137879 0.846678 0
760 1 0.153379 0.828208 0
761 1 0.174294 0.841991 0
791 1 0.168169 0.866485 0
763 1 0.19864 0.834426 0
762 1 0.194069 0.858836 0
764 1 0.218067 0.85082 0
767 1 0.264155 0.833611 0
765 1 0.24043 0.841838 0
795 1 0.238623 0.866093 0
766 1 0.261604 0.857855 0
769 1 0.30825 0.838855 0
768 1 0.284862 0.848759 0
799 1 0.305284 0.864504 0
740 1 0.331706 0.829526 0
770 1 0.327879 0.853595 0
771 1 0.35128 0.845127 0
744 1 0.382295 0.842276 0
773 1 0.367548 0.863373 0
774 1 0.390898 0.866239 0
775 1 0.407683 0.84888 0
777 1 0.425582 0.829846 0
807 1 0.432613 0.854221 0
778 1 0.449841 0.835769 0
809 1 0.456673 0.860069 0
779 1 0.473614 0.841642 0
780 1 0.480651 0.86643 0
1651 1 0.497744 0.84819 0
812 1 0.0168114 0.892775 0
814 1 0.0353532 0.908936 0
813 1 0.0385381 0.88319 0
786 1 0.0755404 0.870531 0
815 1 0.0579512 0.900356 0
816 1 0.0814349 0.894547 0
817 1 0.0994358 0.878219 0
819 1 0.122079 0.888078 0
818 1 0.103261 0.90628 0
790 1 0.142649 0.872069 0
821 1 0.167526 0.890951 0
820 1 0.14346 0.898959 0
792 1 0.190875 0.882499 0
793 1 0.214175 0.874847 0
823 1 0.211496 0.899354 0
822 1 0.188317 0.907163 0
794 1 0.233809 0.890773 0
796 1 0.257058 0.882382 0
827 1 0.252644 0.907446 0
797 1 0.280801 0.873886 0
798 1 0.27578 0.898879 0
800 1 0.299015 0.889052 0
831 1 0.317028 0.906158 0
772 1 0.344982 0.871781 0
801 1 0.322074 0.881738 0
802 1 0.340772 0.897732 0
803 1 0.364753 0.889426 0
804 1 0.381429 0.906669 0
805 1 0.39837 0.889911 0
776 1 0.415586 0.872 0
806 1 0.422447 0.895955 0
808 1 0.439358 0.877748 0
839 1 0.445845 0.902084 0
1681 1 0.48731 0.890744 0
810 1 0.463201 0.884442 0
840 1 0.470247 0.909992 0
842 1 0.0056078 0.940135 0
843 1 0.0103127 0.915787 0
844 1 0.0289883 0.932839 0
873 1 0.0229392 0.957801 0
845 1 0.0531001 0.92517 0
846 1 0.0709345 0.943758 0
847 1 0.0765893 0.918367 0
875 1 0.0467547 0.950388 0
848 1 0.0943536 0.935401 0
849 1 0.117685 0.927253 0
879 1 0.113004 0.953073 0
881 1 0.13725 0.947527 0
850 1 0.14227 0.923385 0
851 1 0.164585 0.914835 0
852 1 0.160518 0.938955 0
824 1 0.20737 0.923829 0
853 1 0.18301 0.931869 0
854 1 0.201841 0.948874 0
855 1 0.225351 0.941241 0
825 1 0.229122 0.916375 0
826 1 0.248343 0.932003 0
857 1 0.267499 0.948291 0
828 1 0.271577 0.923741 0
829 1 0.295008 0.915785 0
859 1 0.290548 0.940181 0
830 1 0.312923 0.931918 0
833 1 0.359575 0.91575 0
832 1 0.335866 0.922424 0
861 1 0.332066 0.948075 0
863 1 0.355986 0.941049 0
835 1 0.404184 0.914028 0
834 1 0.381784 0.930536 0
865 1 0.408112 0.938342 0
864 1 0.389427 0.953951 0
837 1 0.428579 0.920957 0
836 1 0.433935 0.944652 0
838 1 0.451932 0.926419 0
870 1 0.456986 0.950948 0
869 1 0.475279 0.933752 0
1711 1 0.493743 0.916526 0
3 1 0.0363934 0.999249 0
872 1 0.0169677 0.981942 0
874 1 0.0410376 0.974955 0
5 1 0.0600306 0.99219 0
876 1 0.0658337 0.96753 0
7 1 0.0845733 0.985938 0
877 1 0.0894915 0.960133 0
9 1 0.125944 0.99543 0
878 1 0.107399 0.977204 0
880 1 0.130596 0.971305 0
883 1 0.178498 0.956296 0
11 1 0.149698 0.988074 0
882 1 0.155347 0.964452 0
13 1 0.173219 0.981311 0
12 1 0.190913 0.997809 0
15 1 0.215248 0.989965 0
884 1 0.19717 0.973447 0
885 1 0.220213 0.965104 0
856 1 0.244286 0.957006 0
17 1 0.257731 0.999338 0
887 1 0.238537 0.982141 0
888 1 0.261282 0.974438 0
860 1 0.308401 0.958171 0
858 1 0.284277 0.966508 0
19 1 0.280643 0.99161 0
889 1 0.304511 0.982787 0
890 1 0.325223 1.00031 0
862 1 0.350102 0.965241 0
891 1 0.328306 0.975393 0
892 1 0.35391 0.990982 0
23 1 0.378363 0.997781 0
893 1 0.373322 0.974031 0
895 1 0.397644 0.980048 0
867 1 0.439794 0.968941 0
897 1 0.445342 0.993865 0
866 1 0.415918 0.962339 0
896 1 0.421688 0.986737 0
1771 1 0.48812 0.982973 0
868 1 0.463832 0.976498 0
1741 1 0.48104 0.95815 0
931 1 0.524829 0.038258 0
901 1 0.518358 0.0138271 0
30 1 0.500726 0.0315152 0
902 1 0.543248 0.0207627 0
904 1 0.567293 0.0271273 0
906 1 0.585176 0.00919301 0
905 1 0.560528 0.00281259 0
935 1 0.591743 0.0336126 0
908 1 0.609162 0.0153088 0
939 1 0.633468 0.0229231 0
937 1 0.615358 0.0401659 0
910 1 0.652652 0.00516737 0
941 1 0.656918 0.0305189 0
912 1 0.67658 0.0137797 0
942 1 0.68041 0.0393677 0
943 1 0.698758 0.0233573 0
945 1 0.722655 0.0314976 0
914 1 0.740681 0.015065 0
916 1 0.764786 0.00905181 0
947 1 0.758674 0.0322728 0
918 1 0.783113 0.0266797 0
919 1 0.806838 0.020332 0
917 1 0.788879 0.00270298 0
951 1 0.825608 0.0382306 0
920 1 0.83083 0.0140973 0
922 1 0.849269 0.031582 0
921 1 0.855301 0.00723502 0
923 1 0.873096 0.0242584 0
924 1 0.897837 0.016109 0
954 1 0.891318 0.0408851 0
955 1 0.916522 0.0335908 0
925 1 0.921923 0.00866451 0
926 1 0.940309 0.0264498 0
928 1 0.946653 0.00167949 0
930 1 0.988584 0.0133358 0
959 1 0.965555 0.0201553 0
960 1 0.982097 0.0378915 0
932 1 0.531744 0.0628408 0
961 1 0.513493 0.0811499 0
60 1 0.507757 0.0565191 0
933 1 0.549223 0.0447709 0
963 1 0.555356 0.0694602 0
934 1 0.572851 0.0514768 0
965 1 0.57874 0.0762309 0
936 1 0.596494 0.0578261 0
967 1 0.620785 0.0652944 0
966 1 0.602795 0.0828801 0
938 1 0.638995 0.0478941 0
969 1 0.644611 0.073101 0
940 1 0.662411 0.0550879 0
970 1 0.668237 0.0800876 0
971 1 0.685364 0.0636791 0
944 1 0.7047 0.0488393 0
973 1 0.709314 0.072685 0
975 1 0.7282 0.0571086 0
974 1 0.743381 0.0796148 0
946 1 0.753045 0.0566154 0
977 1 0.769947 0.073975 0
949 1 0.800848 0.0443832 0
948 1 0.776677 0.050711 0
979 1 0.794032 0.0682737 0
978 1 0.812303 0.0857962 0
950 1 0.817969 0.0623533 0
980 1 0.836481 0.0785286 0
981 1 0.860217 0.072091 0
952 1 0.843686 0.0549233 0
953 1 0.867474 0.0478351 0
983 1 0.884886 0.0653894 0
984 1 0.903422 0.0814379 0
985 1 0.909527 0.0579756 0
956 1 0.93414 0.0503733 0
986 1 0.928027 0.0750653 0
987 1 0.951642 0.0682767 0
957 1 0.958302 0.0443634 0
958 1 0.975273 0.0628175 0
989 1 0.992838 0.0798276 0
988 1 0.969297 0.0873705 0
962 1 0.53758 0.0873654 0
991 1 0.519843 0.105073 0
120 1 0.502162 0.122122 0
993 1 0.543639 0.111563 0
964 1 0.561528 0.0937774 0
994 1 0.568145 0.119594 0
995 1 0.584833 0.100661 0
996 1 0.591737 0.126276 0
968 1 0.626955 0.0903133 0
997 1 0.608808 0.107937 0
998 1 0.633729 0.115787 0
999 1 0.651504 0.0984417 0
1000 1 0.656745 0.123834 0
1001 1 0.674527 0.106086 0
972 1 0.691321 0.0881341 0
1002 1 0.697954 0.112015 0
1003 1 0.71744 0.0960247 0
1004 1 0.722597 0.120317 0
976 1 0.764 0.097698 0
1005 1 0.740419 0.103784 0
1035 1 0.752732 0.126212 0
1007 1 0.788621 0.0930154 0
1006 1 0.78068 0.117107 0
1008 1 0.805972 0.110557 0
1039 1 0.824741 0.127625 0
1009 1 0.830341 0.102676 0
1010 1 0.848677 0.119899 0
1011 1 0.854298 0.0961706 0
982 1 0.878612 0.0889582 0
1012 1 0.873325 0.112277 0
1013 1 0.897126 0.105509 0
1016 1 0.914071 0.123777 0
1017 1 0.944688 0.093256 0
1015 1 0.920295 0.0987686 0
1047 1 0.938632 0.117331 0
1018 1 0.963189 0.111041 0
1019 1 0.988007 0.103949 0
1020 1 0.981168 0.12742 0
992 1 0.525663 0.129136 0
1022 1 0.531136 0.153928 0
1021 1 0.508631 0.147449 0
1051 1 0.514965 0.172069 0
1023 1 0.549408 0.136473 0
1024 1 0.555558 0.161052 0
1025 1 0.573963 0.143267 0
1055 1 0.580163 0.167353 0
1027 1 0.616141 0.132363 0
1026 1 0.598428 0.149667 0
1028 1 0.621524 0.158472 0
1029 1 0.63883 0.14128 0
1059 1 0.644732 0.165132 0
1030 1 0.662518 0.147329 0
1061 1 0.668547 0.172069 0
1031 1 0.680006 0.130976 0
1032 1 0.686239 0.155024 0
1033 1 0.704964 0.136458 0
1063 1 0.711193 0.160827 0
1034 1 0.729405 0.14427 0
1036 1 0.753588 0.150581 0
1065 1 0.73462 0.168306 0
1066 1 0.761919 0.174786 0
1067 1 0.776156 0.141959 0
1037 1 0.799737 0.134755 0
1038 1 0.795302 0.158799 0
1040 1 0.819041 0.151139 0
1071 1 0.837665 0.168627 0
1041 1 0.843916 0.144238 0
1042 1 0.860753 0.161207 0
1014 1 0.890914 0.130069 0
1043 1 0.866487 0.136368 0
1044 1 0.885302 0.155051 0
1075 1 0.903873 0.17313 0
1045 1 0.909471 0.148219 0
1046 1 0.932599 0.141205 0
1048 1 0.951512 0.158902 0
1077 1 0.927533 0.165565 0
1049 1 0.956721 0.134399 0
1050 1 0.97502 0.151874 0
151 1 0.992361 0.168954 0
121 1 0.999159 0.144631 0
1053 1 0.538202 0.178354 0
1052 1 0.521386 0.19666 0
1083 1 0.545104 0.203888 0
1081 1 0.503226 0.214613 0
1054 1 0.562002 0.186572 0
1056 1 0.586331 0.192716 0
1085 1 0.568456 0.211821 0
1057 1 0.603537 0.17486 0
1058 1 0.627271 0.183097 0
1087 1 0.6095 0.200004 0
1089 1 0.633457 0.207469 0
1060 1 0.650061 0.189677 0
1091 1 0.674751 0.195337 0
1090 1 0.658251 0.213479 0
1062 1 0.692691 0.178383 0
1093 1 0.69871 0.202884 0
1064 1 0.717011 0.185294 0
1094 1 0.723216 0.209853 0
1095 1 0.741378 0.191961 0
1097 1 0.764227 0.199618 0
1096 1 0.746516 0.216714 0
1069 1 0.813121 0.17666 0
1068 1 0.78669 0.183008 0
1098 1 0.78641 0.207447 0
1099 1 0.809632 0.200839 0
1070 1 0.832538 0.193787 0
1072 1 0.855818 0.185558 0
1101 1 0.849992 0.211571 0
1073 1 0.880507 0.179568 0
1103 1 0.8735 0.203186 0
1074 1 0.897229 0.197953 0
1105 1 0.914414 0.214775 0
1078 1 0.944708 0.18307 0
1076 1 0.920795 0.190804 0
1107 1 0.939147 0.207623 0
1079 1 0.968614 0.176022 0
1109 1 0.962652 0.200728 0
181 1 0.986489 0.193391 0
1082 1 0.527241 0.220462 0
1111 1 0.508288 0.238486 0
1113 1 0.532763 0.244578 0
1084 1 0.5513 0.228845 0
1114 1 0.556808 0.252863 0
1115 1 0.5751 0.235812 0
1086 1 0.59223 0.218359 0
1088 1 0.615641 0.224476 0
1117 1 0.598285 0.241974 0
1118 1 0.622277 0.248357 0
1119 1 0.640188 0.230973 0
1121 1 0.664414 0.238436 0
1120 1 0.645474 0.255427 0
1092 1 0.681455 0.220402 0
1122 1 0.687796 0.244737 0
1123 1 0.705001 0.226928 0
1124 1 0.711812 0.250777 0
1125 1 0.729231 0.233777 0
1126 1 0.75207 0.24139 0
1127 1 0.769697 0.224324 0
1155 1 0.735161 0.257823 0
1129 1 0.797969 0.229574 0
1128 1 0.776993 0.246574 0
1159 1 0.799784 0.254419 0
1100 1 0.82553 0.219217 0
1130 1 0.820602 0.242784 0
1131 1 0.844111 0.236364 0
1132 1 0.860339 0.25479 0
1102 1 0.86749 0.228966 0
1104 1 0.890212 0.222162 0
1133 1 0.884656 0.247091 0
1135 1 0.909464 0.239507 0
1136 1 0.928642 0.256541 0
1106 1 0.93287 0.231688 0
1137 1 0.951441 0.249276 0
1110 1 0.981449 0.218107 0
1108 1 0.957146 0.224454 0
1139 1 0.976135 0.243326 0
1169 1 0.994626 0.258697 0
1140 1 0.99956 0.234981 0
1112 1 0.514727 0.262638 0
1142 1 0.520947 0.287616 0
1143 1 0.53892 0.270568 0