ITEM: TIMESTEP
82000
ITEM: NUMBER OF ATOMS
1800
ITEM: BOX BOUNDS pp pp pp
1.1577888633189275e+00 1.6384221113667911e+02
1.1577888633189275e+00 1.6384221113667911e+02
0.0000000000000000e+00 5.5000000000000000e+00
ITEM: ATOMS id type xs ys zs
2 1 0.0117777 0.00657574 0
33 1 0.0292008 0.0244669 0
31 1 0.00645248 0.0302392 0
3 1 0.0356721 -0.000694417 0
4 1 0.0526259 0.0164701 0
6 1 0.0764742 0.0105239 0
35 1 0.0700893 0.0346496 0
34 1 0.0471876 0.0416589 0
8 1 0.100506 0.00329669 0
37 1 0.0953843 0.0271756 0
39 1 0.118949 0.0195777 0
40 1 0.136571 0.0365531 0
10 1 0.142397 0.0120575 0
41 1 0.165984 0.00483646 0
42 1 0.159515 0.0288309 0
43 1 0.184233 0.021729 0
14 1 0.208206 0.0142244 0
44 1 0.203143 0.0388831 0
45 1 0.22758 0.0310356 0
16 1 0.251151 0.0231523 0
886 1 0.232942 0.00651828 0
46 1 0.269162 0.0401124 0
18 1 0.275366 0.0154981 0
49 1 0.294167 0.0327557 0
20 1 0.300692 0.00724496 0
51 1 0.318676 0.025385 0
22 1 0.342959 0.0319983 0
21 1 0.360915 0.01299 0
24 1 0.384785 0.022395 0
53 1 0.367919 0.0385684 0
894 1 0.403781 0.00412015 0
25 1 0.41049 0.027188 0
26 1 0.434761 0.0348286 0
27 1 0.428773 0.0106124 0
898 1 0.452909 0.0175159 0
29 1 0.476983 0.0250692 0
900 1 0.494581 0.00587357 0
28 1 0.459033 0.0414922 0
32 1 0.0229162 0.0484907 0
62 1 0.018045 0.0719979 0
63 1 0.0420524 0.0662179 0
61 1 -7.24745e-05 0.054784 0
65 1 0.0652416 0.0587539 0
66 1 0.0841361 0.0764928 0
64 1 0.0602776 0.0827191 0
36 1 0.0895792 0.0514634 0
38 1 0.113313 0.0444926 0
67 1 0.107924 0.0684508 0
69 1 0.131282 0.0610555 0
71 1 0.154994 0.0533111 0
72 1 0.173899 0.0699851 0
70 1 0.149078 0.0777798 0
73 1 0.17956 0.0453372 0
74 1 0.221344 0.0553647 0
103 1 0.197663 0.0627491 0
105 1 0.215372 0.0799381 0
75 1 0.245345 0.0479119 0
77 1 0.264024 0.0650025 0
76 1 0.239413 0.0726181 0
47 1 0.287281 0.0558568 0
48 1 0.309253 0.0677201 0
78 1 0.286703 0.0803241 0
50 1 0.327107 0.0504819 0
81 1 0.333123 0.0747388 0
52 1 0.351682 0.0566832 0
82 1 0.358444 0.0811866 0
55 1 0.393229 0.0461208 0
83 1 0.375382 0.0627742 0
54 1 0.399631 0.0702945 0
57 1 0.441076 0.0592193 0
85 1 0.423448 0.0776474 0
56 1 0.417281 0.0524258 0
87 1 0.447886 0.0842573 0
59 1 0.483747 0.0492425 0
58 1 0.465516 0.0658626 0
89 1 0.489707 0.0739925 0
990 1 0.011921 0.0971771 0
92 1 0.0304456 0.114564 0
93 1 0.0365359 0.0897436 0
91 1 0.00670929 0.121359 0
94 1 0.054129 0.108164 0
95 1 0.0781758 0.100788 0
125 1 0.0712954 0.12478 0
68 1 0.125311 0.0855221 0
96 1 0.0959943 0.118265 0
97 1 0.101874 0.0931972 0
98 1 0.120314 0.110476 0
99 1 0.144052 0.101744 0
100 1 0.167214 0.0942528 0
130 1 0.163363 0.119401 0
129 1 0.139414 0.126992 0
101 1 0.191359 0.0866229 0
131 1 0.186665 0.111513 0
102 1 0.210222 0.103584 0
133 1 0.204778 0.129601 0
104 1 0.227693 0.120741 0
106 1 0.234349 0.0969731 0
137 1 0.257423 0.088976 0
135 1 0.25383 0.114175 0
107 1 0.276487 0.10334 0
109 1 0.299447 0.110933 0
79 1 0.316344 0.0919437 0
108 1 0.281493 0.129334 0
80 1 0.34136 0.0990482 0
110 1 0.322781 0.116764 0
141 1 0.347205 0.123667 0
113 1 0.382603 0.0887536 0
111 1 0.364096 0.106621 0
84 1 0.407058 0.0959922 0
112 1 0.388442 0.112915 0
115 1 0.411982 0.120771 0
86 1 0.430427 0.102656 0
116 1 0.436491 0.126461 0
117 1 0.454186 0.109489 0
88 1 0.471551 0.0907979 0
90 1 0.496404 0.098548 0
119 1 0.478601 0.115505 0
122 1 0.0234445 0.139587 0
153 1 0.0417779 0.156452 0
152 1 0.0185249 0.163865 0
123 1 0.0474095 0.131904 0
124 1 0.0659984 0.148317 0
155 1 0.0845876 0.166029 0
126 1 0.0904139 0.141702 0
154 1 0.0605448 0.172969 0
127 1 0.114897 0.135005 0
128 1 0.133222 0.151172 0
157 1 0.108723 0.158574 0
159 1 0.157266 0.144215 0
132 1 0.180904 0.136497 0
161 1 0.175139 0.160942 0
160 1 0.150765 0.168446 0
163 1 0.198844 0.154145 0
134 1 0.222503 0.147255 0
193 1 0.218906 0.171813 0
136 1 0.265645 0.147598 0
165 1 0.244461 0.137611 0
167 1 0.271415 0.171393 0
164 1 0.244007 0.163483 0
139 1 0.306293 0.135451 0
138 1 0.289676 0.153004 0
169 1 0.313051 0.159547 0
140 1 0.329746 0.141611 0
142 1 0.353521 0.148385 0
171 1 0.336252 0.166387 0
172 1 0.359428 0.17416 0
143 1 0.371597 0.131036 0
114 1 0.394217 0.138372 0
173 1 0.377128 0.15609 0
144 1 0.401426 0.162785 0
145 1 0.418753 0.143817 0
146 1 0.424754 0.170088 0
147 1 0.443321 0.151516 0
118 1 0.461556 0.134295 0
149 1 0.484529 0.140267 0
148 1 0.466556 0.158413 0
150 1 0.489591 0.165804 0
183 1 0.0362179 0.180769 0
182 1 0.0309531 0.203867 0
1080 1 0.0115913 0.187102 0
211 1 0.00665981 0.211245 0
184 1 0.0548666 0.197353 0
185 1 0.0783099 0.189602 0
215 1 0.0716684 0.214934 0
158 1 0.12662 0.175349 0
186 1 0.0955635 0.206431 0
156 1 0.101958 0.182667 0
187 1 0.119981 0.199101 0
189 1 0.14467 0.192198 0
191 1 0.168449 0.185928 0
190 1 0.161881 0.209175 0
188 1 0.137342 0.215899 0
221 1 0.18679 0.204324 0
162 1 0.193167 0.178428 0
192 1 0.210617 0.196145 0
195 1 0.233696 0.203559 0
166 1 0.251652 0.186938 0
196 1 0.257375 0.209857 0
168 1 0.295573 0.176893 0
197 1 0.276729 0.195045 0
199 1 0.300378 0.201826 0
170 1 0.318768 0.183916 0
201 1 0.342019 0.1913 0
200 1 0.323463 0.208629 0
202 1 0.34777 0.215282 0
203 1 0.366228 0.198238 0
174 1 0.383912 0.180387 0
204 1 0.389724 0.20597 0
175 1 0.407078 0.187847 0
177 1 0.448365 0.176163 0
205 1 0.412525 0.211828 0
176 1 0.431642 0.194464 0
178 1 0.455853 0.200917 0
179 1 0.471974 0.182864 0
180 1 0.495021 0.190758 0
209 1 0.478335 0.208777 0
212 1 0.0250046 0.228688 0
243 1 0.0431415 0.246434 0
241 1 0.0188984 0.252492 0
1140 1 0.000717993 0.235967 0
213 1 0.0483051 0.221939 0
214 1 0.0671511 0.238826 0
245 1 0.0851345 0.25634 0
216 1 0.0912864 0.231803 0
217 1 0.113602 0.222715 0
218 1 0.131893 0.239226 0
247 1 0.109507 0.24927 0
219 1 0.157231 0.244659 0
220 1 0.176143 0.228577 0
222 1 0.181063 0.253241 0
223 1 0.198988 0.237462 0
194 1 0.215643 0.219948 0
224 1 0.223167 0.244256 0
225 1 0.240686 0.227572 0
227 1 0.263575 0.236324 0
226 1 0.246319 0.253727 0
198 1 0.281874 0.21865 0
228 1 0.287665 0.242917 0
229 1 0.305608 0.226078 0
230 1 0.311235 0.25001 0
231 1 0.329466 0.232194 0
232 1 0.353234 0.24047 0
261 1 0.336203 0.257062 0
233 1 0.372088 0.222539 0
234 1 0.378329 0.247688 0
235 1 0.396138 0.230625 0
265 1 0.403258 0.254546 0
207 1 0.437128 0.218334 0
206 1 0.420279 0.23612 0
237 1 0.444244 0.243212 0
208 1 0.460926 0.225527 0
210 1 0.484429 0.232224 0
239 1 0.467547 0.249752 0
240 1 0.490269 0.258247 0
242 1 0.0362476 0.269782 0
271 1 0.0288799 0.29353 0
1170 1 0.0120556 0.276683 0
1200 1 0.00676851 0.302446 0
273 1 0.0538219 0.287335 0
244 1 0.0610372 0.263952 0
275 1 0.0803324 0.281475 0
246 1 0.102821 0.29206 0
248 1 0.120184 0.275115 0
279 1 0.126001 0.301386 0
249 1 0.139678 0.26193 0
251 1 0.163597 0.269767 0
250 1 0.144571 0.286102 0
281 1 0.169288 0.294348 0
253 1 0.205723 0.261381 0
252 1 0.187001 0.278283 0
254 1 0.21075 0.28709 0
283 1 0.192199 0.303506 0
257 1 0.270409 0.26008 0
255 1 0.228857 0.269886 0
256 1 0.252281 0.277358 0
285 1 0.234308 0.29524 0
287 1 0.258031 0.302179 0
259 1 0.294535 0.267462 0
258 1 0.276391 0.285511 0
289 1 0.301804 0.292811 0
260 1 0.318318 0.275753 0
263 1 0.359961 0.264954 0
262 1 0.342683 0.282785 0
291 1 0.326021 0.300905 0
293 1 0.367129 0.288798 0
264 1 0.384794 0.272365 0
295 1 0.390441 0.29688 0
266 1 0.409034 0.278781 0
236 1 0.426616 0.260637 0
238 1 0.450022 0.268536 0
267 1 0.43333 0.286239 0
297 1 0.415831 0.303635 0
268 1 0.456874 0.293123 0
1141 1 0.497485 0.282503 0
269 1 0.473643 0.276275 0
270 1 0.479942 0.301089 0
301 1 0.0224906 0.32321 0
1230 1 0.00188599 0.337184 0
272 1 0.0455496 0.310642 0
303 1 0.044167 0.335514 0
276 1 0.0833993 0.30661 0
274 1 0.065732 0.323139 0
305 1 0.0880392 0.332249 0
304 1 0.0683837 0.347002 0
277 1 0.106755 0.316481 0
278 1 0.130708 0.326578 0
307 1 0.111048 0.3417 0
280 1 0.149448 0.309766 0
311 1 0.153586 0.334668 0
282 1 0.173038 0.31969 0
312 1 0.177372 0.343286 0
284 1 0.215579 0.311462 0
313 1 0.19767 0.328291 0
315 1 0.221049 0.33716 0
286 1 0.239329 0.320458 0
317 1 0.263965 0.326207 0
316 1 0.244894 0.343479 0
288 1 0.282935 0.309422 0
318 1 0.288272 0.333941 0
290 1 0.30725 0.317434 0
319 1 0.313346 0.341587 0
292 1 0.349903 0.307544 0
321 1 0.331854 0.325984 0
323 1 0.355393 0.332173 0
324 1 0.380454 0.338727 0
294 1 0.373813 0.314739 0
325 1 0.404173 0.345651 0
296 1 0.3976 0.321048 0
298 1 0.439208 0.310298 0
327 1 0.421042 0.328114 0
328 1 0.44542 0.335669 0
329 1 0.468643 0.342867 0
299 1 0.461844 0.318176 0
300 1 0.485927 0.325905 0
302 1 0.0242136 0.348618 0
332 1 0.0260744 0.37321 0
331 1 0.00259555 0.362217 0
361 1 0.0061417 0.388087 0
333 1 0.0471876 0.359562 0
335 1 0.071282 0.371474 0
334 1 0.0498342 0.383795 0
306 1 0.0912221 0.356652 0
337 1 0.0948242 0.380644 0
308 1 0.114647 0.365878 0
309 1 0.134021 0.350529 0
338 1 0.117861 0.390159 0
339 1 0.138136 0.374647 0
310 1 0.15771 0.358844 0
341 1 0.1617 0.383049 0
343 1 0.180949 0.368244 0
314 1 0.200864 0.352637 0
344 1 0.205769 0.377921 0
345 1 0.225117 0.362286 0
375 1 0.230349 0.386731 0
347 1 0.270423 0.351224 0
346 1 0.250313 0.367976 0
377 1 0.275066 0.375181 0
349 1 0.294177 0.358046 0
348 1 0.298771 0.382019 0
320 1 0.337347 0.350168 0
350 1 0.318309 0.366308 0
322 1 0.363035 0.35594 0
351 1 0.346209 0.373364 0
381 1 0.327878 0.389377 0
353 1 0.369517 0.381633 0
355 1 0.386682 0.363791 0
354 1 0.393603 0.388571 0
356 1 0.410864 0.37128 0
326 1 0.428107 0.353408 0
357 1 0.434338 0.378871 0
359 1 0.452189 0.361357 0
1201 1 0.493443 0.349214 0
358 1 0.459277 0.385498 0
330 1 0.47656 0.366965 0
1231 1 0.500392 0.373394 0
363 1 0.0298457 0.39738 0
362 1 0.0105055 0.412699 0
364 1 0.0331437 0.423091 0
336 1 0.0733678 0.395117 0
365 1 0.0532614 0.408892 0
366 1 0.077376 0.419192 0
395 1 0.0562812 0.43289 0
367 1 0.0972428 0.405297 0
369 1 0.120578 0.414944 0
368 1 0.100662 0.429698 0
340 1 0.140797 0.399178 0
370 1 0.143693 0.424104 0
371 1 0.163708 0.408155 0
401 1 0.166227 0.433993 0
342 1 0.184698 0.392898 0
372 1 0.186959 0.417957 0
373 1 0.209265 0.403069 0
403 1 0.209149 0.428094 0
374 1 0.233018 0.41392 0
376 1 0.255756 0.391623 0
405 1 0.257541 0.415452 0
378 1 0.280188 0.399529 0
379 1 0.308728 0.404668 0
409 1 0.289956 0.420265 0
410 1 0.313595 0.428 0
352 1 0.352742 0.398251 0
382 1 0.356692 0.422266 0
380 1 0.333352 0.413272 0
383 1 0.375942 0.406031 0
385 1 0.398807 0.414069 0
384 1 0.380591 0.43056 0
387 1 0.416746 0.396145 0
386 1 0.423376 0.421214 0
388 1 0.440875 0.403227 0
419 1 0.446714 0.428528 0
360 1 0.483551 0.392512 0
389 1 0.464814 0.410481 0
1261 1 0.489024 0.417189 0
393 1 0.0138216 0.438589 0
423 1 0.0169304 0.462479 0
394 1 0.037098 0.447799 0
425 1 0.0406117 0.472881 0
396 1 0.0603212 0.457986 0
397 1 0.0801794 0.443759 0
427 1 0.0825462 0.468242 0
399 1 0.123913 0.439025 0
398 1 0.103626 0.455036 0
429 1 0.125609 0.46381 0
400 1 0.146522 0.448617 0
431 1 0.168345 0.459457 0
430 1 0.148105 0.473144 0
402 1 0.188197 0.443686 0
433 1 0.210709 0.453907 0
432 1 0.190879 0.469506 0
404 1 0.230854 0.439905 0
406 1 0.25302 0.449736 0
435 1 0.233036 0.464911 0
407 1 0.272706 0.435532 0
436 1 0.256547 0.474768 0
437 1 0.276301 0.460139 0
408 1 0.295098 0.444008 0
439 1 0.298796 0.468784 0
441 1 0.317969 0.452547 0
413 1 0.36108 0.447647 0
411 1 0.337416 0.437671 0
412 1 0.340936 0.462827 0
440 1 0.322756 0.479436 0
415 1 0.405474 0.43846 0
414 1 0.385445 0.45594 0
443 1 0.365852 0.472987 0
416 1 0.409342 0.464309 0
417 1 0.427995 0.446644 0
418 1 0.452155 0.453499 0
447 1 0.434167 0.471567 0
390 1 0.470435 0.434805 0
1291 1 0.494345 0.443536 0
420 1 0.477002 0.460732 0
449 1 0.459243 0.479403 0
454 1 0.0238062 0.513247 0
424 1 0.0199026 0.487599 0
455 1 0.0431009 0.498906 0
426 1 0.0630416 0.483577 0
456 1 0.0655607 0.508349 0
457 1 0.085898 0.494637 0
487 1 0.0874666 0.520437 0
428 1 0.105383 0.479838 0
459 1 0.128187 0.49052 0
458 1 0.108636 0.505597 0
489 1 0.13054 0.515062 0
461 1 0.170251 0.484981 0
460 1 0.149408 0.49985 0
462 1 0.172912 0.509518 0
434 1 0.213977 0.480469 0
463 1 0.193493 0.494536 0
464 1 0.216339 0.50446 0
493 1 0.195989 0.51882 0
465 1 0.236566 0.489136 0
467 1 0.259729 0.498783 0
466 1 0.23963 0.513513 0
438 1 0.279602 0.485363 0
469 1 0.303811 0.493703 0
468 1 0.282431 0.508822 0
470 1 0.306035 0.519758 0
442 1 0.346419 0.488373 0
471 1 0.326744 0.504522 0
473 1 0.351269 0.512141 0
445 1 0.390997 0.480951 0
444 1 0.371435 0.496901 0
475 1 0.396082 0.505607 0
474 1 0.375402 0.522212 0
446 1 0.414881 0.489114 0
477 1 0.419486 0.51478 0
448 1 0.43943 0.497117 0
478 1 0.444841 0.521488 0
450 1 0.482704 0.485645 0
479 1 0.46417 0.503715 0
1381 1 0.488451 0.509946 0
452 1 0.00248428 0.528352 0
483 1 0.025594 0.53815 0
482 1 0.00485317 0.552794 0
513 1 0.0277267 0.563249 0
485 1 0.0457679 0.523485 0
484 1 0.0476372 0.548597 0
486 1 0.0685493 0.534948 0
515 1 0.0695488 0.559469 0
517 1 0.0907127 0.545055 0
488 1 0.110449 0.529779 0
519 1 0.113772 0.555042 0
490 1 0.133599 0.540203 0
491 1 0.153423 0.524907 0
521 1 0.156797 0.549993 0
492 1 0.175758 0.533909 0
523 1 0.179282 0.559137 0
520 1 0.137426 0.564778 0
494 1 0.19868 0.543939 0
495 1 0.218765 0.52871 0
525 1 0.22127 0.553311 0
496 1 0.240885 0.538753 0
497 1 0.261209 0.523857 0
527 1 0.264067 0.548032 0
526 1 0.244248 0.563658 0
499 1 0.306667 0.543649 0
498 1 0.284147 0.533542 0
529 1 0.286465 0.557756 0
472 1 0.331284 0.52912 0
501 1 0.328569 0.553349 0
502 1 0.350491 0.562012 0
503 1 0.355119 0.537718 0
505 1 0.378904 0.546251 0
476 1 0.398103 0.530371 0
506 1 0.407541 0.55482 0
507 1 0.425578 0.538522 0
508 1 0.434827 0.562177 0
509 1 0.451925 0.544453 0
480 1 0.470362 0.527107 0
510 1 0.475303 0.551363 0
1382 1 0.494778 0.53505 0
512 1 0.030471 0.589053 0
511 1 0.00752796 0.577581 0
541 1 0.00987407 0.602026 0
514 1 0.049818 0.573075 0
545 1 0.0729233 0.58438 0
543 1 0.0532754 0.599276 0
516 1 0.0935994 0.569347 0
518 1 0.116633 0.579498 0
547 1 0.0966841 0.595252 0
548 1 0.119405 0.60519 0
549 1 0.139019 0.589985 0
522 1 0.159682 0.575574 0
551 1 0.163015 0.599773 0
553 1 0.18293 0.584851 0
524 1 0.202254 0.569851 0
554 1 0.205192 0.594912 0
555 1 0.224474 0.578584 0
556 1 0.227934 0.604152 0
557 1 0.247605 0.589136 0
528 1 0.267748 0.572685 0
558 1 0.27132 0.599279 0
500 1 0.308962 0.569126 0
559 1 0.290664 0.583988 0
530 1 0.312699 0.594149 0
560 1 0.294102 0.610021 0
531 1 0.332392 0.579691 0
532 1 0.335703 0.603578 0
533 1 0.354573 0.586981 0
504 1 0.373457 0.570679 0
534 1 0.377932 0.594538 0
535 1 0.396452 0.577763 0
536 1 0.402402 0.600695 0
537 1 0.42027 0.581673 0
567 1 0.42593 0.606424 0
538 1 0.442997 0.588471 0
539 1 0.458088 0.569597 0
540 1 0.482902 0.575533 0
569 1 0.466432 0.594312 0
1441 1 0.490882 0.600548 0
542 1 0.0331448 0.614709 0
571 1 0.0120399 0.626462 0
573 1 0.0360579 0.639864 0
572 1 0.0143347 0.651857 0
544 1 0.0565249 0.624468 0
546 1 0.0770316 0.609446 0
575 1 0.0799693 0.634512 0
574 1 0.0594819 0.649759 0
577 1 0.100022 0.620484 0
579 1 0.122938 0.630672 0
576 1 0.102171 0.645347 0
550 1 0.142616 0.615135 0
581 1 0.165274 0.625081 0
580 1 0.144918 0.640844 0
611 1 0.169296 0.650184 0
552 1 0.184887 0.60973 0
582 1 0.1883 0.634879 0
583 1 0.20836 0.619664 0
584 1 0.211808 0.643958 0
585 1 0.231702 0.628462 0
586 1 0.255057 0.639798 0
587 1 0.250938 0.613726 0
589 1 0.274941 0.623889 0
590 1 0.298023 0.635324 0
588 1 0.278204 0.649038 0
561 1 0.317469 0.619989 0
563 1 0.359696 0.611689 0
562 1 0.341255 0.627536 0
591 1 0.321541 0.64582 0
565 1 0.383775 0.618428 0
564 1 0.364813 0.636072 0
595 1 0.389948 0.642783 0
566 1 0.40813 0.624791 0
568 1 0.449797 0.613245 0
596 1 0.414054 0.648436 0
597 1 0.432124 0.630394 0
570 1 0.473865 0.618893 0
600 1 0.456218 0.636995 0
1471 1 0.480516 0.643734 0
1442 1 0.498288 0.625113 0
602 1 0.0167994 0.676163 0
603 1 0.0390125 0.665116 0
633 1 0.0429436 0.690963 0
605 1 0.0817515 0.660572 0
604 1 0.0621756 0.675504 0
606 1 0.0844882 0.685825 0
578 1 0.125195 0.655709 0
607 1 0.104943 0.671645 0
608 1 0.129144 0.680351 0
609 1 0.148737 0.665075 0
610 1 0.172047 0.674247 0
639 1 0.151611 0.68998 0
612 1 0.195385 0.684132 0
613 1 0.192209 0.659566 0
614 1 0.215559 0.668289 0
643 1 0.218297 0.69231 0
615 1 0.234949 0.653241 0
616 1 0.237984 0.678165 0
617 1 0.258185 0.66391 0
647 1 0.260456 0.688152 0
619 1 0.302253 0.659964 0
618 1 0.280972 0.67335 0
620 1 0.306717 0.68456 0
593 1 0.345429 0.652202 0
621 1 0.326854 0.669987 0
592 1 0.351087 0.676606 0
594 1 0.370295 0.660023 0
625 1 0.394952 0.666529 0
623 1 0.377012 0.683699 0
626 1 0.40141 0.69016 0
599 1 0.438358 0.65386 0
598 1 0.445312 0.679125 0
627 1 0.419314 0.672172 0
628 1 0.469064 0.685674 0
629 1 0.46264 0.660889 0
1501 1 0.487586 0.66711 0
630 1 0.493294 0.69129 0
632 1 0.0196693 0.700829 0
663 1 0.0211473 0.725163 0
634 1 0.0446072 0.718142 0
635 1 0.0649572 0.703861 0
636 1 0.0890658 0.712886 0
665 1 0.0677731 0.73083 0
666 1 0.0924964 0.738298 0
637 1 0.108284 0.697279 0
638 1 0.131663 0.706178 0
667 1 0.112976 0.723285 0
669 1 0.135565 0.73147 0
641 1 0.17466 0.699339 0
640 1 0.155496 0.714863 0
671 1 0.177962 0.724339 0
642 1 0.1975 0.708107 0
673 1 0.20097 0.732629 0
644 1 0.220735 0.718156 0
645 1 0.239786 0.70365 0
675 1 0.24426 0.727575 0
646 1 0.26338 0.71196 0
677 1 0.266296 0.736748 0
649 1 0.28483 0.697396 0
648 1 0.286165 0.722312 0
679 1 0.308645 0.732545 0
650 1 0.307738 0.708653 0
622 1 0.331677 0.695689 0
651 1 0.343629 0.721315 0
653 1 0.359555 0.702698 0
624 1 0.384728 0.709131 0
654 1 0.366716 0.727945 0
685 1 0.393835 0.734312 0
657 1 0.42691 0.695709 0
655 1 0.409081 0.714431 0
656 1 0.434565 0.721193 0
658 1 0.450994 0.70349 0
687 1 0.4592 0.727383 0
659 1 0.476323 0.709705 0
689 1 0.484245 0.734316 0
662 1 0.022771 0.748832 0
693 1 0.0281887 0.771587 0
691 1 0.00357098 0.764585 0
664 1 0.0471168 0.745554 0
695 1 0.0708077 0.756003 0
694 1 0.0528601 0.773012 0
696 1 0.0763852 0.781392 0
697 1 0.0956949 0.764754 0
668 1 0.116388 0.747762 0
698 1 0.119819 0.773816 0
670 1 0.158738 0.740678 0
699 1 0.138633 0.757314 0
701 1 0.162545 0.765312 0
700 1 0.143817 0.781185 0
672 1 0.181482 0.749206 0
702 1 0.186728 0.773239 0
674 1 0.224009 0.742439 0
703 1 0.205043 0.757541 0
705 1 0.229173 0.769988 0
676 1 0.245793 0.752238 0
707 1 0.268896 0.760854 0
678 1 0.288937 0.747944 0
709 1 0.290637 0.772458 0
680 1 0.311212 0.758603 0
681 1 0.329793 0.743383 0
652 1 0.353536 0.748863 0
682 1 0.359015 0.772124 0
711 1 0.334779 0.767493 0
683 1 0.377754 0.752464 0
713 1 0.383731 0.778143 0
684 1 0.400908 0.758901 0
686 1 0.417965 0.740017 0
717 1 0.442226 0.745182 0
715 1 0.42596 0.763767 0
718 1 0.450039 0.769873 0
716 1 0.408941 0.782781 0
690 1 0.491117 0.759028 0
688 1 0.466328 0.751704 0
719 1 0.47399 0.776309 0
1591 1 0.499823 0.782654 0
692 1 0.00883399 0.78818 0
722 1 0.0152295 0.81206 0
723 1 0.0334782 0.794559 0
724 1 0.039593 0.81829 0
725 1 0.0577057 0.798769 0
726 1 0.0830588 0.80667 0
755 1 0.0645112 0.823534 0
727 1 0.100624 0.790366 0
728 1 0.124782 0.798397 0
757 1 0.106339 0.81452 0
759 1 0.129908 0.822271 0
729 1 0.149355 0.805352 0
730 1 0.175356 0.81614 0
731 1 0.169648 0.791559 0
704 1 0.209108 0.783173 0
732 1 0.201199 0.806661 0
733 1 0.225245 0.800574 0
734 1 0.221275 0.824558 0
735 1 0.247508 0.790226 0
736 1 0.244351 0.815621 0
737 1 0.268792 0.808901 0
706 1 0.271079 0.785313 0
710 1 0.312701 0.783664 0
708 1 0.292256 0.798588 0
739 1 0.312586 0.811562 0
738 1 0.288365 0.823679 0
741 1 0.334155 0.795922 0
742 1 0.349827 0.816448 0
712 1 0.36523 0.795594 0
714 1 0.391942 0.801108 0
743 1 0.37535 0.81899 0
745 1 0.400325 0.824175 0
746 1 0.41707 0.807067 0
747 1 0.433459 0.788021 0
748 1 0.441736 0.812708 0
749 1 0.457977 0.79516 0
720 1 0.482737 0.799935 0
750 1 0.466168 0.818247 0
1621 1 0.490152 0.824523 0
752 1 0.00424717 0.851815 0
753 1 0.0229277 0.836396 0
783 1 0.027346 0.864356 0
754 1 0.0467778 0.841148 0
785 1 0.0710021 0.848484 0
784 1 0.0525085 0.865255 0
756 1 0.0891182 0.831447 0
758 1 0.113246 0.838911 0
787 1 0.0944365 0.855114 0
788 1 0.11936 0.864383 0
789 1 0.137758 0.847281 0
760 1 0.153236 0.829172 0
761 1 0.174158 0.841592 0
791 1 0.168926 0.866277 0
763 1 0.19719 0.831407 0
762 1 0.19311 0.856679 0
764 1 0.216183 0.848738 0
767 1 0.262923 0.833326 0
765 1 0.240075 0.841212 0
795 1 0.237215 0.865909 0
766 1 0.259853 0.857856 0
769 1 0.306813 0.839419 0
768 1 0.28335 0.848336 0
799 1 0.303687 0.865475 0
740 1 0.329717 0.830167 0
770 1 0.327013 0.855632 0
771 1 0.349583 0.844385 0
744 1 0.383016 0.842354 0
773 1 0.367736 0.860646 0
774 1 0.39112 0.866485 0
775 1 0.407092 0.848066 0
777 1 0.425295 0.830766 0
807 1 0.431843 0.854414 0
778 1 0.449138 0.836904 0
809 1 0.455249 0.860567 0
779 1 0.473504 0.841643 0
780 1 0.479395 0.86705 0
1651 1 0.496944 0.848843 0
812 1 0.0176842 0.891247 0
814 1 0.035393 0.909104 0
813 1 0.0414564 0.885744 0
786 1 0.075943 0.872461 0
815 1 0.059039 0.903416 0
816 1 0.0822868 0.895792 0
817 1 0.0995229 0.878971 0
819 1 0.121119 0.89106 0
818 1 0.101601 0.910542 0
790 1 0.143938 0.87183 0
821 1 0.166931 0.889751 0
820 1 0.14409 0.897097 0
792 1 0.189814 0.880932 0
793 1 0.214098 0.873493 0
823 1 0.209956 0.898732 0
822 1 0.185849 0.906152 0
794 1 0.233131 0.891191 0
796 1 0.256433 0.883158 0
827 1 0.251423 0.907308 0
797 1 0.280345 0.874162 0
798 1 0.275529 0.899088 0
800 1 0.298726 0.890006 0
831 1 0.318041 0.905895 0
772 1 0.34577 0.872066 0
801 1 0.322156 0.881907 0
802 1 0.341242 0.897772 0
803 1 0.364063 0.887551 0
804 1 0.381508 0.906357 0
805 1 0.396836 0.889304 0
776 1 0.414399 0.872393 0
806 1 0.420635 0.896362 0
808 1 0.437707 0.879246 0
839 1 0.44419 0.902679 0
1681 1 0.486384 0.890588 0
810 1 0.461594 0.884249 0
840 1 0.468303 0.908851 0
842 1 0.00497968 0.940755 0
843 1 0.0114873 0.91584 0
844 1 0.0287202 0.93352 0
845 1 0.0525328 0.926741 0
846 1 0.0702877 0.944278 0
847 1 0.0771546 0.919555 0
875 1 0.0467658 0.951966 0
848 1 0.0935292 0.937201 0
849 1 0.116487 0.929327 0
879 1 0.11197 0.953597 0
881 1 0.135043 0.945836 0
850 1 0.139532 0.922327 0
851 1 0.162465 0.91439 0
852 1 0.157935 0.938924 0
883 1 0.176097 0.955589 0
853 1 0.181536 0.930683 0
824 1 0.205275 0.923669 0
854 1 0.199566 0.94914 0
855 1 0.223204 0.940952 0
825 1 0.228904 0.916356 0
826 1 0.247279 0.932039 0
857 1 0.266578 0.948627 0
828 1 0.27098 0.923878 0
829 1 0.294281 0.915764 0
859 1 0.290426 0.940371 0
830 1 0.31377 0.932213 0
833 1 0.359201 0.914133 0
832 1 0.336995 0.922448 0
861 1 0.333244 0.948413 0
863 1 0.358805 0.938372 0
835 1 0.403248 0.914654 0
834 1 0.382798 0.930858 0
865 1 0.407962 0.93817 0
864 1 0.390088 0.955522 0
837 1 0.427228 0.9207 0
836 1 0.432392 0.944774 0
838 1 0.450685 0.926802 0
870 1 0.457087 0.950712 0
869 1 0.474954 0.933036 0
1711 1 0.492404 0.915397 0
1712 1 0.499456 0.939556 0
873 1 0.0228928 0.957624 0
872 1 0.0174028 0.982637 0
874 1 0.0397912 0.975336 0
5 1 0.0587973 0.992547 0
876 1 0.0643407 0.967763 0
7 1 0.0830307 0.985555 0
877 1 0.0878109 0.961546 0
9 1 0.124235 0.995583 0
878 1 0.106242 0.977562 0
880 1 0.129463 0.970796 0
11 1 0.147406 0.988248 0
882 1 0.152886 0.963193 0
13 1 0.171381 0.980168 0
12 1 0.190138 0.997255 0
15 1 0.213751 0.989871 0
884 1 0.195619 0.973059 0
885 1 0.219179 0.96563 0
856 1 0.24252 0.957135 0
17 1 0.257235 0.998766 0
887 1 0.237704 0.982203 0
888 1 0.261393 0.973825 0
860 1 0.309476 0.958317 0
858 1 0.284465 0.965292 0
19 1 0.280576 0.990225 0
889 1 0.304254 0.982316 0
890 1 0.323943 0.999817 0
862 1 0.353239 0.964219 0
891 1 0.329692 0.974741 0
892 1 0.351132 0.988791 0
23 1 0.380424 0.997937 0
893 1 0.374578 0.974273 0
895 1 0.398408 0.979473 0
867 1 0.440281 0.968485 0
897 1 0.44694 0.99388 0
866 1 0.415166 0.962279 0
896 1 0.422525 0.987236 0
899 1 0.470562 0.999897 0
868 1 0.464751 0.975967 0
1771 1 0.488506 0.981622 0
1741 1 0.481583 0.957746 0
931 1 0.524103 0.038481 0
901 1 0.518684 0.0125075 0
30 1 0.501503 0.0307104 0
902 1 0.542995 0.0201946 0
904 1 0.567467 0.0263088 0
906 1 0.584519 0.00877673 0
905 1 0.560471 0.00266359 0
935 1 0.591605 0.0334782 0
908 1 0.608368 0.0159477 0
939 1 0.63239 0.0230824 0
937 1 0.615734 0.0412986 0
910 1 0.649038 0.00552974 0
941 1 0.656738 0.0301267 0
912 1 0.673712 0.0116338 0
942 1 0.681862 0.035447 0
943 1 0.697873 0.015842 0
945 1 0.721714 0.0235242 0
914 1 0.743911 0.0150099 0
916 1 0.767303 0.00891872 0
947 1 0.7599 0.0334024 0
918 1 0.784657 0.0259576 0
919 1 0.80907 0.0201316 0
917 1 0.79084 0.00246526 0
951 1 0.827367 0.0377629 0
920 1 0.832372 0.0135353 0
922 1 0.851203 0.031131 0
921 1 0.856244 0.00669425 0
923 1 0.87454 0.0246614 0
924 1 0.898507 0.0185921 0
954 1 0.891781 0.0428946 0
955 1 0.916295 0.0358745 0
925 1 0.921678 0.0107998 0
926 1 0.939795 0.0280111 0
928 1 0.946058 0.00399437 0
930 1 0.98824 0.0146364 0
959 1 0.964219 0.0217152 0
960 1 0.982553 0.0383154 0
932 1 0.530561 0.0627799 0
961 1 0.513387 0.0802326 0
60 1 0.506901 0.0557677 0
933 1 0.548729 0.0445148 0
963 1 0.555407 0.0695603 0
934 1 0.573008 0.0510073 0
965 1 0.579536 0.0760187 0
936 1 0.597074 0.0574186 0
967 1 0.620785 0.0662493 0
966 1 0.603062 0.0831402 0
938 1 0.639402 0.047827 0
969 1 0.646051 0.0721793 0
940 1 0.663952 0.0538551 0
970 1 0.671725 0.0784168 0
971 1 0.68891 0.0597446 0
944 1 0.70574 0.0422751 0
973 1 0.714268 0.0673901 0
972 1 0.695044 0.0849947 0
975 1 0.730304 0.0481419 0
974 1 0.742872 0.0797929 0
946 1 0.753808 0.0568675 0
977 1 0.769701 0.0751783 0
949 1 0.802167 0.0436538 0
948 1 0.777959 0.0506628 0
979 1 0.796036 0.0684003 0
978 1 0.812514 0.0859168 0
950 1 0.820736 0.0624363 0
980 1 0.837286 0.0798096 0
981 1 0.861765 0.0740764 0
952 1 0.844907 0.0558842 0
953 1 0.868259 0.0494458 0
983 1 0.885767 0.0665277 0
984 1 0.903609 0.0845077 0
985 1 0.909623 0.0600022 0
956 1 0.934603 0.053035 0
986 1 0.927192 0.0770687 0
987 1 0.952208 0.0707601 0
957 1 0.957656 0.0458033 0
958 1 0.976192 0.0620445 0
989 1 0.993796 0.0796302 0
988 1 0.971125 0.0871931 0
962 1 0.537439 0.0871958 0
991 1 0.520769 0.104507 0
120 1 0.502315 0.122359 0
993 1 0.543828 0.111395 0
992 1 0.526246 0.129142 0
964 1 0.561527 0.0939393 0
994 1 0.568282 0.118626 0
995 1 0.584708 0.100186 0
996 1 0.591725 0.125631 0
968 1 0.62749 0.0896528 0
997 1 0.609008 0.107134 0
998 1 0.633297 0.113466 0
999 1 0.652535 0.0960298 0
1000 1 0.657359 0.120536 0
1001 1 0.675349 0.103697 0
1031 1 0.681275 0.127326 0
1002 1 0.699694 0.11014 0
1003 1 0.718581 0.093149 0
1004 1 0.721662 0.118971 0
976 1 0.763777 0.0986749 0
1005 1 0.740308 0.10398 0
1035 1 0.756475 0.123504 0
1007 1 0.788774 0.0931577 0
1006 1 0.78193 0.116883 0
1008 1 0.806317 0.109875 0
1039 1 0.823695 0.127492 0
1009 1 0.83003 0.103521 0
1010 1 0.848182 0.121531 0
1011 1 0.855132 0.0974548 0
982 1 0.879747 0.0911142 0
1012 1 0.872469 0.114988 0
1013 1 0.89744 0.108738 0
1016 1 0.915468 0.125782 0
1017 1 0.945644 0.09498 0
1015 1 0.922101 0.101235 0
1047 1 0.940289 0.119208 0
1018 1 0.964485 0.112256 0
1019 1 0.987817 0.104783 0
1020 1 0.982489 0.128775 0
1022 1 0.531962 0.153362 0
1021 1 0.508115 0.147105 0
1051 1 0.513722 0.171545 0
1023 1 0.550574 0.135413 0
1024 1 0.555779 0.160733 0
1025 1 0.574319 0.143496 0
1055 1 0.580024 0.166893 0
1027 1 0.616146 0.131646 0
1026 1 0.598269 0.149762 0
1028 1 0.622472 0.155625 0
1029 1 0.640089 0.137378 0
1059 1 0.645884 0.162943 0
1030 1 0.663694 0.144502 0
1061 1 0.669231 0.169772 0
1032 1 0.686933 0.153255 0
1033 1 0.703954 0.135921 0
1063 1 0.711369 0.160528 0
1034 1 0.727402 0.142926 0
1036 1 0.751962 0.148616 0
1065 1 0.735473 0.167083 0
1067 1 0.775209 0.139507 0
1037 1 0.800189 0.134558 0
1038 1 0.792391 0.158635 0
1040 1 0.818277 0.152181 0
1071 1 0.835738 0.169241 0
1041 1 0.841721 0.145482 0
1042 1 0.859525 0.163837 0
1014 1 0.890645 0.132913 0
1043 1 0.865389 0.139073 0
1044 1 0.884949 0.156777 0
1075 1 0.903053 0.173716 0
1045 1 0.908822 0.150133 0
1046 1 0.933371 0.142779 0
1048 1 0.952732 0.16001 0
1077 1 0.92787 0.166271 0
1049 1 0.957633 0.136192 0
1050 1 0.976718 0.153199 0
151 1 0.994016 0.170298 0
121 1 1.00033 0.145319 0
1053 1 0.53779 0.17901 0
1052 1 0.519487 0.195512 0
1083 1 0.543714 0.203416 0
1081 1 0.50224 0.214086 0
1054 1 0.561423 0.184927 0
1056 1 0.584725 0.191149 0
1085 1 0.567474 0.210472 0
1057 1 0.60314 0.174243 0
1058 1 0.62723 0.180027 0
1087 1 0.609079 0.197863 0
1089 1 0.633194 0.205258 0
1086 1 0.591896 0.215123 0
1060 1 0.651088 0.18816 0
1091 1 0.67477 0.194474 0
1090 1 0.657132 0.2123 0
1062 1 0.692928 0.177496 0
1093 1 0.698615 0.20185 0
1064 1 0.71783 0.184196 0
1094 1 0.722753 0.208673 0
1066 1 0.761784 0.172645 0
1095 1 0.741677 0.191651 0
1097 1 0.765083 0.197341 0
1096 1 0.746768 0.216116 0
1069 1 0.811338 0.175539 0
1068 1 0.786417 0.182853 0
1098 1 0.786141 0.207449 0
1099 1 0.807939 0.198813 0
1070 1 0.83156 0.193791 0
1072 1 0.855176 0.187463 0
1101 1 0.849996 0.21202 0
1073 1 0.879177 0.180769 0
1103 1 0.873854 0.204812 0
1074 1 0.897952 0.197865 0
1105 1 0.91582 0.215155 0
1078 1 0.945837 0.183602 0
1076 1 0.921835 0.190699 0
1107 1 0.939421 0.20763 0
1079 1 0.970625 0.177644 0
1109 1 0.963808 0.201328 0
181 1 0.987849 0.194562 0
1082 1 0.524854 0.221171 0
1111 1 0.508123 0.239446 0
1113 1 0.532602 0.245358 0
1084 1 0.549973 0.227404 0
1114 1 0.556451 0.252294 0
1115 1 0.574308 0.234464 0
1116 1 0.580922 0.258783 0
1088 1 0.615434 0.222731 0
1117 1 0.597618 0.239591 0
1118 1 0.621634 0.247478 0
1119 1 0.639033 0.229685 0
1121 1 0.663159 0.237583 0
1120 1 0.644839 0.255015 0
1092 1 0.680602 0.219182 0
1122 1 0.686786 0.244429 0
1123 1 0.705334 0.226321 0
1124 1 0.711029 0.249745 0
1125 1 0.729827 0.233692 0
1126 1 0.752345 0.241094 0
1127 1 0.770171 0.224203 0
1155 1 0.734937 0.257485 0
1129 1 0.799276 0.229548 0
1128 1 0.779225 0.246552 0
1159 1 0.802143 0.255385 0
1100 1 0.824638 0.217447 0
1130 1 0.82122 0.24168 0
1131 1 0.844084 0.235601 0
1132 1 0.860313 0.254481 0
1102 1 0.8687 0.229228 0
1104 1 0.890883 0.222418 0
1133 1 0.88498 0.247269 0
1135 1 0.90911 0.239377 0
1136 1 0.927976 0.256485 0
1106 1 0.93354 0.232472 0
1137 1 0.95096 0.249731 0
1110 1 0.982621 0.219393 0
1108 1 0.957652 0.225445 0
1139 1 0.975563 0.243102 0
1169 1 0.994353 0.259503 0
1112 1 0.514703 0.265507 0