ITEM: TIMESTEP
86000
ITEM: NUMBER OF ATOMS
1800
ITEM: BOX BOUNDS pp pp pp
1.2108599842761549e+00 1.6378914001572102e+02
1.2108599842761549e+00 1.6378914001572102e+02
0.0000000000000000e+00 5.5000000000000000e+00
ITEM: ATOMS id type xs ys zs
2 1 0.010997 0.00836178 0
33 1 0.0291109 0.0260998 0
31 1 0.00477853 0.0326748 0
3 1 0.0346959 0.00191153 0
4 1 0.0526716 0.0182738 0
6 1 0.0776201 0.010573 0
35 1 0.0714426 0.0347031 0
34 1 0.0472991 0.0432129 0
8 1 0.100406 0.00230445 0
37 1 0.0954365 0.0268686 0
39 1 0.118518 0.019718 0
38 1 0.113331 0.0438058 0
40 1 0.136679 0.0364101 0
10 1 0.142462 0.0116391 0
41 1 0.165906 0.00285993 0
42 1 0.161139 0.0275382 0
43 1 0.185122 0.0198273 0
14 1 0.208641 0.0129256 0
44 1 0.203185 0.0375817 0
45 1 0.227674 0.0287705 0
16 1 0.251848 0.0212678 0
886 1 0.23294 0.00485733 0
46 1 0.269546 0.0390173 0
18 1 0.275178 0.0144121 0
49 1 0.294055 0.031059 0
20 1 0.300117 0.00661577 0
51 1 0.31785 0.0244835 0
22 1 0.34175 0.0324207 0
21 1 0.359654 0.014396 0
24 1 0.383849 0.0209454 0
53 1 0.36601 0.0389599 0
894 1 0.401857 0.00373354 0
25 1 0.407993 0.0278428 0
26 1 0.433041 0.0362425 0
27 1 0.426548 0.0107784 0
898 1 0.450574 0.0192375 0
29 1 0.474845 0.0254986 0
900 1 0.493942 0.00749896 0
899 1 0.469071 0.000726126 0
30 1 0.498556 0.0316009 0
32 1 0.023042 0.0504445 0
62 1 0.0177959 0.073682 0
63 1 0.0411718 0.0671529 0
65 1 0.0660637 0.0591189 0
66 1 0.0844578 0.0762698 0
64 1 0.0602249 0.0833839 0
36 1 0.08996 0.051132 0
67 1 0.108603 0.0683374 0
69 1 0.131737 0.0603691 0
68 1 0.12629 0.0853646 0
71 1 0.155479 0.0528405 0
72 1 0.174049 0.0684213 0
70 1 0.150648 0.0765458 0
73 1 0.179129 0.0446588 0
74 1 0.222667 0.0529218 0
103 1 0.197703 0.0613123 0
105 1 0.215315 0.0779185 0
101 1 0.192418 0.085491 0
75 1 0.245748 0.0457116 0
77 1 0.26403 0.0632465 0
76 1 0.239334 0.0708401 0
47 1 0.288512 0.0550435 0
48 1 0.308192 0.0686807 0
78 1 0.284889 0.0805855 0
50 1 0.32414 0.0494156 0
81 1 0.331747 0.0753505 0
52 1 0.348063 0.0564874 0
82 1 0.356044 0.0818638 0
55 1 0.391095 0.0457339 0
83 1 0.373521 0.0635765 0
54 1 0.397572 0.0700982 0
57 1 0.439559 0.0609643 0
85 1 0.421393 0.0786114 0
56 1 0.415287 0.0532385 0
87 1 0.445784 0.0850676 0
28 1 0.457177 0.0434713 0
59 1 0.481276 0.0497983 0
58 1 0.46409 0.0673784 0
89 1 0.488043 0.073473 0
990 1 0.0122671 0.098148 0
92 1 0.030081 0.114752 0
93 1 0.0361524 0.0910439 0
91 1 0.00682027 0.122001 0
94 1 0.0541862 0.107949 0
95 1 0.0781566 0.100758 0
125 1 0.0728015 0.124978 0
96 1 0.0962603 0.11669 0
97 1 0.102206 0.0927482 0
98 1 0.120462 0.108992 0
99 1 0.145218 0.101448 0
100 1 0.169761 0.0936529 0
130 1 0.163404 0.117834 0
129 1 0.139393 0.125605 0
131 1 0.187164 0.110925 0
102 1 0.209699 0.102806 0
133 1 0.205256 0.129152 0
104 1 0.2281 0.119637 0
106 1 0.234708 0.094988 0
137 1 0.25912 0.0876458 0
135 1 0.252672 0.112014 0
107 1 0.275775 0.104693 0
109 1 0.299175 0.111774 0
79 1 0.315349 0.0929932 0
108 1 0.28068 0.12913 0
80 1 0.339474 0.0999614 0
110 1 0.322707 0.118391 0
141 1 0.345652 0.124706 0
111 1 0.36399 0.106174 0
113 1 0.380196 0.0881866 0
84 1 0.404524 0.0957511 0
112 1 0.387661 0.113967 0
115 1 0.411275 0.121451 0
86 1 0.428623 0.102586 0
116 1 0.436033 0.126985 0
117 1 0.452646 0.108268 0
88 1 0.470474 0.0908666 0
90 1 0.494967 0.0977168 0
119 1 0.477588 0.115233 0
122 1 0.0241753 0.139676 0
153 1 0.0428996 0.156395 0
152 1 0.0186517 0.163549 0
121 1 0.000301321 0.146296 0
123 1 0.0485604 0.132286 0
124 1 0.0670846 0.149079 0
155 1 0.0864673 0.16513 0
154 1 0.061893 0.17341 0
126 1 0.0908662 0.140782 0
127 1 0.115117 0.133366 0
128 1 0.134889 0.149617 0
157 1 0.110047 0.15616 0
159 1 0.15785 0.142033 0
132 1 0.181388 0.135624 0
161 1 0.176475 0.159093 0
160 1 0.153013 0.166264 0
163 1 0.200176 0.153026 0
134 1 0.22362 0.145794 0
193 1 0.219709 0.171162 0
136 1 0.266049 0.14847 0
165 1 0.246296 0.13614 0
167 1 0.272117 0.171979 0
164 1 0.244936 0.161911 0
139 1 0.30464 0.13551 0
138 1 0.289572 0.154617 0
169 1 0.3132 0.160134 0
140 1 0.328856 0.142109 0
142 1 0.353858 0.148798 0
171 1 0.336687 0.166248 0
143 1 0.370056 0.131124 0
114 1 0.394583 0.138733 0
173 1 0.377089 0.15601 0
144 1 0.400452 0.163156 0
145 1 0.418541 0.145217 0
146 1 0.423989 0.169069 0
147 1 0.44215 0.150493 0
118 1 0.460744 0.133172 0
149 1 0.484444 0.140189 0
148 1 0.466334 0.157454 0
150 1 0.490169 0.164469 0
183 1 0.0365775 0.180336 0
182 1 0.0314312 0.204279 0
1080 1 0.0126134 0.18715 0
211 1 0.00677989 0.211711 0
184 1 0.0551067 0.19688 0
185 1 0.0800493 0.189233 0
215 1 0.0743429 0.213668 0
158 1 0.128419 0.174374 0
186 1 0.0980138 0.206335 0
156 1 0.104571 0.181721 0
187 1 0.123258 0.197976 0
189 1 0.147476 0.19049 0
191 1 0.170779 0.184076 0
190 1 0.164916 0.208321 0
188 1 0.141662 0.214103 0
221 1 0.190297 0.204253 0
162 1 0.194697 0.177662 0
192 1 0.212263 0.194992 0
195 1 0.235975 0.202906 0
166 1 0.253094 0.186159 0
196 1 0.260064 0.212419 0
168 1 0.295671 0.178563 0
197 1 0.279017 0.195846 0
199 1 0.302366 0.203035 0
172 1 0.360522 0.17351 0
170 1 0.319515 0.184823 0
201 1 0.343348 0.191686 0
200 1 0.32528 0.210445 0
202 1 0.349115 0.217197 0
203 1 0.366345 0.198978 0
174 1 0.383423 0.181146 0
204 1 0.390582 0.205297 0
175 1 0.407438 0.187548 0
177 1 0.447917 0.175283 0
205 1 0.414764 0.211938 0
176 1 0.430939 0.193389 0
178 1 0.454854 0.200691 0
179 1 0.471512 0.182529 0
180 1 0.495306 0.188451 0
209 1 0.478395 0.207337 0
212 1 0.0256235 0.228011 0
243 1 0.0455178 0.244445 0
241 1 0.0208119 0.252126 0
1140 1 0.00203763 0.235711 0
213 1 0.0498416 0.220799 0
214 1 0.0692988 0.237876 0
245 1 0.0880847 0.255201 0
216 1 0.0940274 0.231164 0
217 1 0.116695 0.221683 0
218 1 0.13426 0.236618 0
247 1 0.111694 0.249187 0
219 1 0.159369 0.242336 0
220 1 0.17996 0.227306 0
249 1 0.140875 0.259787 0
222 1 0.182858 0.252941 0
223 1 0.201578 0.237484 0
194 1 0.218155 0.219182 0
224 1 0.224956 0.245512 0
225 1 0.24185 0.228076 0
227 1 0.265616 0.236549 0
226 1 0.24805 0.255586 0
198 1 0.283661 0.220017 0
228 1 0.288841 0.244935 0
229 1 0.307315 0.227488 0
230 1 0.31245 0.252068 0
231 1 0.331193 0.234762 0
232 1 0.355226 0.241353 0
261 1 0.336719 0.25918 0
233 1 0.373223 0.222405 0
234 1 0.378901 0.247976 0
235 1 0.39703 0.229576 0
265 1 0.403072 0.253816 0
207 1 0.438177 0.218338 0
206 1 0.420435 0.236209 0
237 1 0.444214 0.243523 0
208 1 0.461775 0.225683 0
210 1 0.485484 0.232938 0
239 1 0.468046 0.250387 0
240 1 0.49094 0.258695 0
242 1 0.0397625 0.268497 0
271 1 0.0324609 0.291662 0
1170 1 0.0141665 0.275977 0
1200 1 0.00930756 0.300002 0
273 1 0.0564169 0.287055 0
244 1 0.0637629 0.262496 0
275 1 0.0799307 0.280569 0
246 1 0.102593 0.290115 0
248 1 0.121784 0.273988 0
279 1 0.125986 0.29875 0
251 1 0.164289 0.267513 0
250 1 0.14551 0.284716 0
281 1 0.168814 0.293561 0
253 1 0.206377 0.261951 0
252 1 0.18829 0.277587 0
254 1 0.211473 0.286866 0
283 1 0.192353 0.302533 0
257 1 0.271764 0.262293 0
255 1 0.229953 0.271165 0
256 1 0.253001 0.280892 0
285 1 0.234736 0.296589 0
259 1 0.295384 0.269365 0
258 1 0.276055 0.287094 0
289 1 0.300232 0.294208 0
260 1 0.318293 0.27621 0
263 1 0.360116 0.265253 0
262 1 0.341797 0.283436 0
291 1 0.323929 0.300978 0
293 1 0.366366 0.289445 0
264 1 0.384536 0.271592 0
295 1 0.389488 0.296119 0
266 1 0.408669 0.278563 0
236 1 0.426333 0.261622 0
238 1 0.45051 0.267748 0
267 1 0.432617 0.286127 0
297 1 0.413736 0.303213 0
268 1 0.45593 0.293422 0
1141 1 0.497629 0.282679 0
269 1 0.473539 0.275693 0
270 1 0.479842 0.299545 0
301 1 0.0206121 0.324246 0
272 1 0.0429755 0.312803 0
303 1 0.04351 0.336341 0
276 1 0.0833941 0.304679 0
274 1 0.0650868 0.321181 0
305 1 0.0875789 0.330357 0
304 1 0.0673463 0.345356 0
277 1 0.107067 0.315164 0
278 1 0.130071 0.32443 0
307 1 0.11084 0.340416 0
280 1 0.14933 0.308841 0
311 1 0.153615 0.333963 0
282 1 0.173454 0.318352 0
312 1 0.177907 0.342605 0
284 1 0.215619 0.31222 0
313 1 0.196905 0.327929 0
315 1 0.220612 0.337565 0
287 1 0.258101 0.305628 0
286 1 0.238733 0.321577 0
317 1 0.262281 0.330605 0
316 1 0.243725 0.347181 0
288 1 0.281934 0.311569 0
318 1 0.286703 0.336293 0
290 1 0.306279 0.318739 0
319 1 0.310668 0.342337 0
292 1 0.348665 0.307152 0
321 1 0.330082 0.32456 0
323 1 0.354947 0.331393 0
324 1 0.378906 0.338165 0
294 1 0.372381 0.31328 0
325 1 0.402561 0.344751 0
296 1 0.396486 0.32066 0
298 1 0.438235 0.310894 0
327 1 0.420261 0.328487 0
328 1 0.444366 0.335784 0
329 1 0.468533 0.343 0
299 1 0.462777 0.318982 0
300 1 0.486812 0.325006 0
302 1 0.0237094 0.349604 0
332 1 0.0263959 0.374267 0
331 1 0.00296385 0.364046 0
361 1 0.00600052 0.388762 0
333 1 0.0475914 0.360711 0
335 1 0.0706647 0.370412 0
334 1 0.0505997 0.384936 0
306 1 0.0904257 0.354514 0
337 1 0.0933921 0.380403 0
308 1 0.113063 0.365342 0
309 1 0.133638 0.349495 0
338 1 0.117073 0.389689 0
339 1 0.137565 0.373928 0
310 1 0.1577 0.358424 0
341 1 0.160711 0.383128 0
343 1 0.180467 0.367089 0
314 1 0.200484 0.353136 0
344 1 0.203926 0.378014 0
345 1 0.224128 0.363062 0
375 1 0.226501 0.387942 0
347 1 0.26767 0.356175 0
346 1 0.246664 0.372534 0
377 1 0.271431 0.381196 0
349 1 0.292977 0.360752 0
348 1 0.297554 0.385658 0
350 1 0.317057 0.366246 0
320 1 0.335867 0.349176 0
351 1 0.34435 0.372345 0
381 1 0.326227 0.389095 0
322 1 0.361532 0.355076 0
353 1 0.368288 0.380336 0
355 1 0.385495 0.362362 0
354 1 0.392006 0.387626 0
356 1 0.408531 0.370034 0
326 1 0.426338 0.352795 0
357 1 0.431903 0.377133 0
359 1 0.450384 0.359667 0
1201 1 0.491918 0.349829 0
358 1 0.456495 0.384632 0
330 1 0.474543 0.368324 0
363 1 0.0293504 0.398895 0
362 1 0.0092309 0.413844 0
364 1 0.0328141 0.423932 0
336 1 0.0735302 0.394585 0
365 1 0.0531209 0.409453 0
366 1 0.0765854 0.419394 0
395 1 0.0563003 0.43341 0
367 1 0.0960255 0.404831 0
369 1 0.119524 0.413584 0
368 1 0.0994357 0.429245 0
340 1 0.139683 0.398315 0
370 1 0.142682 0.422913 0
371 1 0.161929 0.407506 0
401 1 0.16613 0.430899 0
342 1 0.183164 0.392614 0
372 1 0.186 0.416873 0
373 1 0.20564 0.402118 0
403 1 0.208941 0.427574 0
374 1 0.228769 0.411779 0
376 1 0.249531 0.397486 0
405 1 0.250445 0.423574 0
378 1 0.272132 0.407762 0
407 1 0.272185 0.43472 0
379 1 0.310156 0.406164 0
409 1 0.292026 0.420721 0
410 1 0.315525 0.430348 0
352 1 0.350628 0.396768 0
382 1 0.357337 0.423002 0
380 1 0.333794 0.413594 0
383 1 0.374244 0.405044 0
385 1 0.397156 0.41282 0
384 1 0.380342 0.431984 0
387 1 0.414914 0.396017 0
386 1 0.421815 0.420856 0
388 1 0.437853 0.401542 0
419 1 0.445434 0.426804 0
360 1 0.481439 0.391871 0
389 1 0.46251 0.409195 0
1261 1 0.488346 0.416079 0
390 1 0.470084 0.433825 0
393 1 0.0128756 0.43893 0
423 1 0.0155169 0.463426 0
394 1 0.0365825 0.44841 0
425 1 0.0385311 0.473574 0
396 1 0.0588827 0.458569 0
397 1 0.0791814 0.444354 0
427 1 0.0827821 0.468328 0
399 1 0.122906 0.438419 0
398 1 0.102356 0.453311 0
429 1 0.126047 0.463614 0
400 1 0.146092 0.447372 0
431 1 0.168414 0.457201 0
430 1 0.148982 0.472543 0
402 1 0.18808 0.442279 0
433 1 0.210201 0.452747 0
432 1 0.190915 0.467849 0
434 1 0.213712 0.478433 0
404 1 0.231191 0.438567 0
406 1 0.253164 0.450362 0
435 1 0.233385 0.464412 0
436 1 0.256244 0.47489 0
437 1 0.276159 0.459934 0
408 1 0.295713 0.445003 0
439 1 0.300344 0.469657 0
441 1 0.320516 0.454516 0
413 1 0.362419 0.448326 0
411 1 0.338493 0.438404 0
412 1 0.344054 0.464717 0
415 1 0.403989 0.438744 0
414 1 0.385978 0.456795 0
443 1 0.368305 0.473699 0
416 1 0.411074 0.463892 0
417 1 0.427217 0.44517 0
418 1 0.451373 0.451297 0
447 1 0.434399 0.469716 0
1291 1 0.49471 0.441474 0
420 1 0.477689 0.458807 0
449 1 0.459246 0.475976 0
454 1 0.0214401 0.512517 0
424 1 0.0176151 0.488361 0
455 1 0.0415602 0.498681 0
426 1 0.0610574 0.483588 0
456 1 0.0635846 0.508619 0
457 1 0.0847703 0.493423 0
487 1 0.0875095 0.518157 0
428 1 0.105351 0.478304 0
459 1 0.1285 0.488262 0
458 1 0.107363 0.502878 0
489 1 0.130452 0.512934 0
461 1 0.170898 0.482993 0
460 1 0.151313 0.497871 0
462 1 0.174543 0.508469 0
463 1 0.194635 0.492924 0
464 1 0.21735 0.503649 0
493 1 0.197283 0.518513 0
465 1 0.236511 0.488746 0
467 1 0.259366 0.499871 0
466 1 0.240066 0.513725 0
438 1 0.280203 0.484046 0
469 1 0.30383 0.494432 0
468 1 0.283566 0.508955 0
470 1 0.306894 0.518473 0
440 1 0.323947 0.479388 0
442 1 0.348803 0.489135 0
471 1 0.32793 0.504136 0
473 1 0.352081 0.514403 0
445 1 0.391667 0.48146 0
444 1 0.373376 0.499371 0
475 1 0.39797 0.506163 0
446 1 0.417137 0.488005 0
477 1 0.423186 0.512415 0
448 1 0.440403 0.49455 0
478 1 0.448071 0.518219 0
450 1 0.483782 0.482963 0
479 1 0.465364 0.50047 0
1381 1 0.490527 0.507905 0
452 1 0.000274546 0.527627 0
483 1 0.02425 0.537425 0
482 1 0.00317989 0.552306 0
513 1 0.0265172 0.562023 0
485 1 0.0444128 0.523209 0
484 1 0.0478308 0.547731 0
486 1 0.0679826 0.533197 0
515 1 0.0702648 0.558341 0
517 1 0.0903549 0.542205 0
488 1 0.110323 0.527877 0
519 1 0.113212 0.55352 0
490 1 0.132642 0.538165 0
520 1 0.13551 0.564164 0
491 1 0.153587 0.523363 0
521 1 0.155012 0.549062 0
492 1 0.176561 0.53553 0
523 1 0.179011 0.559703 0
494 1 0.200274 0.544233 0
495 1 0.219849 0.529565 0
525 1 0.223177 0.554811 0
496 1 0.244128 0.538999 0
497 1 0.263062 0.524095 0
527 1 0.266102 0.54953 0
526 1 0.246072 0.564747 0
499 1 0.309171 0.544092 0
498 1 0.286504 0.534456 0
529 1 0.289154 0.559826 0
472 1 0.331158 0.528366 0
501 1 0.332256 0.553672 0
502 1 0.353656 0.562614 0
503 1 0.355534 0.538323 0
474 1 0.379987 0.526555 0
505 1 0.390945 0.54966 0
476 1 0.405761 0.530544 0
506 1 0.415452 0.557339 0
507 1 0.430999 0.538037 0
508 1 0.439187 0.56282 0
509 1 0.45586 0.543012 0
480 1 0.47369 0.526037 0
510 1 0.48024 0.550181 0
1382 1 0.497758 0.53221 0
512 1 0.0278296 0.586956 0
511 1 0.00623704 0.576821 0
541 1 0.00887324 0.602623 0
514 1 0.0488983 0.572725 0
545 1 0.0731059 0.583071 0
543 1 0.0518443 0.597402 0
546 1 0.0746966 0.607637 0
516 1 0.0938664 0.568273 0
518 1 0.115634 0.579709 0
547 1 0.0952956 0.594038 0
548 1 0.117944 0.604851 0
549 1 0.138617 0.589487 0
522 1 0.15814 0.573733 0
551 1 0.162066 0.599807 0
553 1 0.181899 0.58364 0
524 1 0.202323 0.569015 0
554 1 0.205404 0.593796 0
555 1 0.225126 0.579383 0
556 1 0.228476 0.604858 0
557 1 0.24867 0.589283 0
528 1 0.269434 0.574945 0
558 1 0.27117 0.599176 0
500 1 0.312886 0.568634 0
559 1 0.291983 0.584406 0
530 1 0.315391 0.593417 0
560 1 0.294388 0.608638 0
531 1 0.334781 0.578943 0
532 1 0.339335 0.603311 0
533 1 0.357649 0.587658 0
504 1 0.37597 0.570382 0
534 1 0.381436 0.594703 0
535 1 0.39967 0.575288 0
536 1 0.405009 0.600129 0
537 1 0.422838 0.582205 0
567 1 0.429462 0.606245 0
538 1 0.446402 0.587323 0
539 1 0.463201 0.568356 0
540 1 0.487156 0.575575 0
569 1 0.469974 0.59386 0
1441 1 0.494097 0.600989 0
542 1 0.0311995 0.612509 0
571 1 0.0117455 0.627431 0
573 1 0.0348449 0.637462 0
544 1 0.053954 0.622012 0
575 1 0.0777679 0.632501 0
574 1 0.0576449 0.647638 0
577 1 0.0978286 0.618672 0
579 1 0.121156 0.62973 0
576 1 0.100763 0.643898 0
550 1 0.140971 0.614207 0
581 1 0.165233 0.625223 0
580 1 0.144873 0.639078 0
611 1 0.16685 0.650331 0
552 1 0.185362 0.609018 0
582 1 0.187674 0.634516 0
583 1 0.207463 0.618646 0
584 1 0.210863 0.644779 0
585 1 0.230387 0.628935 0
586 1 0.25375 0.638703 0
587 1 0.250987 0.613883 0
589 1 0.274674 0.623059 0
590 1 0.298601 0.632648 0
588 1 0.278542 0.647116 0
561 1 0.317546 0.617386 0
563 1 0.362213 0.611342 0
562 1 0.343178 0.628354 0
591 1 0.32192 0.641833 0
593 1 0.34796 0.652497 0
565 1 0.387069 0.618981 0
564 1 0.368152 0.635532 0
595 1 0.390887 0.643734 0
566 1 0.41088 0.624917 0
568 1 0.453393 0.611484 0
596 1 0.416003 0.649251 0
597 1 0.435403 0.631228 0
570 1 0.477024 0.618171 0
600 1 0.459725 0.63561 0
1471 1 0.482638 0.642758 0
1442 1 0.500208 0.625921 0
572 1 0.0138792 0.651759 0
602 1 0.0178553 0.677185 0
603 1 0.0375154 0.662538 0
633 1 0.0402189 0.688135 0
605 1 0.0805936 0.657721 0
604 1 0.0601803 0.673452 0
606 1 0.082849 0.684499 0
578 1 0.123928 0.653797 0
607 1 0.1033 0.669125 0
608 1 0.125618 0.679738 0
609 1 0.146031 0.664209 0
610 1 0.169977 0.674989 0
639 1 0.149733 0.689215 0
612 1 0.193293 0.68427 0
613 1 0.189963 0.659933 0
614 1 0.213711 0.669287 0
643 1 0.216351 0.693589 0
615 1 0.234239 0.654562 0
616 1 0.237437 0.678531 0
617 1 0.258615 0.663618 0
647 1 0.260712 0.687889 0
619 1 0.302694 0.657378 0
618 1 0.28241 0.672111 0
620 1 0.305098 0.68223 0
621 1 0.326287 0.665583 0
592 1 0.351128 0.676602 0
622 1 0.329987 0.691139 0
594 1 0.372382 0.66238 0
625 1 0.396441 0.667093 0
623 1 0.375768 0.686293 0
626 1 0.402074 0.691375 0
599 1 0.441097 0.654872 0
598 1 0.445908 0.679291 0
627 1 0.421588 0.674007 0
628 1 0.470197 0.685444 0
629 1 0.464944 0.661477 0
1501 1 0.488734 0.668865 0
630 1 0.494413 0.692689 0
632 1 0.0197991 0.701863 0
663 1 0.0205301 0.725486 0
634 1 0.0425321 0.713902 0
635 1 0.0624203 0.699325 0
636 1 0.0839108 0.71111 0
665 1 0.0661156 0.727343 0
666 1 0.0880118 0.736654 0
637 1 0.105625 0.696385 0
638 1 0.129368 0.704734 0
667 1 0.108525 0.721613 0
669 1 0.132506 0.729998 0
641 1 0.173178 0.700045 0
640 1 0.152424 0.714132 0
671 1 0.17574 0.723645 0
642 1 0.196082 0.70856 0
673 1 0.200722 0.732645 0
644 1 0.219425 0.718583 0
645 1 0.239786 0.702277 0
675 1 0.242359 0.727645 0
646 1 0.262397 0.712452 0
677 1 0.265619 0.736562 0
649 1 0.284393 0.697953 0
648 1 0.285999 0.721254 0
679 1 0.309091 0.730832 0
650 1 0.31001 0.706305 0
651 1 0.333163 0.715556 0
653 1 0.355472 0.704267 0
624 1 0.385339 0.709216 0
654 1 0.368778 0.727414 0
685 1 0.392534 0.733811 0
655 1 0.409752 0.716301 0
657 1 0.427413 0.698715 0
656 1 0.434782 0.722051 0
658 1 0.452772 0.704148 0
687 1 0.459093 0.728645 0
659 1 0.476296 0.710108 0
689 1 0.482969 0.734406 0
662 1 0.0239267 0.74898 0
693 1 0.0284851 0.773369 0
691 1 0.00340809 0.766915 0
664 1 0.0468919 0.744623 0
695 1 0.069721 0.754519 0
694 1 0.0529939 0.773376 0
696 1 0.0777655 0.78068 0
697 1 0.0942679 0.763216 0
668 1 0.113899 0.746164 0
698 1 0.119158 0.771402 0
670 1 0.156685 0.738733 0
699 1 0.138206 0.755382 0
701 1 0.161249 0.764072 0
700 1 0.142672 0.779959 0
672 1 0.180933 0.7471 0
702 1 0.184643 0.771968 0
674 1 0.223352 0.743005 0
703 1 0.204648 0.757575 0
704 1 0.20668 0.782009 0
705 1 0.226864 0.769431 0
676 1 0.246143 0.753745 0
707 1 0.269384 0.762431 0
678 1 0.28874 0.747056 0
709 1 0.293035 0.772121 0
680 1 0.311651 0.756854 0
681 1 0.331122 0.740806 0
652 1 0.3537 0.747705 0
682 1 0.358479 0.772463 0
711 1 0.334444 0.765786 0
683 1 0.377229 0.752239 0
713 1 0.382453 0.776497 0
684 1 0.400935 0.759313 0
716 1 0.407166 0.782439 0
686 1 0.417535 0.740468 0
717 1 0.441745 0.747207 0
715 1 0.425703 0.764944 0
718 1 0.449715 0.771434 0
690 1 0.490725 0.759335 0
688 1 0.466163 0.753966 0
719 1 0.473848 0.777939 0
692 1 0.0111973 0.79047 0
722 1 0.0177755 0.81495 0
723 1 0.0356262 0.796625 0
724 1 0.0435957 0.820365 0
725 1 0.0612025 0.799801 0
726 1 0.0844687 0.806821 0
755 1 0.067362 0.825205 0
727 1 0.101471 0.788949 0
728 1 0.124772 0.796918 0
757 1 0.107586 0.81381 0
759 1 0.130548 0.821436 0
729 1 0.148212 0.804306 0
730 1 0.176547 0.814742 0
731 1 0.166924 0.789117 0
732 1 0.202154 0.805425 0
733 1 0.227032 0.797055 0
734 1 0.221974 0.8216 0
735 1 0.248654 0.784752 0
736 1 0.246298 0.814132 0
737 1 0.269921 0.808871 0
706 1 0.272698 0.78571 0
710 1 0.315569 0.783762 0
708 1 0.29451 0.798111 0
739 1 0.313079 0.813981 0
738 1 0.288833 0.824487 0
741 1 0.340221 0.789614 0
742 1 0.348913 0.813541 0
712 1 0.365802 0.794879 0
714 1 0.390638 0.800732 0
743 1 0.37274 0.818957 0
745 1 0.39759 0.824658 0
746 1 0.414332 0.806765 0
747 1 0.43168 0.789395 0
748 1 0.439467 0.81323 0
1591 1 0.498124 0.78265 0
749 1 0.456046 0.796251 0
720 1 0.48038 0.80126 0
750 1 0.46373 0.819585 0
1621 1 0.488188 0.825135 0
752 1 0.00607856 0.853595 0
753 1 0.0257676 0.838373 0
783 1 0.0317767 0.86326 0
754 1 0.0498373 0.844446 0
785 1 0.073715 0.849559 0
784 1 0.0558907 0.86803 0
756 1 0.0908025 0.831912 0
758 1 0.114471 0.83993 0
787 1 0.0975027 0.857216 0
788 1 0.12107 0.866129 0
789 1 0.138086 0.847113 0
760 1 0.154694 0.827576 0
761 1 0.175466 0.840679 0
791 1 0.17021 0.864656 0
763 1 0.197705 0.829751 0
762 1 0.194688 0.856547 0
764 1 0.217504 0.846956 0
767 1 0.265213 0.831791 0
765 1 0.242158 0.838296 0
795 1 0.237638 0.86323 0
766 1 0.260675 0.855446 0
769 1 0.309194 0.839438 0
768 1 0.28486 0.848503 0
799 1 0.303269 0.864748 0
740 1 0.331591 0.831983 0
770 1 0.327022 0.857041 0
771 1 0.356863 0.837866 0
744 1 0.381275 0.842318 0
773 1 0.364922 0.860592 0
774 1 0.388328 0.867189 0
775 1 0.405224 0.84904 0
777 1 0.422291 0.830203 0
807 1 0.429251 0.85527 0
778 1 0.445924 0.837286 0
809 1 0.452827 0.860866 0
779 1 0.469959 0.842529 0
780 1 0.477495 0.867857 0
1651 1 0.495565 0.849067 0
812 1 0.0160435 0.894691 0
814 1 0.0330023 0.912574 0
813 1 0.0398098 0.887377 0
786 1 0.07921 0.873303 0
815 1 0.0564882 0.904937 0
816 1 0.0794667 0.897242 0
817 1 0.103173 0.886987 0
819 1 0.120869 0.904015 0
818 1 0.0973542 0.912833 0
790 1 0.146192 0.871294 0
821 1 0.16664 0.888438 0
820 1 0.143572 0.896139 0
851 1 0.162618 0.912622 0
792 1 0.189665 0.880472 0
793 1 0.214381 0.871588 0
823 1 0.209737 0.896943 0
822 1 0.186165 0.904476 0
794 1 0.232636 0.888979 0
796 1 0.256064 0.880415 0
827 1 0.251602 0.905652 0
797 1 0.27903 0.872539 0
798 1 0.27411 0.89744 0
800 1 0.296742 0.889007 0
831 1 0.31667 0.906984 0
772 1 0.344144 0.874594 0
801 1 0.321197 0.882705 0
802 1 0.340383 0.899511 0
803 1 0.364263 0.889113 0
804 1 0.379228 0.907432 0
805 1 0.395838 0.890427 0
776 1 0.412851 0.872701 0
806 1 0.419018 0.897009 0
808 1 0.436885 0.879711 0
839 1 0.443786 0.90361 0
1681 1 0.484709 0.891288 0
810 1 0.460814 0.886136 0
840 1 0.467329 0.909745 0
842 1 0.0041826 0.94261 0
843 1 0.00900005 0.918574 0
844 1 0.027493 0.935943 0
875 1 0.0450467 0.953072 0
845 1 0.0512704 0.92985 0
846 1 0.0697481 0.945821 0
847 1 0.0744799 0.92164 0
848 1 0.0929029 0.937149 0
849 1 0.116085 0.929254 0
879 1 0.111111 0.953373 0
881 1 0.134467 0.945736 0
850 1 0.139155 0.92058 0
852 1 0.15766 0.936708 0
883 1 0.176798 0.953278 0
853 1 0.179856 0.929013 0
824 1 0.204191 0.921606 0
854 1 0.200355 0.946499 0
855 1 0.223698 0.938509 0
825 1 0.227516 0.913883 0
826 1 0.24667 0.930345 0
857 1 0.265721 0.947695 0
828 1 0.269609 0.922996 0
856 1 0.243258 0.956239 0
829 1 0.293439 0.915005 0
859 1 0.288893 0.939603 0
830 1 0.312617 0.93203 0
860 1 0.308349 0.956218 0
833 1 0.357491 0.916643 0
832 1 0.33514 0.923549 0
861 1 0.331547 0.947564 0
863 1 0.357044 0.940605 0
835 1 0.401412 0.914539 0
834 1 0.382589 0.932403 0
865 1 0.407446 0.938472 0
864 1 0.389893 0.955988 0
837 1 0.424983 0.921471 0
836 1 0.432365 0.945152 0
838 1 0.449903 0.927652 0
870 1 0.456491 0.950806 0
869 1 0.474743 0.934025 0
1711 1 0.491867 0.915401 0
1712 1 0.498459 0.939831 0
873 1 0.0218498 0.959958 0
872 1 0.016433 0.984021 0
874 1 0.0403251 0.977234 0
5 1 0.0582254 0.994574 0
876 1 0.0639909 0.969526 0
7 1 0.0826137 0.985912 0
877 1 0.0876237 0.961881 0
9 1 0.124467 0.994815 0
878 1 0.105502 0.977773 0
880 1 0.129644 0.970542 0
11 1 0.147516 0.985895 0
882 1 0.153515 0.961254 0
13 1 0.171963 0.977838 0
12 1 0.189641 0.995087 0
15 1 0.214298 0.988116 0
884 1 0.195969 0.970698 0
885 1 0.21983 0.964135 0
17 1 0.256846 0.997159 0
887 1 0.238186 0.980617 0
888 1 0.262187 0.971986 0
858 1 0.285748 0.96466 0
19 1 0.280127 0.989328 0
889 1 0.30529 0.982144 0
890 1 0.324072 0.999106 0
862 1 0.35062 0.96419 0
891 1 0.327753 0.973643 0
892 1 0.349461 0.98945 0
23 1 0.377597 0.997342 0
893 1 0.372204 0.97306 0
895 1 0.395762 0.979377 0
867 1 0.438921 0.968923 0
897 1 0.444888 0.993327 0
866 1 0.414003 0.962699 0
896 1 0.420298 0.987193 0
868 1 0.4627 0.976458 0
1771 1 0.486679 0.982943 0
1741 1 0.480094 0.958285 0
931 1 0.522399 0.037403 0
901 1 0.517893 0.0124153 0
902 1 0.54219 0.0199877 0
904 1 0.56607 0.0260747 0
906 1 0.584662 0.00840551 0
905 1 0.560844 0.00167911 0
935 1 0.589926 0.0323946 0
908 1 0.608113 0.014763 0
939 1 0.632094 0.0212779 0
937 1 0.614006 0.0398894 0
910 1 0.649365 0.0029485 0
941 1 0.655528 0.0280347 0
912 1 0.672163 0.0101816 0
942 1 0.678788 0.0349037 0
943 1 0.69629 0.0168216 0
945 1 0.718812 0.0219862 0
944 1 0.704478 0.0429088 0
914 1 0.741963 0.0159082 0
916 1 0.764995 0.00875281 0
947 1 0.758041 0.0348703 0
975 1 0.732358 0.0426626 0
918 1 0.782365 0.0278249 0
919 1 0.806726 0.021414 0
917 1 0.789587 0.00352983 0
951 1 0.824976 0.0381765 0
920 1 0.830389 0.0133456 0
922 1 0.848776 0.030513 0
921 1 0.853612 0.00614258 0
923 1 0.872277 0.0244038 0
924 1 0.896487 0.0179119 0
954 1 0.889286 0.0416233 0
1792 1 0.878613 -0.00054293 0
955 1 0.913455 0.0354586 0
925 1 0.920343 0.0108324 0
926 1 0.938562 0.0296585 0
928 1 0.943277 0.00510652 0
930 1 0.98727 0.0148659 0
959 1 0.962737 0.0216133 0
960 1 0.980931 0.0389238 0
932 1 0.529835 0.0619187 0
961 1 0.512649 0.080853 0
60 1 0.506419 0.0558026 0
962 1 0.537552 0.0856499 0
933 1 0.54723 0.0443472 0
963 1 0.555048 0.0676369 0
934 1 0.57237 0.0507622 0
965 1 0.579254 0.0749813 0
936 1 0.596605 0.0569944 0
967 1 0.620528 0.0638915 0
966 1 0.603283 0.0821692 0
938 1 0.637956 0.0462537 0
969 1 0.644104 0.0700521 0
940 1 0.661437 0.0526998 0
970 1 0.667572 0.0777619 0
971 1 0.685308 0.0588233 0
973 1 0.708215 0.0669752 0
972 1 0.691141 0.0838245 0
974 1 0.733027 0.0728907 0
946 1 0.752725 0.058846 0
977 1 0.770294 0.0769441 0
949 1 0.80036 0.0455317 0
948 1 0.775794 0.0519477 0
979 1 0.793847 0.0691334 0
978 1 0.812066 0.0861679 0
950 1 0.818364 0.062506 0
980 1 0.836133 0.0797022 0
981 1 0.859756 0.0723784 0
952 1 0.842606 0.0559179 0
953 1 0.866161 0.0484597 0
983 1 0.883872 0.0667532 0
984 1 0.901831 0.0838497 0
985 1 0.908082 0.0590968 0
956 1 0.932138 0.053333 0
986 1 0.926705 0.0758711 0
987 1 0.95097 0.070011 0
957 1 0.956447 0.046292 0
958 1 0.975749 0.0630123 0
989 1 0.994105 0.0803897 0
61 1 0.999317 0.0568061 0
991 1 0.519753 0.104142 0
120 1 0.502345 0.12227 0
993 1 0.543664 0.11013 0
992 1 0.525224 0.129349 0
964 1 0.561671 0.0920673 0
994 1 0.567787 0.11758 0
995 1 0.58527 0.0996601 0
996 1 0.591689 0.123887 0
968 1 0.627421 0.0886331 0
997 1 0.609135 0.106497 0
998 1 0.633072 0.112252 0
1027 1 0.615134 0.130804 0
999 1 0.650663 0.0953513 0
1000 1 0.656849 0.119367 0
1001 1 0.67488 0.102218 0
1031 1 0.68093 0.126919 0
1002 1 0.698359 0.109484 0
1003 1 0.716309 0.0904189 0
1004 1 0.723293 0.114818 0
976 1 0.765122 0.100312 0
1005 1 0.740169 0.0971426 0
1035 1 0.753591 0.122033 0
1007 1 0.788708 0.092881 0
1006 1 0.78178 0.118704 0
1008 1 0.806931 0.111471 0
1039 1 0.826053 0.129382 0
1009 1 0.830907 0.103649 0
1010 1 0.84964 0.12111 0
1011 1 0.854309 0.0978607 0
982 1 0.878044 0.0913959 0
1012 1 0.873791 0.115956 0
1013 1 0.897331 0.10848 0
1016 1 0.915668 0.125158 0
1017 1 0.944636 0.0939088 0
1015 1 0.92072 0.100602 0
1047 1 0.939148 0.11935 0
988 1 0.968267 0.0872845 0
1018 1 0.963968 0.112359 0
1019 1 0.988629 0.104854 0
1020 1 0.982466 0.128819 0
1022 1 0.532099 0.153802 0
1021 1 0.508046 0.147358 0
1051 1 0.513933 0.17137 0
1023 1 0.549863 0.135514 0
1024 1 0.556517 0.159765 0
1025 1 0.573988 0.141507 0
1055 1 0.579746 0.167113 0
1026 1 0.597536 0.148837 0
1028 1 0.622393 0.155662 0
1057 1 0.604017 0.172906 0
1029 1 0.639171 0.13684 0
1059 1 0.645749 0.161654 0
1030 1 0.663614 0.144188 0
1061 1 0.669584 0.168329 0
1032 1 0.688054 0.151259 0
1033 1 0.706546 0.13285 0
1063 1 0.712586 0.156654 0
1034 1 0.730223 0.138533 0
1036 1 0.753726 0.146109 0
1065 1 0.735753 0.163306 0
1066 1 0.760659 0.170565 0
1067 1 0.77791 0.144311 0
1037 1 0.80236 0.1354 0
1038 1 0.797596 0.160157 0
1040 1 0.821061 0.154185 0
1071 1 0.838557 0.170824 0
1041 1 0.844876 0.146538 0
1042 1 0.862916 0.164344 0
1014 1 0.892909 0.133042 0
1043 1 0.867437 0.139855 0
1044 1 0.885964 0.15717 0
1045 1 0.910396 0.150459 0
1046 1 0.933514 0.143 0
1048 1 0.952395 0.160454 0
1077 1 0.928386 0.168268 0
1049 1 0.957769 0.13674 0
1050 1 0.976048 0.152473 0
151 1 0.994161 0.169584 0
1053 1 0.538049 0.178248 0
1052 1 0.520601 0.195131 0
1083 1 0.543566 0.204023 0
1081 1 0.502378 0.213504 0
1054 1 0.562634 0.185954 0
1056 1 0.586395 0.191155 0
1085 1 0.56799 0.20962 0
1058 1 0.627509 0.179334 0
1087 1 0.610607 0.197435 0
1089 1 0.634287 0.203371 0
1086 1 0.592463 0.215298 0
1060 1 0.651784 0.185418 0
1091 1 0.675763 0.19369 0
1090 1 0.658214 0.211238 0
1062 1 0.694595 0.174987 0
1093 1 0.699546 0.199566 0
1064 1 0.718067 0.181454 0
1094 1 0.723406 0.205894 0
1095 1 0.742181 0.187811 0
1097 1 0.76595 0.195015 0
1096 1 0.747239 0.212802 0
1069 1 0.814074 0.178015 0
1068 1 0.786085 0.181293 0
1098 1 0.788236 0.20621 0
1099 1 0.811417 0.201322 0
1070 1 0.834129 0.194561 0
1072 1 0.857302 0.188251 0
1101 1 0.851936 0.212392 0
1075 1 0.904124 0.174944 0
1073 1 0.880364 0.182246 0
1103 1 0.875814 0.206401 0
1074 1 0.899981 0.199447 0
1105 1 0.917769 0.216618 0
1078 1 0.947298 0.184351 0
1076 1 0.923304 0.19197 0
1107 1 0.942175 0.209339 0
1079 1 0.971083 0.176878 0
1109 1 0.965753 0.201336 0
181 1 0.989034 0.194486 0
1082 1 0.526252 0.221886 0
1111 1 0.508571 0.239144 0
1113 1 0.532662 0.246974 0
1084 1 0.550691 0.228502 0
1114 1 0.557215 0.25198 0
1115 1 0.574689 0.233918 0
1116 1 0.580816 0.258559 0
1088 1 0.616013 0.222545 0
1117 1 0.598351 0.240451 0
1118 1 0.622472 0.246896 0
1119 1 0.639998 0.228973 0
1121 1 0.663827 0.235155 0
1120 1 0.646692 0.253242 0
1151 1 0.670803 0.259033 0
1092 1 0.682176 0.218024 0
1122 1 0.688544 0.242069 0
1123 1 0.705984 0.224632 0
1124 1 0.71188 0.248986 0
1125 1 0.730037 0.230837 0
1126 1 0.753167 0.238174 0
1127 1 0.769746 0.220875 0
1155 1 0.735777 0.255393 0
1129 1 0.805082 0.226809 0
1128 1 0.776909 0.244459 0
1159 1 0.799313 0.250693 0
1100 1 0.828271 0.219188 0
1130 1 0.822556 0.244311 0
1131 1 0.845648 0.236546 0
1132 1 0.86209 0.255521 0
1102 1 0.870142 0.230697 0
1104 1 0.893764 0.22438 0
1133 1 0.886991 0.248627 0
1135 1 0.911267 0.240781 0
1136 1 0.930181 0.257227 0
1106 1 0.935184 0.232815 0
1137 1 0.953453 0.250141 0
1110 1 0.983297 0.218201 0
1108 1 0.959789 0.226194 0
1139 1 0.978233 0.242801 0
1169 1 0.995933 0.259444 0
1112 1 0.515018 0.264416 0