ITEM: TIMESTEP
88000
ITEM: NUMBER OF ATOMS
1800
ITEM: BOX BOUNDS pp pp pp
1.2642007981475274e+00 1.6373579920185028e+02
1.2642007981475274e+00 1.6373579920185028e+02
0.0000000000000000e+00 5.5000000000000000e+00
ITEM: ATOMS id type xs ys zs
2 1 0.0102461 0.00700081 0
33 1 0.028525 0.0246689 0
31 1 0.00411608 0.0303833 0
3 1 0.0352334 8.55656e-05 0
4 1 0.0522018 0.0176123 0
6 1 0.0762169 0.0097094 0
35 1 0.070815 0.0341172 0
34 1 0.0473784 0.0416217 0
8 1 0.0999133 0.00247529 0
37 1 0.0939814 0.0263716 0
39 1 0.118253 0.0200076 0
40 1 0.137067 0.0367405 0
10 1 0.142141 0.0117384 0
41 1 0.166068 0.00447964 0
42 1 0.160691 0.0283151 0
43 1 0.184719 0.0219336 0
14 1 0.207821 0.0129477 0
44 1 0.203982 0.036744 0
45 1 0.227755 0.0293536 0
16 1 0.251158 0.0206226 0
886 1 0.231724 0.00503373 0
46 1 0.269603 0.0380261 0
18 1 0.274753 0.0133586 0
49 1 0.293023 0.0306252 0
20 1 0.298554 0.00596761 0
51 1 0.316868 0.0247946 0
22 1 0.340356 0.0345555 0
21 1 0.358809 0.0166521 0
24 1 0.383921 0.0235648 0
53 1 0.365591 0.0409966 0
894 1 0.402808 0.00578945 0
25 1 0.409245 0.0298118 0
26 1 0.434053 0.0362018 0
27 1 0.427049 0.0116361 0
898 1 0.451423 0.0186364 0
29 1 0.475293 0.0252231 0
900 1 0.492837 0.00621217 0
30 1 0.49916 0.0309999 0
28 1 0.457499 0.0427146 0
32 1 0.0233105 0.048191 0
62 1 0.0170245 0.0726373 0
63 1 0.0415854 0.0650148 0
65 1 0.0651239 0.057841 0
66 1 0.0838342 0.0748174 0
64 1 0.0599282 0.0814991 0
36 1 0.0891527 0.0509451 0
38 1 0.113634 0.0452151 0
67 1 0.108135 0.0683256 0
69 1 0.131939 0.061675 0
68 1 0.127621 0.0855487 0
71 1 0.155206 0.0528534 0
72 1 0.174474 0.070502 0
70 1 0.151199 0.0775344 0
73 1 0.180305 0.0454106 0
74 1 0.222642 0.0543769 0
103 1 0.19814 0.0627299 0
105 1 0.216887 0.0791829 0
101 1 0.192798 0.0875716 0
75 1 0.246019 0.0463917 0
77 1 0.264466 0.0631539 0
76 1 0.240845 0.0705751 0
47 1 0.287693 0.0548307 0
48 1 0.307271 0.070428 0
78 1 0.28385 0.0799146 0
50 1 0.321755 0.0502733 0
81 1 0.331668 0.0754616 0
52 1 0.347981 0.0580862 0
82 1 0.355761 0.0829905 0
55 1 0.391728 0.0471717 0
83 1 0.372795 0.0642749 0
54 1 0.398367 0.0712442 0
57 1 0.440706 0.059812 0
85 1 0.422461 0.0776057 0
56 1 0.416043 0.053077 0
87 1 0.446618 0.0844361 0
59 1 0.481219 0.0486347 0
58 1 0.464653 0.0669429 0
89 1 0.488035 0.0736475 0
990 1 0.0121626 0.0963418 0
92 1 0.0306436 0.113209 0
93 1 0.0359889 0.0886929 0
91 1 0.00689796 0.120727 0
94 1 0.0538325 0.105466 0
95 1 0.0787403 0.0989323 0
125 1 0.0715125 0.123282 0
96 1 0.0972535 0.116299 0
97 1 0.103227 0.0924861 0
98 1 0.122322 0.109296 0
99 1 0.145695 0.103146 0
100 1 0.169217 0.094964 0
130 1 0.163824 0.119166 0
129 1 0.140697 0.127069 0
131 1 0.187503 0.112251 0
102 1 0.211046 0.104333 0
133 1 0.207036 0.128921 0
137 1 0.259141 0.0886023 0
104 1 0.229533 0.12001 0
106 1 0.235274 0.095409 0
135 1 0.254123 0.112497 0
107 1 0.277344 0.104206 0
109 1 0.300679 0.113154 0
79 1 0.315941 0.0937137 0
108 1 0.281748 0.129046 0
80 1 0.340001 0.101423 0
110 1 0.324056 0.119397 0
141 1 0.347984 0.126598 0
111 1 0.364418 0.107765 0
113 1 0.380478 0.0887164 0
84 1 0.405944 0.0959986 0
112 1 0.388499 0.112624 0
115 1 0.412619 0.120193 0
86 1 0.430132 0.101542 0
116 1 0.436 0.127267 0
117 1 0.453448 0.108843 0
88 1 0.470189 0.0905989 0
90 1 0.494273 0.0975081 0
119 1 0.477069 0.115635 0
122 1 0.0245478 0.137825 0
153 1 0.0427905 0.154571 0
152 1 0.0195183 0.162004 0
121 1 0.00117938 0.145012 0
123 1 0.0479641 0.130173 0
124 1 0.067105 0.147077 0
155 1 0.0857898 0.164093 0
154 1 0.0621697 0.171337 0
126 1 0.0921376 0.139759 0
127 1 0.116588 0.13414 0
128 1 0.134842 0.151234 0
157 1 0.109903 0.158095 0
159 1 0.159125 0.144032 0
161 1 0.177667 0.160562 0
160 1 0.153369 0.168065 0
132 1 0.182917 0.136502 0
163 1 0.201599 0.153493 0
134 1 0.225444 0.146421 0
193 1 0.220511 0.171023 0
136 1 0.266594 0.148598 0
165 1 0.247509 0.13589 0
167 1 0.27138 0.171819 0
164 1 0.245433 0.162624 0
139 1 0.306827 0.136854 0
138 1 0.289715 0.154028 0
169 1 0.313031 0.160159 0
140 1 0.33105 0.143617 0
142 1 0.355246 0.149905 0
171 1 0.337684 0.168403 0
143 1 0.372418 0.131475 0
114 1 0.395997 0.13787 0
173 1 0.378804 0.156659 0
144 1 0.401631 0.164414 0
145 1 0.419396 0.145562 0
146 1 0.426232 0.170306 0
147 1 0.44325 0.152331 0
118 1 0.46062 0.134592 0
149 1 0.484012 0.140792 0
148 1 0.46627 0.159558 0
150 1 0.490344 0.165587 0
183 1 0.0379767 0.179214 0
182 1 0.0319467 0.203622 0
1080 1 0.0142577 0.186378 0
211 1 0.00808248 0.211299 0
184 1 0.0559706 0.196081 0
185 1 0.0799925 0.188865 0
215 1 0.0743981 0.213849 0
158 1 0.128143 0.175023 0
186 1 0.0979762 0.206246 0
156 1 0.103802 0.18168 0
187 1 0.122039 0.198943 0
189 1 0.14537 0.190957 0
191 1 0.171835 0.184927 0
190 1 0.163502 0.207966 0
188 1 0.140443 0.215209 0
221 1 0.188966 0.202901 0
162 1 0.196166 0.177795 0
192 1 0.212547 0.195704 0
195 1 0.235304 0.205753 0
166 1 0.252248 0.188208 0
196 1 0.258896 0.212955 0
168 1 0.29449 0.17821 0
197 1 0.276857 0.196157 0
199 1 0.300584 0.202286 0
172 1 0.360707 0.175006 0
170 1 0.318883 0.184599 0
201 1 0.342117 0.192339 0
200 1 0.324541 0.209482 0
202 1 0.347588 0.217011 0
203 1 0.365298 0.199272 0
174 1 0.384283 0.181943 0
204 1 0.389683 0.206211 0
175 1 0.408595 0.188355 0
177 1 0.449112 0.176993 0
205 1 0.413919 0.212907 0
176 1 0.431919 0.195925 0
178 1 0.455735 0.201717 0
179 1 0.472389 0.184313 0
180 1 0.49717 0.189444 0
209 1 0.479543 0.208901 0
212 1 0.0267311 0.228182 0
243 1 0.0455662 0.244996 0
241 1 0.0208392 0.252384 0
1140 1 0.0019516 0.234857 0
213 1 0.0502998 0.220668 0
214 1 0.0696034 0.238505 0
245 1 0.0874449 0.256456 0
216 1 0.0928549 0.231421 0
217 1 0.116128 0.223409 0
218 1 0.135242 0.238879 0
247 1 0.11251 0.249866 0
219 1 0.159879 0.244097 0
220 1 0.178143 0.227845 0
222 1 0.183319 0.254322 0
223 1 0.201212 0.238464 0
194 1 0.216761 0.220609 0
224 1 0.223254 0.246404 0
225 1 0.24053 0.229735 0
227 1 0.265025 0.237813 0
226 1 0.247256 0.254106 0
198 1 0.282524 0.220335 0
228 1 0.288273 0.245466 0
229 1 0.306617 0.226336 0
230 1 0.312171 0.252424 0
231 1 0.330196 0.2347 0
232 1 0.354243 0.242017 0
261 1 0.33673 0.259296 0
233 1 0.371286 0.223174 0
234 1 0.378372 0.24831 0
235 1 0.395401 0.23051 0
265 1 0.40187 0.255312 0
207 1 0.437904 0.219461 0
206 1 0.418984 0.23718 0
237 1 0.443271 0.243726 0
208 1 0.461656 0.226058 0
210 1 0.486217 0.232331 0
239 1 0.467795 0.250574 0
240 1 0.492566 0.256654 0
242 1 0.0390761 0.269036 0
271 1 0.032106 0.291796 0
1170 1 0.0141949 0.276893 0
1200 1 0.00911862 0.30239 0
273 1 0.0587046 0.289883 0
244 1 0.0624084 0.262655 0
275 1 0.0809088 0.279199 0
246 1 0.103079 0.289299 0
248 1 0.120728 0.273712 0
279 1 0.126086 0.299259 0
249 1 0.141958 0.262288 0
251 1 0.164334 0.270601 0
250 1 0.145815 0.285671 0
281 1 0.168467 0.295111 0
253 1 0.20629 0.263264 0
252 1 0.187421 0.279215 0
254 1 0.211252 0.287177 0
283 1 0.192253 0.3039 0
257 1 0.270831 0.262564 0
255 1 0.229272 0.271194 0
256 1 0.252697 0.27912 0
285 1 0.235015 0.296116 0
287 1 0.257947 0.304215 0
259 1 0.294762 0.269115 0
258 1 0.276337 0.286974 0
289 1 0.300098 0.293316 0
260 1 0.31853 0.276008 0
263 1 0.36029 0.266128 0
262 1 0.341627 0.283671 0
291 1 0.323029 0.300741 0
293 1 0.365276 0.290245 0
264 1 0.383526 0.272267 0
295 1 0.389128 0.296627 0
266 1 0.407935 0.279155 0
236 1 0.42576 0.261304 0
238 1 0.449255 0.268375 0
267 1 0.431469 0.286016 0
297 1 0.414284 0.303088 0
268 1 0.455605 0.291808 0
1141 1 0.498039 0.280652 0
269 1 0.473953 0.274258 0
270 1 0.479872 0.298007 0
301 1 0.0231411 0.323189 0
272 1 0.0440021 0.311527 0
303 1 0.044986 0.335539 0
1230 1 0.00269388 0.337811 0
276 1 0.0833136 0.304436 0
274 1 0.0657428 0.320717 0
305 1 0.0881779 0.329461 0
304 1 0.068261 0.345504 0
277 1 0.107106 0.313414 0
278 1 0.129165 0.325307 0
307 1 0.109744 0.340442 0
280 1 0.148743 0.310933 0
311 1 0.15279 0.334877 0
282 1 0.172896 0.320181 0
312 1 0.176393 0.345011 0
284 1 0.215474 0.312387 0
313 1 0.1958 0.32887 0
315 1 0.219987 0.33691 0
286 1 0.238948 0.320467 0
317 1 0.262602 0.329358 0
316 1 0.242861 0.345873 0
288 1 0.281584 0.311233 0
318 1 0.286529 0.336692 0
290 1 0.305887 0.318958 0
319 1 0.311615 0.343332 0
292 1 0.347581 0.307642 0
321 1 0.329561 0.325015 0
323 1 0.354109 0.332056 0
324 1 0.378307 0.338737 0
294 1 0.371686 0.314725 0
325 1 0.403326 0.345983 0
296 1 0.396162 0.321064 0
298 1 0.43868 0.310139 0
327 1 0.420395 0.327777 0
328 1 0.444713 0.334772 0
329 1 0.469094 0.340492 0
299 1 0.462395 0.316007 0
300 1 0.48741 0.323005 0
302 1 0.0246624 0.349627 0
332 1 0.0259617 0.373838 0
331 1 0.00220797 0.362261 0
361 1 0.0067406 0.388457 0
333 1 0.0469971 0.360464 0
335 1 0.0700698 0.370099 0
334 1 0.0497786 0.384375 0
306 1 0.0903827 0.355281 0
337 1 0.0929712 0.379907 0
308 1 0.113031 0.36532 0
309 1 0.133557 0.350024 0
338 1 0.115742 0.389979 0
339 1 0.135608 0.375106 0
310 1 0.15678 0.359703 0
341 1 0.159051 0.383933 0
343 1 0.180465 0.3695 0
314 1 0.199657 0.353471 0
344 1 0.203415 0.378822 0
345 1 0.223524 0.36298 0
375 1 0.226661 0.387488 0
347 1 0.268851 0.354486 0
346 1 0.247493 0.371845 0
377 1 0.271619 0.383169 0
349 1 0.292645 0.360753 0
348 1 0.297748 0.385868 0
350 1 0.317206 0.367923 0
320 1 0.335669 0.349877 0
351 1 0.344719 0.373063 0
381 1 0.327442 0.390136 0
322 1 0.361141 0.355924 0
353 1 0.369111 0.380681 0
355 1 0.38588 0.362964 0
354 1 0.392933 0.388039 0
356 1 0.41012 0.370445 0
326 1 0.427524 0.351731 0
357 1 0.433883 0.376095 0
359 1 0.451599 0.358922 0
1201 1 0.492703 0.347585 0
358 1 0.457938 0.382957 0
330 1 0.475059 0.365097 0
1231 1 0.499071 0.371485 0
360 1 0.481856 0.389879 0
363 1 0.029315 0.39791 0
362 1 0.00926946 0.413339 0
364 1 0.0324093 0.42293 0
336 1 0.0732434 0.394122 0
365 1 0.0526726 0.408196 0
366 1 0.0764495 0.418773 0
367 1 0.0965225 0.403808 0
369 1 0.119109 0.414974 0
368 1 0.0990903 0.42932 0
340 1 0.139057 0.399889 0
370 1 0.142768 0.423656 0
371 1 0.163152 0.410461 0
401 1 0.165261 0.434826 0
342 1 0.182232 0.394646 0
372 1 0.186173 0.420635 0
373 1 0.205633 0.403894 0
403 1 0.209008 0.429163 0
374 1 0.228717 0.413157 0
376 1 0.249864 0.397508 0
405 1 0.24996 0.423932 0
378 1 0.271535 0.40952 0
379 1 0.309894 0.406712 0
409 1 0.291816 0.422527 0
410 1 0.315025 0.431024 0
352 1 0.351073 0.397423 0
382 1 0.357965 0.422048 0
380 1 0.333594 0.414998 0
383 1 0.375586 0.405147 0
385 1 0.399266 0.412127 0
384 1 0.380764 0.430039 0
387 1 0.416907 0.394035 0
386 1 0.4232 0.419175 0
388 1 0.441146 0.402072 0
419 1 0.447732 0.425794 0
389 1 0.464557 0.407317 0
1261 1 0.48842 0.414477 0
390 1 0.471098 0.432548 0
393 1 0.0132656 0.437731 0
423 1 0.0167429 0.46188 0
394 1 0.0365671 0.44743 0
425 1 0.0385975 0.472493 0
395 1 0.0561359 0.433255 0
396 1 0.0592851 0.458061 0
397 1 0.0793911 0.44412 0
427 1 0.0828626 0.467833 0
399 1 0.121842 0.439546 0
398 1 0.102298 0.454207 0
429 1 0.124689 0.464277 0
400 1 0.144733 0.449231 0
431 1 0.166927 0.459752 0
430 1 0.147058 0.47543 0
402 1 0.188027 0.444161 0
433 1 0.210514 0.45485 0
432 1 0.189538 0.47006 0
404 1 0.231147 0.439619 0
406 1 0.252812 0.45003 0
435 1 0.233208 0.464816 0
436 1 0.256106 0.475108 0
407 1 0.271543 0.43519 0
437 1 0.275709 0.459491 0
408 1 0.295898 0.446086 0
439 1 0.299756 0.4709 0
441 1 0.320066 0.455101 0
413 1 0.363409 0.447753 0
411 1 0.33907 0.438995 0
412 1 0.344326 0.463579 0
415 1 0.405168 0.43686 0
414 1 0.387075 0.454928 0
443 1 0.368855 0.471738 0
416 1 0.410832 0.463275 0
417 1 0.428464 0.444948 0
418 1 0.452525 0.450634 0
447 1 0.43494 0.469079 0
1291 1 0.495468 0.439554 0
420 1 0.477499 0.457107 0
449 1 0.459811 0.474609 0
454 1 0.0217026 0.51174 0
424 1 0.01925 0.487166 0
455 1 0.0426828 0.497183 0
426 1 0.0620286 0.483065 0
456 1 0.0641141 0.508504 0
457 1 0.084623 0.49311 0
487 1 0.0872991 0.518982 0
428 1 0.104905 0.479631 0
459 1 0.126884 0.490918 0
458 1 0.106899 0.504288 0
489 1 0.130271 0.514951 0
461 1 0.170052 0.485221 0
460 1 0.150478 0.500321 0
462 1 0.17368 0.509428 0
434 1 0.213263 0.479271 0
463 1 0.193141 0.494669 0
464 1 0.216051 0.50377 0
493 1 0.196638 0.519659 0
465 1 0.236304 0.489543 0
467 1 0.259424 0.499336 0
466 1 0.239981 0.513822 0
438 1 0.280278 0.484583 0
469 1 0.305159 0.494006 0
468 1 0.284416 0.508484 0
470 1 0.308398 0.519035 0
440 1 0.325226 0.478896 0
442 1 0.349169 0.487893 0
471 1 0.328906 0.503479 0
473 1 0.35269 0.513066 0
445 1 0.392745 0.480666 0
444 1 0.373747 0.496632 0
475 1 0.398609 0.504604 0
446 1 0.416271 0.487996 0
477 1 0.4235 0.511375 0
448 1 0.441723 0.493685 0
478 1 0.448448 0.518304 0
450 1 0.482868 0.482223 0
479 1 0.465918 0.499201 0
1381 1 0.489471 0.507848 0
452 1 0.00246175 0.52653 0
483 1 0.0247867 0.536615 0
482 1 0.00392512 0.551363 0
513 1 0.0277095 0.56155 0
485 1 0.0441096 0.522975 0
484 1 0.0478897 0.547598 0
486 1 0.0678008 0.533783 0
515 1 0.0710113 0.558765 0
517 1 0.0903898 0.54326 0
488 1 0.110178 0.529364 0
519 1 0.113622 0.554078 0
490 1 0.13367 0.539351 0
520 1 0.135735 0.563978 0
491 1 0.153956 0.524437 0
521 1 0.156364 0.549652 0
492 1 0.176979 0.5339 0
523 1 0.179053 0.559123 0
494 1 0.200231 0.544269 0
495 1 0.219188 0.528438 0
525 1 0.222588 0.55395 0
496 1 0.242637 0.538649 0
497 1 0.262793 0.523631 0
527 1 0.265139 0.548239 0
526 1 0.245255 0.562659 0
499 1 0.308495 0.544693 0
498 1 0.28583 0.533729 0
529 1 0.288169 0.55898 0
472 1 0.332283 0.527644 0
501 1 0.330727 0.552811 0
502 1 0.353001 0.56185 0
503 1 0.355799 0.536888 0
474 1 0.379494 0.521738 0
505 1 0.388236 0.546481 0
476 1 0.405927 0.529077 0
506 1 0.414336 0.552858 0
507 1 0.43171 0.536259 0
508 1 0.438371 0.562182 0
509 1 0.456261 0.544114 0
480 1 0.472959 0.525561 0
510 1 0.479272 0.550894 0
1382 1 0.497211 0.532701 0
512 1 0.0295689 0.586424 0
511 1 0.00699409 0.575664 0
541 1 0.00974189 0.601867 0
514 1 0.0502981 0.572613 0
545 1 0.0732943 0.583033 0
543 1 0.0536894 0.598148 0
546 1 0.0759056 0.607787 0
516 1 0.0941052 0.568694 0
518 1 0.116683 0.579057 0
547 1 0.0955256 0.592997 0
548 1 0.118116 0.603568 0
549 1 0.139205 0.588811 0
522 1 0.158636 0.574812 0
551 1 0.161431 0.599427 0
553 1 0.182845 0.583642 0
524 1 0.202558 0.568588 0
554 1 0.205655 0.593726 0
555 1 0.225498 0.578206 0
556 1 0.228598 0.603199 0
557 1 0.247903 0.588114 0
528 1 0.26805 0.573335 0
558 1 0.271236 0.597324 0
500 1 0.311372 0.568876 0
559 1 0.29154 0.583742 0
530 1 0.314645 0.593451 0
560 1 0.295305 0.608995 0
531 1 0.33404 0.578006 0
532 1 0.337676 0.602686 0
533 1 0.356062 0.586291 0
504 1 0.375641 0.568444 0
534 1 0.379388 0.593683 0
535 1 0.398914 0.572899 0
536 1 0.403247 0.597469 0
537 1 0.422008 0.580125 0
567 1 0.426971 0.605632 0
538 1 0.44521 0.587989 0
539 1 0.462397 0.568588 0
540 1 0.486553 0.576021 0
569 1 0.469801 0.593924 0
1441 1 0.493401 0.602009 0
542 1 0.0338896 0.612464 0
571 1 0.0125995 0.626853 0
573 1 0.0355383 0.637316 0
572 1 0.0147212 0.651734 0
544 1 0.056731 0.623055 0
575 1 0.0778091 0.633824 0
574 1 0.0581663 0.648391 0
577 1 0.0977111 0.618621 0
579 1 0.120698 0.628104 0
576 1 0.100315 0.644126 0
550 1 0.141248 0.613036 0
581 1 0.164301 0.623838 0
580 1 0.143574 0.63735 0
611 1 0.166951 0.648546 0
552 1 0.185393 0.609396 0
582 1 0.187703 0.632896 0
583 1 0.20845 0.618184 0
584 1 0.210881 0.643417 0
585 1 0.231525 0.627717 0
586 1 0.254986 0.637158 0
587 1 0.252054 0.612856 0
589 1 0.274749 0.622818 0
590 1 0.298741 0.633517 0
588 1 0.278931 0.64711 0
561 1 0.318605 0.618642 0
563 1 0.36055 0.610057 0
562 1 0.342048 0.6274 0
591 1 0.321958 0.64354 0
565 1 0.385762 0.617809 0
564 1 0.365142 0.634828 0
595 1 0.389319 0.642433 0
566 1 0.409102 0.622612 0
568 1 0.451595 0.6126 0
596 1 0.4139 0.648644 0
597 1 0.432167 0.631305 0
570 1 0.475817 0.619161 0
600 1 0.457259 0.636628 0
1471 1 0.481137 0.644095 0
1442 1 0.499435 0.626162 0
602 1 0.0176193 0.676425 0
603 1 0.0380833 0.662718 0
633 1 0.0402955 0.687983 0
605 1 0.0809085 0.659731 0
604 1 0.0609281 0.673617 0
606 1 0.0837534 0.684881 0
578 1 0.123678 0.653872 0
607 1 0.10326 0.669525 0
608 1 0.126689 0.678904 0
637 1 0.107162 0.6953 0
609 1 0.146857 0.66286 0
610 1 0.17049 0.672886 0
639 1 0.150602 0.688514 0
612 1 0.19395 0.682297 0
613 1 0.1906 0.658307 0
614 1 0.213675 0.667515 0
643 1 0.216183 0.692164 0
615 1 0.234517 0.652382 0
616 1 0.237302 0.676698 0
617 1 0.258212 0.661168 0
647 1 0.260053 0.686697 0
619 1 0.302683 0.658538 0
618 1 0.281127 0.671923 0
620 1 0.304178 0.683278 0
593 1 0.347514 0.652367 0
621 1 0.326452 0.667277 0
592 1 0.353737 0.677395 0
622 1 0.330792 0.693616 0
594 1 0.370852 0.658881 0
625 1 0.39495 0.666322 0
623 1 0.377767 0.683804 0
626 1 0.403132 0.690436 0
599 1 0.439214 0.656066 0
598 1 0.445116 0.680554 0
627 1 0.420904 0.673081 0
628 1 0.47119 0.68635 0
629 1 0.463525 0.663106 0
1501 1 0.487811 0.66889 0
630 1 0.495924 0.692552 0
632 1 0.0188586 0.700814 0
663 1 0.0209984 0.726406 0
634 1 0.0427714 0.713279 0
635 1 0.063795 0.69834 0
636 1 0.0859532 0.709975 0
665 1 0.0651354 0.724351 0
666 1 0.0882073 0.736621 0
638 1 0.130462 0.704387 0
667 1 0.109451 0.720724 0
669 1 0.13248 0.730541 0
641 1 0.17434 0.697608 0
640 1 0.154048 0.713409 0
671 1 0.17722 0.722667 0
670 1 0.157025 0.738178 0
642 1 0.196712 0.707425 0
673 1 0.201157 0.731637 0
644 1 0.220418 0.717603 0
645 1 0.239219 0.701964 0
675 1 0.244114 0.727455 0
646 1 0.263115 0.711367 0
677 1 0.266524 0.737399 0
649 1 0.283972 0.697027 0
648 1 0.286397 0.721555 0
679 1 0.309327 0.73143 0
650 1 0.308701 0.707619 0
651 1 0.340001 0.716545 0
653 1 0.360799 0.701731 0
624 1 0.384867 0.707791 0
654 1 0.370126 0.728119 0
685 1 0.393425 0.73238 0
655 1 0.409462 0.714496 0
657 1 0.427014 0.697388 0
656 1 0.43541 0.721692 0
658 1 0.453692 0.704118 0
687 1 0.460485 0.727629 0
659 1 0.478865 0.709959 0
689 1 0.484329 0.734251 0
662 1 0.0222608 0.750107 0
693 1 0.026512 0.77287 0
691 1 0.00295091 0.765148 0
868 1 0.460575 0.975529 0
664 1 0.0470064 0.747251 0
695 1 0.0695038 0.757474 0
694 1 0.0518751 0.776051 0
696 1 0.0764417 0.78218 0
697 1 0.0933939 0.763504 0
668 1 0.111573 0.746372 0
698 1 0.117847 0.771095 0
699 1 0.137227 0.754232 0
701 1 0.161218 0.762995 0
700 1 0.142882 0.778753 0
672 1 0.180303 0.746672 0
702 1 0.184747 0.771257 0
674 1 0.224566 0.741484 0
703 1 0.204542 0.755305 0
704 1 0.207055 0.78068 0
705 1 0.227257 0.767361 0
676 1 0.247015 0.752917 0
707 1 0.270499 0.761239 0
735 1 0.249115 0.778089 0
678 1 0.28978 0.74636 0
709 1 0.293624 0.771521 0
680 1 0.313046 0.755859 0
710 1 0.31764 0.781608 0
681 1 0.331978 0.740813 0
652 1 0.355063 0.74761 0
682 1 0.360158 0.771638 0
711 1 0.336457 0.765153 0
683 1 0.379117 0.753338 0
713 1 0.384816 0.776935 0
684 1 0.402883 0.758017 0
686 1 0.418195 0.739176 0
717 1 0.442916 0.745447 0
715 1 0.42665 0.764651 0
718 1 0.450771 0.770008 0
690 1 0.491628 0.75829 0
688 1 0.467697 0.752383 0
719 1 0.475186 0.776918 0
692 1 0.00911343 0.789662 0
722 1 0.0169761 0.813523 0
723 1 0.0345105 0.796024 0
724 1 0.0417145 0.818769 0
725 1 0.058506 0.799948 0
726 1 0.0832111 0.806417 0
755 1 0.0667657 0.824105 0
727 1 0.0996498 0.788338 0
728 1 0.124397 0.795673 0
757 1 0.107366 0.813705 0
759 1 0.131477 0.820028 0
729 1 0.147776 0.802538 0
730 1 0.178608 0.811316 0
731 1 0.16663 0.787847 0
732 1 0.204875 0.805354 0
734 1 0.224589 0.820647 0
733 1 0.229259 0.795096 0
736 1 0.247931 0.812819 0
737 1 0.27174 0.808288 0
706 1 0.272706 0.784581 0
708 1 0.295853 0.796803 0
739 1 0.315839 0.811488 0
738 1 0.292129 0.823183 0
741 1 0.341078 0.789704 0
742 1 0.348442 0.813733 0
716 1 0.408589 0.78261 0
712 1 0.366732 0.795666 0
714 1 0.390985 0.800734 0
743 1 0.373577 0.819015 0
745 1 0.399417 0.823956 0
746 1 0.416204 0.806108 0
747 1 0.433417 0.788424 0
748 1 0.440202 0.811931 0
1591 1 0.498997 0.783004 0
749 1 0.457839 0.794774 0
720 1 0.482015 0.801248 0
750 1 0.464914 0.818827 0
1621 1 0.49021 0.824674 0
752 1 0.00529919 0.852337 0
753 1 0.0243409 0.83709 0
783 1 0.0292019 0.861568 0
754 1 0.0489738 0.842547 0
785 1 0.0735217 0.8484 0
784 1 0.0553465 0.865529 0
756 1 0.0910632 0.832044 0
758 1 0.115816 0.837861 0
787 1 0.0988329 0.855734 0
788 1 0.122919 0.863227 0
789 1 0.14107 0.844846 0
760 1 0.156223 0.824465 0
761 1 0.17783 0.837556 0
791 1 0.170466 0.860955 0
763 1 0.201032 0.829648 0
762 1 0.195625 0.855494 0
764 1 0.21892 0.847107 0
767 1 0.26712 0.832207 0
765 1 0.243116 0.838413 0
795 1 0.238402 0.86365 0
766 1 0.261855 0.85568 0
769 1 0.309207 0.840085 0
768 1 0.286273 0.847642 0
799 1 0.303087 0.865189 0
740 1 0.331961 0.832096 0
770 1 0.328544 0.857506 0
771 1 0.356617 0.837181 0
744 1 0.381802 0.841919 0
773 1 0.364838 0.859769 0
774 1 0.389875 0.865167 0
775 1 0.406091 0.848176 0
777 1 0.423743 0.830266 0
807 1 0.430044 0.854487 0
778 1 0.447351 0.836703 0
809 1 0.4542 0.86051 0
779 1 0.472459 0.842572 0
780 1 0.47816 0.867347 0
1651 1 0.496962 0.84903 0
812 1 0.016895 0.892863 0
814 1 0.0347524 0.909347 0
813 1 0.0402885 0.88413 0
786 1 0.0795946 0.871719 0
815 1 0.058473 0.901231 0
816 1 0.0830313 0.895083 0
817 1 0.104448 0.880906 0
819 1 0.120447 0.902377 0
790 1 0.147277 0.871214 0
821 1 0.167014 0.886959 0
820 1 0.142683 0.895043 0
792 1 0.190374 0.879972 0
793 1 0.214527 0.872093 0
823 1 0.209491 0.896934 0
822 1 0.184981 0.905408 0
794 1 0.233423 0.889657 0
796 1 0.256847 0.880471 0
827 1 0.251267 0.905802 0
797 1 0.279799 0.872767 0
798 1 0.27513 0.897877 0
800 1 0.299264 0.890304 0
831 1 0.317562 0.908276 0
772 1 0.346216 0.876646 0
801 1 0.322463 0.882665 0
802 1 0.34242 0.901498 0
803 1 0.370803 0.883616 0
804 1 0.378387 0.905955 0
805 1 0.396163 0.889525 0
776 1 0.413163 0.872291 0
806 1 0.419972 0.897068 0
808 1 0.43737 0.878899 0
839 1 0.443298 0.903646 0
1681 1 0.485294 0.891299 0
810 1 0.460955 0.886473 0
840 1 0.467029 0.909624 0
842 1 0.00361815 0.940764 0
843 1 0.0102727 0.91702 0
844 1 0.0280857 0.933845 0
875 1 0.0462694 0.950696 0
845 1 0.0516505 0.926616 0
846 1 0.0693262 0.943952 0
847 1 0.07541 0.919222 0
818 1 0.0994399 0.91367 0
848 1 0.092744 0.937075 0
849 1 0.116587 0.929704 0
879 1 0.109703 0.95419 0
881 1 0.133554 0.946493 0
851 1 0.161576 0.91143 0
850 1 0.139115 0.9196 0
852 1 0.156399 0.936669 0
883 1 0.175634 0.953512 0
853 1 0.179954 0.929305 0
824 1 0.204744 0.921131 0
854 1 0.199849 0.946591 0
855 1 0.222336 0.937978 0
825 1 0.227403 0.913735 0
826 1 0.245957 0.930727 0
857 1 0.265494 0.947288 0
828 1 0.269538 0.922295 0
856 1 0.241445 0.955017 0
829 1 0.294071 0.915392 0
859 1 0.289413 0.940124 0
830 1 0.312228 0.932859 0
833 1 0.358495 0.919524 0
832 1 0.335152 0.925256 0
861 1 0.331858 0.94956 0
863 1 0.359194 0.943559 0
835 1 0.40137 0.913844 0
834 1 0.381735 0.930529 0
865 1 0.405097 0.938838 0
837 1 0.424194 0.92243 0
836 1 0.430128 0.94559 0
838 1 0.448574 0.92804 0
870 1 0.454979 0.950635 0
869 1 0.474416 0.934322 0
1711 1 0.4917 0.915128 0
1712 1 0.498103 0.939517 0
873 1 0.0225011 0.957998 0
872 1 0.0162162 0.98371 0
874 1 0.0398299 0.975601 0
5 1 0.0579943 0.992636 0
876 1 0.0633306 0.968439 0
7 1 0.0821071 0.98566 0
877 1 0.087285 0.961213 0
9 1 0.123463 0.995294 0
878 1 0.10554 0.977747 0
880 1 0.128997 0.97075 0
11 1 0.147663 0.988214 0
882 1 0.152734 0.962396 0
13 1 0.171345 0.978921 0
12 1 0.188357 0.996744 0
15 1 0.212737 0.988892 0
884 1 0.195017 0.971386 0
885 1 0.218436 0.963321 0
17 1 0.255577 0.995905 0
887 1 0.235639 0.979749 0
888 1 0.260096 0.971228 0
860 1 0.308642 0.956511 0
858 1 0.284306 0.964188 0
19 1 0.27914 0.988876 0
889 1 0.303263 0.981884 0
890 1 0.32412 0.998902 0
862 1 0.349458 0.965782 0
891 1 0.3264 0.973903 0
892 1 0.349374 0.990636 0
864 1 0.387612 0.957378 0
23 1 0.376993 0.999921 0
893 1 0.371446 0.976116 0
895 1 0.39482 0.981666 0
867 1 0.437444 0.969284 0
897 1 0.443862 0.993511 0
866 1 0.411923 0.963088 0
896 1 0.420102 0.987671 0
899 1 0.468064 0.999234 0
1741 1 0.479056 0.957901 0
1771 1 0.485538 0.982218 0
931 1 0.522655 0.0376428 0
901 1 0.516284 0.0124694 0
902 1 0.540174 0.0186471 0
904 1 0.564679 0.0253118 0
906 1 0.581896 0.00716435 0
905 1 0.558146 0.00138107 0
935 1 0.58794 0.0321034 0
908 1 0.605295 0.0134894 0
939 1 0.6296 0.020489 0
937 1 0.611561 0.0382894 0
910 1 0.648439 0.00363337 0
941 1 0.653932 0.027116 0
912 1 0.672075 0.00933357 0
942 1 0.67762 0.0337819 0
943 1 0.69666 0.0167555 0
945 1 0.719143 0.0247919 0
944 1 0.701962 0.0419873 0
914 1 0.742047 0.0173449 0
916 1 0.765708 0.00924618 0
947 1 0.760703 0.0336055 0
918 1 0.784141 0.0278853 0
919 1 0.807351 0.0214254 0
917 1 0.789226 0.00313158 0
951 1 0.824767 0.039703 0
920 1 0.830657 0.0146773 0
922 1 0.849138 0.0319051 0
921 1 0.854562 0.00771649 0
923 1 0.872762 0.0253849 0
924 1 0.896637 0.0182727 0
954 1 0.890983 0.0421279 0
955 1 0.914463 0.0351112 0
925 1 0.920069 0.0109743 0
926 1 0.938685 0.0285989 0
928 1 0.943982 0.004462 0
930 1 0.985635 0.0139072 0
959 1 0.96163 0.0211175 0
960 1 0.980543 0.0383712 0
932 1 0.529418 0.0622079 0
961 1 0.511699 0.0800775 0
60 1 0.505374 0.0552288 0
962 1 0.535575 0.0860036 0
933 1 0.545629 0.0436374 0
963 1 0.553598 0.0682232 0
934 1 0.569993 0.0501569 0
965 1 0.5775 0.0752583 0
936 1 0.594235 0.057404 0
967 1 0.618043 0.0634727 0
966 1 0.600872 0.0819919 0
938 1 0.635044 0.0458954 0
969 1 0.643033 0.0703629 0
940 1 0.659439 0.051503 0
970 1 0.667364 0.0761512 0
971 1 0.684069 0.0581352 0
973 1 0.708012 0.0657384 0
972 1 0.690552 0.0820572 0
975 1 0.728029 0.0493636 0
974 1 0.73368 0.073691 0
946 1 0.752414 0.0575595 0
977 1 0.767818 0.0774718 0
949 1 0.801353 0.0452979 0
948 1 0.776507 0.0526972 0
979 1 0.793351 0.0702656 0
950 1 0.818003 0.0632182 0
980 1 0.836078 0.0811225 0
981 1 0.860438 0.0738652 0
952 1 0.842923 0.0563893 0
953 1 0.866837 0.049456 0
983 1 0.884469 0.0664077 0
984 1 0.903623 0.0828719 0
985 1 0.908718 0.058859 0
956 1 0.932821 0.0519866 0
986 1 0.927646 0.0754876 0
987 1 0.951577 0.0696482 0
957 1 0.956834 0.0458432 0
958 1 0.97507 0.0623531 0
989 1 0.9933 0.07988 0
61 1 0.999633 0.055043 0
991 1 0.51826 0.104151 0
120 1 0.501 0.121587 0
993 1 0.541262 0.111101 0
992 1 0.524103 0.129121 0
964 1 0.559179 0.0929318 0
994 1 0.566073 0.118209 0
995 1 0.584014 0.099988 0
996 1 0.590805 0.124143 0
968 1 0.625133 0.0872617 0
997 1 0.608257 0.105829 0
998 1 0.631721 0.112397 0
1027 1 0.614805 0.13157 0
999 1 0.649208 0.0951958 0
1000 1 0.655588 0.11905 0
1001 1 0.672904 0.100717 0
1031 1 0.678933 0.125695 0
1002 1 0.697694 0.106846 0
1003 1 0.714835 0.089726 0
1004 1 0.721805 0.114957 0
976 1 0.763065 0.102832 0
1005 1 0.738905 0.0977109 0
1035 1 0.745804 0.122884 0
978 1 0.811064 0.0872807 0
1007 1 0.787058 0.094389 0
1006 1 0.78119 0.120533 0
1008 1 0.805535 0.112147 0
1039 1 0.823607 0.129843 0
1009 1 0.828886 0.10493 0
1010 1 0.848345 0.120949 0
1011 1 0.854482 0.0979765 0
982 1 0.880066 0.0902166 0
1012 1 0.872829 0.114429 0
1013 1 0.897201 0.106595 0
1016 1 0.915383 0.123926 0
1017 1 0.94585 0.0939492 0
1015 1 0.921527 0.10003 0
1047 1 0.940234 0.118632 0
988 1 0.969466 0.0874474 0
1018 1 0.96443 0.111625 0
1019 1 0.988309 0.103976 0
1020 1 0.983077 0.128319 0
1022 1 0.532327 0.154065 0
1021 1 0.507639 0.147396 0
1051 1 0.514178 0.171306 0
1023 1 0.548864 0.135802 0
1024 1 0.555779 0.159086 0
1025 1 0.573294 0.142016 0
1055 1 0.579617 0.165949 0
1026 1 0.596804 0.149109 0
1028 1 0.621326 0.155289 0
1057 1 0.604174 0.173449 0
1029 1 0.639128 0.137058 0
1059 1 0.645417 0.162905 0
1030 1 0.661713 0.144748 0
1061 1 0.669136 0.168998 0
1032 1 0.685659 0.150691 0
1033 1 0.704463 0.132651 0
1063 1 0.710524 0.158791 0
1034 1 0.727366 0.139969 0
1036 1 0.751531 0.146743 0
1065 1 0.735959 0.165529 0
1066 1 0.761221 0.172 0
1067 1 0.77597 0.145133 0
1037 1 0.799853 0.136542 0
1038 1 0.794808 0.160716 0
1040 1 0.81873 0.153576 0
1071 1 0.837414 0.17055 0
1041 1 0.84307 0.146277 0
1042 1 0.860899 0.163716 0
1014 1 0.891769 0.131303 0
1043 1 0.867024 0.139255 0
1044 1 0.885442 0.156552 0
1075 1 0.9051 0.173793 0
1045 1 0.910166 0.148426 0
1046 1 0.934353 0.142934 0
1048 1 0.953335 0.160673 0
1077 1 0.928866 0.167039 0
1049 1 0.958665 0.136065 0
1050 1 0.97763 0.152375 0
151 1 0.996656 0.169732 0
1053 1 0.53859 0.177884 0
1052 1 0.521875 0.195698 0
1083 1 0.54542 0.202803 0
1081 1 0.503962 0.213053 0
1054 1 0.562524 0.184749 0
1056 1 0.586152 0.191125 0
1085 1 0.569623 0.208938 0
1058 1 0.628034 0.180567 0
1087 1 0.611418 0.198445 0
1089 1 0.634876 0.205988 0
1086 1 0.593993 0.216285 0
1060 1 0.651255 0.187011 0
1091 1 0.675861 0.194452 0
1090 1 0.659627 0.212349 0
1062 1 0.693892 0.176749 0
1093 1 0.699781 0.201567 0
1064 1 0.717424 0.183964 0
1094 1 0.724174 0.208198 0
1095 1 0.741912 0.19083 0
1097 1 0.765217 0.198224 0
1096 1 0.747098 0.215199 0
1069 1 0.811771 0.178018 0
1068 1 0.786441 0.183861 0
1098 1 0.787879 0.207995 0
1099 1 0.810954 0.202094 0
1070 1 0.833608 0.19477 0
1072 1 0.857332 0.188233 0
1101 1 0.8519 0.212456 0
1073 1 0.880025 0.18051 0
1103 1 0.876256 0.205636 0
1074 1 0.899589 0.197645 0
1105 1 0.917524 0.214838 0
1078 1 0.94769 0.18451 0
1076 1 0.923256 0.190813 0
1107 1 0.941672 0.208105 0
1079 1 0.972478 0.176712 0
1109 1 0.965684 0.201307 0
181 1 0.989475 0.194285 0
1082 1 0.528182 0.221143 0
1111 1 0.5102 0.238095 0
1113 1 0.534214 0.245609 0
1084 1 0.552533 0.227166 0
1114 1 0.558513 0.252393 0
1115 1 0.576402 0.234118 0
1116 1 0.580989 0.259077 0
1088 1 0.616509 0.223719 0
1117 1 0.599707 0.241746 0
1118 1 0.622206 0.248275 0
1119 1 0.640496 0.23018 0
1121 1 0.664624 0.23667 0
1120 1 0.646 0.253587 0
1092 1 0.682775 0.219505 0
1122 1 0.688912 0.243714 0
1123 1 0.707228 0.226205 0
1124 1 0.712822 0.251014 0
1125 1 0.730485 0.233071 0
1126 1 0.7537 0.240227 0
1127 1 0.770521 0.222763 0
1155 1 0.737568 0.258297 0
1129 1 0.804911 0.227067 0
1128 1 0.77713 0.246528 0
1159 1 0.800582 0.251128 0
1100 1 0.82899 0.219438 0
1130 1 0.823527 0.243772 0
1131 1 0.846929 0.236837 0
1132 1 0.8636 0.254685 0
1102 1 0.871236 0.23034 0
1104 1 0.894042 0.223968 0
1133 1 0.888633 0.248283 0
1135 1 0.912243 0.240032 0
1136 1 0.930584 0.25806 0
1106 1 0.935801 0.233176 0
1137 1 0.953976 0.249798 0
1110 1 0.983773 0.218028 0
1108 1 0.9597 0.225419 0
1139 1 0.977929 0.242927 0
1169 1 0.996638 0.25957 0
1112 1 0.517073 0.263329 0
1142 1 0.521926 0.287447 0
1143 1 0.54079 0.270085 0