ITEM: TIMESTEP
92000
ITEM: NUMBER OF ATOMS
1800
ITEM: BOX BOUNDS pp pp pp
1.2951312847370957e+00 1.6370486871526094e+02
1.2951312847370957e+00 1.6370486871526094e+02
0.0000000000000000e+00 5.5000000000000000e+00
ITEM: ATOMS id type xs ys zs
2 1 0.0116969 0.0062351 0
33 1 0.030128 0.0236728 0
31 1 0.00565037 0.0309747 0
4 1 0.0541392 0.0154055 0
6 1 0.0783375 0.00772709 0
35 1 0.0726287 0.0313578 0
34 1 0.0487749 0.0393531 0
8 1 0.101494 0.000190133 0
37 1 0.0962609 0.0249867 0
39 1 0.120165 0.0183833 0
38 1 0.114122 0.0425392 0
40 1 0.137998 0.0347798 0
10 1 0.143398 0.0091834 0
41 1 0.166685 0.00148864 0
42 1 0.16115 0.0273083 0
43 1 0.185093 0.0183709 0
14 1 0.20954 0.0116565 0
44 1 0.202128 0.0364665 0
45 1 0.226335 0.0288436 0
16 1 0.250683 0.0223903 0
886 1 0.233337 0.00445221 0
46 1 0.269152 0.0408643 0
18 1 0.275337 0.0165333 0
49 1 0.293144 0.0328048 0
20 1 0.299623 0.0080969 0
51 1 0.317334 0.0264539 0
22 1 0.34095 0.0329689 0
21 1 0.358485 0.0160285 0
890 1 0.326347 0.00312836 0
24 1 0.383329 0.0224826 0
53 1 0.366107 0.0403891 0
894 1 0.402393 0.00502972 0
25 1 0.407947 0.0305211 0
26 1 0.431801 0.0359599 0
27 1 0.426258 0.0114417 0
898 1 0.450327 0.0192717 0
29 1 0.475237 0.0252711 0
900 1 0.493568 0.00748618 0
30 1 0.499777 0.0318112 0
28 1 0.457407 0.0423164 0
899 1 0.468475 0.00176394 0
32 1 0.023482 0.0474764 0
62 1 0.018467 0.0713639 0
63 1 0.0420807 0.0636645 0
65 1 0.0665587 0.0562586 0
66 1 0.0847725 0.0735906 0
64 1 0.0612502 0.0805237 0
36 1 0.0900164 0.0489294 0
67 1 0.10828 0.0673398 0
69 1 0.131865 0.0590082 0
68 1 0.125937 0.0844821 0
71 1 0.155492 0.0517498 0
72 1 0.173288 0.0690837 0
70 1 0.149644 0.0762985 0
73 1 0.178605 0.0437446 0
74 1 0.221085 0.0534096 0
103 1 0.196587 0.0617009 0
105 1 0.21536 0.0785247 0
101 1 0.191258 0.0869822 0
75 1 0.245167 0.0464903 0
77 1 0.263358 0.0644391 0
76 1 0.239037 0.0709708 0
47 1 0.287224 0.057228 0
48 1 0.305977 0.072129 0
78 1 0.281943 0.0830126 0
50 1 0.322842 0.0515772 0
81 1 0.330771 0.0767273 0
52 1 0.347184 0.0579947 0
82 1 0.354381 0.0831932 0
55 1 0.389697 0.0478133 0
83 1 0.371716 0.0653039 0
54 1 0.396308 0.0721197 0
57 1 0.438012 0.0592903 0
85 1 0.420694 0.0777641 0
56 1 0.41408 0.0535453 0
87 1 0.446583 0.083474 0
59 1 0.482205 0.0489795 0
58 1 0.463532 0.0661437 0
89 1 0.487391 0.0745553 0
990 1 0.0123365 0.0948828 0
92 1 0.030934 0.112524 0
93 1 0.0367159 0.0883199 0
91 1 0.00694292 0.119162 0
94 1 0.0551125 0.104826 0
95 1 0.0788514 0.0979864 0
125 1 0.0725659 0.122453 0
123 1 0.0494541 0.129575 0
96 1 0.0963895 0.115715 0
97 1 0.102512 0.0914378 0
98 1 0.120521 0.108899 0
99 1 0.144979 0.100771 0
100 1 0.167916 0.0940333 0
130 1 0.162024 0.118593 0
129 1 0.138331 0.12578 0
131 1 0.186441 0.111462 0
102 1 0.209924 0.103586 0
133 1 0.204333 0.129125 0
104 1 0.227087 0.120409 0
137 1 0.257083 0.0889568 0
106 1 0.23349 0.0954469 0
135 1 0.251387 0.113767 0
107 1 0.275067 0.107267 0
109 1 0.298435 0.114958 0
79 1 0.313813 0.0962157 0
80 1 0.337905 0.101706 0
110 1 0.321289 0.120848 0
141 1 0.345005 0.125852 0
111 1 0.361842 0.107529 0
113 1 0.379069 0.0896607 0
84 1 0.404064 0.0959273 0
112 1 0.386446 0.11391 0
115 1 0.411211 0.12023 0
86 1 0.428571 0.101139 0
116 1 0.435119 0.128328 0
117 1 0.452602 0.109891 0
88 1 0.470218 0.0918176 0
90 1 0.495356 0.097922 0
119 1 0.476511 0.116522 0
120 1 0.500019 0.123327 0
122 1 0.0248017 0.136153 0
153 1 0.0433983 0.154067 0
152 1 0.0196069 0.160351 0
121 1 0.000742784 0.144274 0
124 1 0.0663434 0.146965 0
155 1 0.0847605 0.165003 0
154 1 0.0620506 0.171823 0
126 1 0.0902091 0.140981 0
127 1 0.114218 0.132642 0
128 1 0.132271 0.150619 0
157 1 0.108489 0.157723 0
159 1 0.156236 0.143605 0
161 1 0.174866 0.160292 0
160 1 0.150118 0.167562 0
132 1 0.18062 0.136524 0
163 1 0.199206 0.153752 0
134 1 0.222168 0.146249 0
193 1 0.218313 0.171262 0
136 1 0.263853 0.150992 0
165 1 0.244651 0.137196 0
164 1 0.242499 0.164476 0
108 1 0.279821 0.131993 0
139 1 0.304041 0.138575 0
138 1 0.287758 0.156481 0
169 1 0.311069 0.162032 0
140 1 0.32768 0.144463 0
142 1 0.3516 0.150238 0
171 1 0.335008 0.168176 0
143 1 0.369123 0.131567 0
114 1 0.393393 0.138646 0
173 1 0.376315 0.156825 0
144 1 0.400444 0.164076 0
145 1 0.41714 0.144997 0
146 1 0.423827 0.170267 0
147 1 0.440857 0.153339 0
118 1 0.458982 0.13473 0
149 1 0.482695 0.14106 0
148 1 0.464866 0.1593 0
150 1 0.489769 0.165351 0
183 1 0.0376086 0.178218 0
182 1 0.0319274 0.203561 0
1080 1 0.0134721 0.185792 0
211 1 0.00784062 0.20967 0
184 1 0.0550492 0.195719 0
185 1 0.07915 0.189305 0
215 1 0.0746519 0.213853 0
158 1 0.126089 0.174839 0
186 1 0.0976784 0.206921 0
156 1 0.102584 0.182372 0
187 1 0.120828 0.19896 0
189 1 0.144958 0.19119 0
191 1 0.169821 0.184777 0
190 1 0.162852 0.208212 0
188 1 0.139729 0.215495 0
221 1 0.188075 0.203687 0
162 1 0.19412 0.17796 0
192 1 0.211479 0.196056 0
167 1 0.270597 0.17383 0
195 1 0.233989 0.206042 0
166 1 0.251034 0.188777 0
196 1 0.257643 0.214177 0
168 1 0.294084 0.180055 0
197 1 0.275556 0.197907 0
199 1 0.300083 0.204017 0
170 1 0.317253 0.185547 0
172 1 0.358742 0.17507 0
201 1 0.341498 0.192168 0
200 1 0.323686 0.209808 0
202 1 0.346965 0.215983 0
203 1 0.365189 0.198589 0
174 1 0.382929 0.182243 0
204 1 0.38943 0.206127 0
175 1 0.407228 0.188789 0
177 1 0.448731 0.177718 0
205 1 0.413423 0.212552 0
176 1 0.431109 0.195245 0
178 1 0.454924 0.201171 0
179 1 0.472165 0.182843 0
180 1 0.496828 0.189146 0
209 1 0.479221 0.207016 0
212 1 0.0260274 0.227524 0
243 1 0.0441737 0.245332 0
241 1 0.020202 0.251079 0
1140 1 0.00213455 0.234165 0
213 1 0.050366 0.220554 0
214 1 0.0688294 0.239268 0
245 1 0.0862371 0.256146 0
216 1 0.0921233 0.232098 0
217 1 0.115545 0.224326 0
218 1 0.134608 0.238987 0
247 1 0.111217 0.249006 0
219 1 0.158857 0.243893 0
220 1 0.177908 0.228026 0
222 1 0.180796 0.253879 0
223 1 0.19985 0.23934 0
194 1 0.216284 0.222064 0
224 1 0.222952 0.248359 0
225 1 0.240411 0.230846 0
227 1 0.264947 0.23904 0
226 1 0.246945 0.254676 0
198 1 0.282691 0.222113 0
228 1 0.287994 0.246683 0
229 1 0.306308 0.228447 0
230 1 0.312316 0.252526 0
231 1 0.330179 0.234069 0
232 1 0.353947 0.241046 0
261 1 0.336512 0.258627 0
233 1 0.372102 0.223291 0
234 1 0.378212 0.247535 0
235 1 0.39641 0.230279 0
265 1 0.401674 0.254575 0
207 1 0.437217 0.219383 0
206 1 0.419722 0.237932 0
237 1 0.444953 0.242886 0
208 1 0.46175 0.225008 0
210 1 0.486373 0.231292 0
239 1 0.469404 0.249156 0
240 1 0.493012 0.256789 0
242 1 0.0383499 0.268918 0
271 1 0.03178 0.292478 0
1170 1 0.0145886 0.275751 0
1200 1 0.0091058 0.301872 0
273 1 0.0571375 0.289416 0
244 1 0.0618347 0.263126 0
275 1 0.0802794 0.280232 0
246 1 0.102792 0.290308 0
248 1 0.121022 0.274899 0
279 1 0.125782 0.300526 0
249 1 0.141933 0.261505 0
251 1 0.164743 0.271187 0
250 1 0.146072 0.28631 0
281 1 0.168051 0.295949 0
253 1 0.205181 0.263689 0
252 1 0.187071 0.280503 0
254 1 0.210642 0.288977 0
257 1 0.270438 0.263264 0
255 1 0.229182 0.272224 0
256 1 0.25299 0.28014 0
285 1 0.235014 0.296657 0
287 1 0.259157 0.30439 0
259 1 0.294711 0.270302 0
258 1 0.277313 0.287814 0
289 1 0.301229 0.29514 0
260 1 0.318726 0.276692 0
263 1 0.360591 0.265401 0
262 1 0.342489 0.283087 0
291 1 0.325247 0.300929 0
293 1 0.366454 0.28969 0
264 1 0.384548 0.271699 0
295 1 0.390713 0.295711 0
266 1 0.408442 0.278651 0
236 1 0.426451 0.261334 0
238 1 0.451306 0.267208 0
267 1 0.432951 0.284726 0
297 1 0.415268 0.302124 0
268 1 0.456749 0.292014 0
1141 1 0.498676 0.28206 0
269 1 0.475027 0.273916 0
270 1 0.481763 0.299899 0
301 1 0.0215108 0.324668 0
272 1 0.0436261 0.312472 0
1230 1 0.00267072 0.339359 0
303 1 0.0448158 0.336857 0
276 1 0.082067 0.304825 0
274 1 0.0647254 0.32229 0
305 1 0.0875742 0.330761 0
304 1 0.0679291 0.346685 0
277 1 0.106812 0.315653 0
278 1 0.129544 0.325193 0
307 1 0.110292 0.340603 0
280 1 0.148547 0.311112 0
311 1 0.153081 0.335372 0
282 1 0.172276 0.320527 0
312 1 0.17688 0.344341 0
283 1 0.191156 0.304467 0
284 1 0.215921 0.312974 0
313 1 0.197058 0.328515 0
315 1 0.220446 0.336632 0
286 1 0.240374 0.321055 0
317 1 0.263938 0.329762 0
316 1 0.244402 0.345439 0
288 1 0.2829 0.312312 0
318 1 0.288515 0.336725 0
290 1 0.307395 0.318972 0
319 1 0.312515 0.34304 0
292 1 0.349206 0.30732 0
321 1 0.331349 0.325487 0
323 1 0.355852 0.331703 0
324 1 0.379897 0.337137 0
294 1 0.373144 0.313962 0
325 1 0.40466 0.343951 0
296 1 0.397713 0.319559 0
298 1 0.439325 0.309348 0
327 1 0.421887 0.326934 0
328 1 0.445365 0.334045 0
329 1 0.46883 0.341983 0
299 1 0.463388 0.316315 0
300 1 0.486929 0.325225 0
302 1 0.0246829 0.349543 0
332 1 0.0268586 0.374055 0
331 1 0.00407679 0.364162 0
361 1 0.0070393 0.388879 0
333 1 0.0472372 0.360679 0
335 1 0.0710149 0.370572 0
334 1 0.049976 0.384813 0
306 1 0.0905604 0.355958 0
337 1 0.0950851 0.380379 0
308 1 0.114476 0.365892 0
309 1 0.133745 0.34941 0
338 1 0.117962 0.390794 0
339 1 0.137496 0.375043 0
310 1 0.157452 0.359844 0
341 1 0.160317 0.38417 0
343 1 0.180448 0.369987 0
314 1 0.201733 0.352996 0
344 1 0.204278 0.377625 0
345 1 0.225479 0.361565 0
375 1 0.228219 0.386329 0
347 1 0.268101 0.354618 0
346 1 0.247673 0.370763 0
377 1 0.272256 0.38013 0
349 1 0.293146 0.360567 0
348 1 0.295895 0.38502 0
350 1 0.316843 0.367136 0
320 1 0.337651 0.349039 0
351 1 0.34489 0.372259 0
381 1 0.328097 0.38904 0
322 1 0.362688 0.355245 0
353 1 0.369306 0.378759 0
355 1 0.386904 0.36102 0
354 1 0.393046 0.386837 0
356 1 0.410835 0.369269 0
326 1 0.427703 0.351962 0
357 1 0.433786 0.375997 0
359 1 0.451457 0.359012 0
1201 1 0.492086 0.34983 0
358 1 0.458028 0.383914 0
330 1 0.47523 0.366592 0
363 1 0.0300726 0.399497 0
362 1 0.00873086 0.414122 0
364 1 0.0333875 0.4238 0
336 1 0.0754154 0.395068 0
365 1 0.0539789 0.409534 0
366 1 0.0763276 0.419581 0
395 1 0.0565329 0.43375 0
367 1 0.0977452 0.405415 0
369 1 0.119885 0.415437 0
368 1 0.100127 0.429498 0
340 1 0.140261 0.399585 0
370 1 0.143444 0.424395 0
371 1 0.163464 0.408912 0
401 1 0.167042 0.433434 0
342 1 0.184127 0.393699 0
372 1 0.18699 0.418217 0
373 1 0.207911 0.401536 0
403 1 0.209555 0.427278 0
374 1 0.23083 0.411116 0
376 1 0.250817 0.396031 0
405 1 0.252816 0.422212 0
378 1 0.273558 0.40602 0
379 1 0.310228 0.4044 0
409 1 0.292944 0.420688 0
410 1 0.315637 0.429135 0
352 1 0.3521 0.395491 0
382 1 0.356975 0.420717 0
380 1 0.333644 0.412631 0
383 1 0.375599 0.403757 0
385 1 0.398894 0.410912 0
384 1 0.380836 0.428599 0
387 1 0.416356 0.393796 0
386 1 0.421722 0.419867 0
388 1 0.440312 0.40146 0
419 1 0.445575 0.426303 0
360 1 0.481628 0.391371 0
389 1 0.463948 0.40908 0
1261 1 0.487372 0.416344 0
390 1 0.46899 0.433042 0
393 1 0.0130526 0.439207 0
423 1 0.01596 0.464016 0
394 1 0.0364116 0.449366 0
425 1 0.0383678 0.474789 0
396 1 0.0589937 0.458857 0
397 1 0.0794613 0.444121 0
427 1 0.0816803 0.469361 0
399 1 0.122578 0.439879 0
398 1 0.102167 0.454695 0
429 1 0.125169 0.464669 0
400 1 0.145803 0.448898 0
431 1 0.168623 0.45921 0
430 1 0.148405 0.474206 0
402 1 0.189398 0.443803 0
433 1 0.211721 0.452881 0
432 1 0.191654 0.46851 0
404 1 0.232429 0.436963 0
406 1 0.254456 0.44828 0
435 1 0.234735 0.463401 0
436 1 0.257864 0.473512 0
407 1 0.274017 0.434943 0
437 1 0.277834 0.459358 0
408 1 0.297964 0.444293 0
439 1 0.300283 0.468957 0
441 1 0.320266 0.45346 0
413 1 0.362835 0.445624 0
411 1 0.339449 0.437344 0
412 1 0.344487 0.461454 0
440 1 0.323665 0.47705 0
415 1 0.403597 0.437347 0
414 1 0.385947 0.45315 0
443 1 0.36687 0.471195 0
445 1 0.389956 0.478997 0
416 1 0.409279 0.462656 0
417 1 0.426758 0.444749 0
418 1 0.451192 0.450589 0
447 1 0.432657 0.469661 0
1291 1 0.492762 0.440444 0
420 1 0.475243 0.457542 0
449 1 0.457556 0.475834 0
1321 1 0.4997 0.464648 0
454 1 0.0215241 0.513794 0
424 1 0.0177482 0.488993 0
455 1 0.0418547 0.49929 0
426 1 0.062182 0.483451 0
456 1 0.0654659 0.508111 0
457 1 0.0851487 0.494099 0
487 1 0.0876545 0.518579 0
428 1 0.105854 0.479312 0
459 1 0.128509 0.489907 0
458 1 0.107529 0.504408 0
489 1 0.131109 0.51482 0
461 1 0.171417 0.483395 0
460 1 0.151263 0.499838 0
462 1 0.174079 0.50914 0
434 1 0.214625 0.477946 0
463 1 0.193838 0.49316 0
464 1 0.217024 0.502444 0
493 1 0.196246 0.519045 0
465 1 0.23729 0.487868 0
467 1 0.26053 0.498088 0
466 1 0.239844 0.512775 0
438 1 0.281387 0.483858 0
469 1 0.304838 0.493928 0
468 1 0.284639 0.508015 0
470 1 0.307647 0.518224 0
442 1 0.346829 0.486297 0
471 1 0.327361 0.502599 0
473 1 0.350609 0.511842 0
444 1 0.371039 0.49636 0
475 1 0.394971 0.504023 0
474 1 0.37578 0.520209 0
446 1 0.413182 0.487348 0
477 1 0.420288 0.511764 0
448 1 0.439316 0.494017 0
478 1 0.445342 0.517744 0
450 1 0.48149 0.481604 0
479 1 0.463712 0.499899 0
1381 1 0.488008 0.506921 0
452 1 2.65461e-05 0.528545 0
483 1 0.0239353 0.538261 0
482 1 0.00290765 0.552834 0
513 1 0.0270336 0.562494 0
485 1 0.0455617 0.523113 0
484 1 0.0466414 0.547979 0
486 1 0.0676767 0.533474 0
515 1 0.0705969 0.558613 0
517 1 0.0908919 0.543291 0
488 1 0.111399 0.528338 0
519 1 0.11374 0.553292 0
490 1 0.134477 0.539004 0
520 1 0.137452 0.564263 0
491 1 0.153371 0.523931 0
521 1 0.156942 0.548801 0
492 1 0.17705 0.533707 0
523 1 0.179421 0.5587 0
494 1 0.198946 0.543416 0
495 1 0.219916 0.528763 0
525 1 0.222564 0.553285 0
496 1 0.242577 0.537245 0
497 1 0.264068 0.522772 0
527 1 0.265601 0.547992 0
526 1 0.246404 0.562951 0
499 1 0.309011 0.542728 0
498 1 0.286355 0.532829 0
529 1 0.289194 0.558476 0
472 1 0.331275 0.527442 0
501 1 0.331258 0.551017 0
502 1 0.352419 0.560671 0
503 1 0.355302 0.536155 0
505 1 0.379582 0.544811 0
476 1 0.401156 0.529526 0
506 1 0.410269 0.553847 0
507 1 0.427434 0.535636 0
508 1 0.435508 0.559971 0
509 1 0.451994 0.542241 0
480 1 0.469972 0.52381 0
510 1 0.476373 0.547738 0
1382 1 0.494229 0.530868 0
512 1 0.0297249 0.587198 0
511 1 0.00554369 0.577963 0
541 1 0.00887712 0.601531 0
514 1 0.0499508 0.572384 0
545 1 0.07277 0.582658 0
543 1 0.052262 0.597487 0
546 1 0.0746418 0.607655 0
516 1 0.0936038 0.56807 0
518 1 0.117005 0.577617 0
547 1 0.0960857 0.592814 0
548 1 0.119625 0.602962 0
549 1 0.140157 0.589538 0
522 1 0.159733 0.573903 0
551 1 0.162915 0.598672 0
553 1 0.182642 0.582506 0
524 1 0.202528 0.567566 0
554 1 0.206149 0.592929 0
555 1 0.226328 0.578572 0
552 1 0.185319 0.607948 0
556 1 0.229642 0.603861 0
557 1 0.249643 0.588402 0
528 1 0.269707 0.574073 0
558 1 0.272264 0.598981 0
500 1 0.312527 0.568133 0
559 1 0.292982 0.58338 0
530 1 0.315283 0.593093 0
560 1 0.295621 0.60885 0
531 1 0.334799 0.577727 0
532 1 0.337958 0.603113 0
533 1 0.35676 0.585823 0
504 1 0.374412 0.568332 0
534 1 0.380047 0.592591 0
535 1 0.397842 0.575298 0
536 1 0.40357 0.598614 0
537 1 0.421303 0.580812 0
567 1 0.427397 0.604965 0
538 1 0.444529 0.585544 0
539 1 0.459788 0.567005 0
540 1 0.48445 0.572577 0
569 1 0.467187 0.592518 0
1441 1 0.491111 0.598052 0
542 1 0.0321074 0.612754 0
571 1 0.0116967 0.626343 0
573 1 0.0349238 0.638023 0
572 1 0.0146174 0.651037 0
544 1 0.0554426 0.623052 0
575 1 0.078719 0.633552 0
574 1 0.0584649 0.648301 0
577 1 0.0984658 0.618082 0
579 1 0.121192 0.627756 0
576 1 0.101902 0.643207 0
550 1 0.142363 0.614953 0
581 1 0.165335 0.623802 0
580 1 0.144797 0.638795 0
611 1 0.167965 0.648405 0
582 1 0.187923 0.633074 0
583 1 0.207928 0.617326 0
584 1 0.212328 0.642569 0
585 1 0.231789 0.628839 0
586 1 0.255879 0.638523 0
587 1 0.252925 0.614183 0
589 1 0.276775 0.624183 0
590 1 0.300077 0.63375 0
588 1 0.279536 0.64827 0
561 1 0.319548 0.619085 0
563 1 0.361687 0.61044 0
562 1 0.343632 0.627265 0
591 1 0.323759 0.643919 0
593 1 0.349047 0.652093 0
565 1 0.386074 0.616075 0
564 1 0.368381 0.634478 0
595 1 0.392128 0.640643 0
566 1 0.410685 0.622822 0
568 1 0.450671 0.610736 0
596 1 0.416193 0.646921 0
597 1 0.434553 0.629144 0
570 1 0.474857 0.616337 0
600 1 0.459197 0.635114 0
1471 1 0.482559 0.639674 0
1442 1 0.499753 0.622173 0
602 1 0.0169848 0.675883 0
603 1 0.0382172 0.663473 0
633 1 0.0420185 0.689853 0
605 1 0.0812816 0.658996 0
604 1 0.0617423 0.674763 0
606 1 0.0848926 0.6846 0
578 1 0.124993 0.653507 0
607 1 0.104159 0.668463 0
608 1 0.127621 0.678761 0
637 1 0.108437 0.694495 0
609 1 0.148373 0.664141 0
610 1 0.172269 0.67292 0
639 1 0.152531 0.688079 0
612 1 0.195852 0.682735 0
613 1 0.191495 0.657713 0
614 1 0.215128 0.667274 0
643 1 0.218447 0.691666 0
615 1 0.235143 0.65294 0
616 1 0.237819 0.677343 0
617 1 0.258999 0.662675 0
647 1 0.261877 0.687042 0
619 1 0.303513 0.658069 0
618 1 0.283191 0.671993 0
620 1 0.30759 0.682435 0
621 1 0.329639 0.670635 0
592 1 0.354137 0.676131 0
622 1 0.335859 0.694738 0
594 1 0.37318 0.658558 0
625 1 0.398782 0.664203 0
623 1 0.379004 0.682247 0
626 1 0.405577 0.688641 0
599 1 0.441245 0.65328 0
598 1 0.446898 0.677286 0
627 1 0.423284 0.671579 0
628 1 0.471871 0.68318 0
629 1 0.464138 0.659026 0
1501 1 0.488314 0.663953 0
630 1 0.495844 0.688762 0
632 1 0.0185185 0.699536 0
663 1 0.0211634 0.723897 0
634 1 0.0445686 0.71422 0
635 1 0.0654139 0.700931 0
636 1 0.089812 0.710698 0
665 1 0.069602 0.726169 0
666 1 0.0918187 0.736944 0
638 1 0.132773 0.703821 0
667 1 0.112931 0.719821 0
669 1 0.135944 0.729698 0
641 1 0.175238 0.698993 0
640 1 0.155883 0.713723 0
671 1 0.179908 0.723534 0
670 1 0.159815 0.738572 0
642 1 0.199078 0.707568 0
673 1 0.20337 0.733099 0
644 1 0.221696 0.716295 0
645 1 0.242259 0.702083 0
675 1 0.243857 0.726845 0
646 1 0.264256 0.711786 0
677 1 0.265803 0.737526 0
649 1 0.285938 0.698062 0
648 1 0.286018 0.721847 0
679 1 0.3082 0.731451 0
650 1 0.31115 0.706748 0
651 1 0.346558 0.718441 0
653 1 0.363245 0.70072 0
681 1 0.331495 0.737879 0
624 1 0.388077 0.706403 0
654 1 0.369799 0.7248 0
685 1 0.394578 0.731007 0
655 1 0.412209 0.714036 0
657 1 0.430617 0.695384 0
656 1 0.43735 0.71904 0
686 1 0.419525 0.73711 0
658 1 0.454654 0.700933 0
687 1 0.460824 0.725583 0
659 1 0.478218 0.707067 0
689 1 0.485684 0.731082 0
662 1 0.0238584 0.74725 0
693 1 0.0280208 0.769793 0
691 1 0.00299051 0.763602 0
661 1 0.000687257 0.739167 0
664 1 0.0484894 0.738587 0
695 1 0.0722104 0.753577 0
694 1 0.0532266 0.772427 0
696 1 0.0787436 0.779793 0
697 1 0.0974098 0.761322 0
668 1 0.116002 0.744584 0
698 1 0.121301 0.770506 0
699 1 0.139954 0.75404 0
701 1 0.164348 0.763237 0
700 1 0.145434 0.779443 0
672 1 0.183609 0.747195 0
702 1 0.187356 0.772505 0
674 1 0.225962 0.742692 0
703 1 0.206713 0.757546 0
704 1 0.209456 0.782623 0
705 1 0.22981 0.769347 0
676 1 0.247727 0.754239 0
707 1 0.270552 0.762445 0
735 1 0.252037 0.78117 0
678 1 0.290143 0.747833 0
709 1 0.295322 0.771719 0
680 1 0.313632 0.755088 0
710 1 0.320276 0.778976 0
652 1 0.354253 0.743911 0
682 1 0.361674 0.76699 0
711 1 0.338143 0.761166 0
683 1 0.378926 0.749169 0
713 1 0.385744 0.773479 0
684 1 0.402859 0.755613 0
717 1 0.44414 0.743753 0
715 1 0.426403 0.761483 0
718 1 0.450556 0.767666 0
716 1 0.409467 0.780254 0
690 1 0.492483 0.756832 0
688 1 0.468052 0.750272 0
719 1 0.474321 0.774909 0
692 1 0.00957043 0.787641 0
722 1 0.016807 0.810954 0
723 1 0.0358556 0.792799 0
724 1 0.0419046 0.816173 0
725 1 0.0603431 0.79742 0
726 1 0.0850629 0.804226 0
755 1 0.0665516 0.822225 0
727 1 0.102983 0.78693 0
728 1 0.126197 0.796054 0
757 1 0.109007 0.813058 0
759 1 0.133465 0.821298 0
729 1 0.150731 0.804341 0
730 1 0.177884 0.812289 0
731 1 0.169452 0.788881 0
732 1 0.204543 0.807027 0
734 1 0.226474 0.819822 0
733 1 0.230678 0.795186 0
736 1 0.252734 0.809662 0
737 1 0.280603 0.81092 0
706 1 0.276341 0.786785 0
708 1 0.300674 0.796355 0
738 1 0.300274 0.824907 0
739 1 0.325581 0.803913 0
741 1 0.343924 0.785454 0
742 1 0.349313 0.809244 0
712 1 0.367801 0.791191 0
714 1 0.392038 0.79795 0
743 1 0.373308 0.815202 0
745 1 0.398082 0.822147 0
746 1 0.416002 0.804584 0
747 1 0.433608 0.786552 0
748 1 0.439245 0.811313 0
749 1 0.457797 0.792165 0
720 1 0.482021 0.799151 0
750 1 0.464037 0.816744 0
1621 1 0.48807 0.823663 0
752 1 0.00662915 0.852212 0
753 1 0.0243196 0.834836 0
783 1 0.029991 0.858962 0
754 1 0.0479497 0.84092 0
785 1 0.0724358 0.846532 0
784 1 0.0552259 0.865217 0
756 1 0.0904906 0.829324 0
758 1 0.114592 0.836878 0
787 1 0.0976153 0.85446 0
788 1 0.120544 0.86234 0
760 1 0.157723 0.828282 0
789 1 0.140241 0.84501 0
761 1 0.18037 0.837358 0
791 1 0.173944 0.861743 0
790 1 0.150635 0.868387 0
763 1 0.204011 0.831361 0
762 1 0.197903 0.855244 0
764 1 0.222772 0.846794 0
767 1 0.271111 0.832908 0
765 1 0.245488 0.836496 0
795 1 0.240534 0.863638 0
766 1 0.263447 0.856205 0
769 1 0.313985 0.844827 0
768 1 0.290159 0.850231 0
799 1 0.306867 0.868903 0
740 1 0.331795 0.826907 0
770 1 0.338361 0.850955 0
771 1 0.356258 0.832982 0
773 1 0.363337 0.856838 0
744 1 0.380547 0.839017 0
774 1 0.387504 0.86376 0
775 1 0.404518 0.846004 0
777 1 0.421392 0.828651 0
807 1 0.428298 0.852612 0
778 1 0.446648 0.835255 0
809 1 0.453931 0.858375 0
779 1 0.471793 0.841334 0
780 1 0.477972 0.864786 0
1651 1 0.496698 0.847487 0
812 1 0.0155476 0.891481 0
814 1 0.0329984 0.907794 0
813 1 0.0392209 0.883178 0
786 1 0.079285 0.87008 0
815 1 0.0563005 0.899945 0
816 1 0.0801176 0.894147 0
817 1 0.102348 0.881998 0
819 1 0.122215 0.899144 0
818 1 0.0988595 0.90844 0
821 1 0.168742 0.885448 0
820 1 0.145881 0.893618 0
851 1 0.165069 0.91024 0
792 1 0.193026 0.879125 0
793 1 0.216934 0.872026 0
823 1 0.212106 0.896068 0
822 1 0.188236 0.903462 0
794 1 0.235531 0.888754 0
796 1 0.259039 0.880807 0
827 1 0.253917 0.905904 0
825 1 0.230163 0.912835 0
797 1 0.283038 0.873654 0
798 1 0.278022 0.898163 0
800 1 0.301288 0.89312 0
831 1 0.319223 0.909256 0
772 1 0.346524 0.874568 0
801 1 0.32589 0.886315 0
802 1 0.350592 0.900578 0
803 1 0.370305 0.881842 0
804 1 0.377241 0.905388 0
805 1 0.394524 0.887186 0
776 1 0.411223 0.870284 0
806 1 0.417975 0.894882 0
808 1 0.435235 0.876769 0
839 1 0.441588 0.901781 0
1681 1 0.483356 0.889943 0
810 1 0.458748 0.882628 0
840 1 0.466362 0.906841 0
842 1 0.00328998 0.939797 0
843 1 0.00930489 0.915818 0
844 1 0.0270282 0.932674 0
875 1 0.0451681 0.949317 0
845 1 0.0508657 0.924704 0
846 1 0.0691041 0.940873 0
847 1 0.0747663 0.917185 0
848 1 0.0937619 0.933785 0
849 1 0.117449 0.924526 0
879 1 0.112068 0.950251 0
881 1 0.1353 0.941809 0
850 1 0.142055 0.917414 0
852 1 0.1592 0.935279 0
883 1 0.177298 0.952734 0
853 1 0.182793 0.928422 0
824 1 0.205973 0.920154 0
854 1 0.200724 0.945363 0
855 1 0.22517 0.937794 0
826 1 0.248268 0.930768 0
857 1 0.266137 0.948367 0
828 1 0.272332 0.924274 0
856 1 0.243094 0.955295 0
829 1 0.295149 0.91707 0
859 1 0.291209 0.94193 0
830 1 0.314025 0.933683 0
833 1 0.361066 0.923216 0
832 1 0.337089 0.924446 0
861 1 0.334042 0.950628 0
863 1 0.366313 0.947639 0
835 1 0.400669 0.912939 0
834 1 0.383988 0.930518 0
865 1 0.406862 0.938914 0
864 1 0.390322 0.956352 0
837 1 0.423484 0.919626 0
836 1 0.430894 0.944949 0
838 1 0.447713 0.926612 0
870 1 0.455033 0.950834 0
869 1 0.472461 0.932096 0
1711 1 0.490458 0.914375 0
1712 1 0.496524 0.939503 0
3 1 0.0348857 0.998951 0
873 1 0.0216836 0.957084 0
872 1 0.0169435 0.982074 0
874 1 0.0407908 0.97401 0
5 1 0.0593404 0.991533 0
876 1 0.0645215 0.966341 0
7 1 0.0820649 0.983004 0
877 1 0.0883857 0.957475 0
9 1 0.124752 0.993009 0
878 1 0.105929 0.975365 0
880 1 0.129679 0.968503 0
11 1 0.149438 0.984225 0
882 1 0.153907 0.959702 0
13 1 0.172816 0.97809 0
12 1 0.191183 0.994186 0
15 1 0.214615 0.987071 0
884 1 0.195683 0.969741 0
885 1 0.219752 0.96248 0
17 1 0.258154 0.997994 0
887 1 0.239122 0.980049 0
888 1 0.263747 0.973839 0
860 1 0.310718 0.958442 0
858 1 0.287463 0.966238 0
19 1 0.281998 0.991468 0
889 1 0.306164 0.983908 0
862 1 0.351422 0.967146 0
891 1 0.330555 0.976885 0
892 1 0.352291 0.991701 0
23 1 0.377296 0.998283 0
893 1 0.373487 0.97409 0
895 1 0.396465 0.98148 0
867 1 0.437093 0.97057 0
897 1 0.444705 0.994135 0
866 1 0.414253 0.962537 0
896 1 0.420436 0.987702 0
1771 1 0.486346 0.982771 0
1741 1 0.479599 0.957176 0
868 1 0.461635 0.97614 0
931 1 0.523546 0.0388849 0
901 1 0.516242 0.0137904 0
902 1 0.540294 0.0210889 0
904 1 0.565124 0.0280933 0
906 1 0.581917 0.00979345 0
905 1 0.558086 0.00342038 0
935 1 0.588498 0.0338408 0
908 1 0.605542 0.0167894 0
939 1 0.629918 0.0235132 0
937 1 0.612163 0.0411214 0
910 1 0.646586 0.00664303 0
941 1 0.654842 0.0318234 0
912 1 0.670903 0.0130862 0
942 1 0.679089 0.0375533 0
943 1 0.694298 0.0194611 0
945 1 0.718145 0.0252909 0
1784 1 0.720774 0.000887747 0
914 1 0.741979 0.020844 0
916 1 0.765039 0.0128017 0
947 1 0.759082 0.0371678 0
918 1 0.782435 0.0305002 0
919 1 0.805965 0.0234314 0
917 1 0.788793 0.00531607 0
951 1 0.824565 0.0404637 0
920 1 0.830495 0.0154216 0
922 1 0.848701 0.0323363 0
921 1 0.854733 0.00801915 0
923 1 0.872672 0.0245485 0
924 1 0.896047 0.0178388 0
954 1 0.890284 0.0424769 0
1792 1 0.879108 0.000925824 0
955 1 0.914675 0.03535 0
925 1 0.921227 0.010558 0
926 1 0.937947 0.0283195 0
928 1 0.944721 0.00320941 0
930 1 0.986787 0.0134243 0
959 1 0.962561 0.0203225 0
960 1 0.981644 0.0380761 0
932 1 0.529805 0.0632449 0
961 1 0.512392 0.0814171 0
60 1 0.505862 0.0560798 0
933 1 0.547368 0.0452556 0
963 1 0.554133 0.0689268 0
934 1 0.572307 0.0529476 0
965 1 0.577589 0.076394 0
936 1 0.595172 0.0588084 0
967 1 0.618789 0.0664359 0
966 1 0.601043 0.0844663 0
938 1 0.637095 0.0482673 0
969 1 0.64297 0.0737041 0
940 1 0.660819 0.0561737 0
970 1 0.66852 0.079676 0
944 1 0.702954 0.0437084 0
971 1 0.685183 0.0617843 0
973 1 0.710543 0.0675033 0
972 1 0.692957 0.0856131 0
975 1 0.728782 0.0489929 0
974 1 0.733755 0.0759074 0
946 1 0.75345 0.0608938 0
977 1 0.769496 0.0792663 0
949 1 0.800544 0.0483171 0
948 1 0.776564 0.0552541 0
979 1 0.794161 0.0734101 0
950 1 0.818409 0.0649143 0
980 1 0.837143 0.0816997 0
981 1 0.861534 0.0736797 0
952 1 0.842652 0.057618 0
953 1 0.866594 0.0499336 0
983 1 0.885382 0.0666276 0
984 1 0.903954 0.082879 0
985 1 0.908858 0.0591826 0
956 1 0.933146 0.0518601 0
986 1 0.927279 0.0759039 0
987 1 0.951316 0.0690277 0
957 1 0.957181 0.0440753 0
958 1 0.975084 0.0622108 0
989 1 0.993825 0.0785402 0
988 1 0.969923 0.0857098 0
61 1 0.999502 0.0547072 0
962 1 0.536567 0.0873432 0
991 1 0.518406 0.105533 0
993 1 0.541585 0.112616 0
992 1 0.524155 0.129534 0
964 1 0.559587 0.095404 0
994 1 0.56607 0.119637 0
995 1 0.583676 0.101469 0
996 1 0.590612 0.125331 0
968 1 0.625574 0.0910136 0
997 1 0.608502 0.108435 0
998 1 0.631984 0.114917 0
999 1 0.651044 0.097625 0
1000 1 0.657062 0.122246 0
1001 1 0.675839 0.105417 0
1031 1 0.682515 0.128762 0
1002 1 0.699846 0.110247 0
1003 1 0.717428 0.0935817 0
1004 1 0.724893 0.118024 0
976 1 0.765633 0.104758 0
1005 1 0.741412 0.100092 0
1035 1 0.749513 0.124046 0
978 1 0.813574 0.0900396 0
1007 1 0.789141 0.0969967 0
1006 1 0.783581 0.121798 0
1008 1 0.807117 0.114177 0
1009 1 0.831854 0.106525 0
1010 1 0.850687 0.122198 0
1011 1 0.855554 0.0979513 0
982 1 0.880063 0.0897368 0
1012 1 0.874539 0.113938 0
1013 1 0.899373 0.107203 0
1016 1 0.916446 0.124867 0
1017 1 0.945798 0.0927298 0
1015 1 0.922649 0.0995776 0
1047 1 0.940286 0.116788 0
1018 1 0.96366 0.109879 0
1019 1 0.988567 0.102797 0
1020 1 0.982465 0.127253 0
1022 1 0.531408 0.15359 0
1021 1 0.506903 0.147637 0
1051 1 0.513953 0.171226 0
1023 1 0.548183 0.136273 0
1024 1 0.555195 0.160035 0
1025 1 0.573597 0.143597 0
1055 1 0.579287 0.166623 0
1027 1 0.615582 0.13274 0
1026 1 0.598286 0.149992 0
1028 1 0.623065 0.156868 0
1057 1 0.604708 0.173729 0
1029 1 0.641033 0.140004 0
1059 1 0.647653 0.163505 0
1030 1 0.665461 0.146506 0
1061 1 0.672059 0.170697 0
1032 1 0.689898 0.153372 0
1033 1 0.707221 0.134428 0
1063 1 0.713901 0.159826 0
1034 1 0.731543 0.142296 0
1036 1 0.754698 0.149237 0
1065 1 0.737512 0.166571 0
1066 1 0.764115 0.172717 0
1067 1 0.77829 0.146984 0
1037 1 0.802015 0.138191 0
1038 1 0.797076 0.162232 0
1039 1 0.826051 0.130308 0
1040 1 0.820291 0.153927 0
1071 1 0.838603 0.171669 0
1041 1 0.843529 0.146514 0
1042 1 0.862625 0.163379 0
1014 1 0.892273 0.132114 0
1043 1 0.868697 0.138868 0
1044 1 0.886111 0.155946 0
1075 1 0.904377 0.172783 0
1045 1 0.910291 0.149343 0
1046 1 0.934412 0.142599 0
1048 1 0.952955 0.158918 0
1077 1 0.92826 0.166354 0
1049 1 0.95819 0.133981 0
1050 1 0.97657 0.151681 0
151 1 0.994602 0.168458 0
1053 1 0.538171 0.17782 0
1052 1 0.520857 0.195197 0
1081 1 0.503039 0.213751 0
1083 1 0.544382 0.203236 0
1054 1 0.561708 0.185783 0
1056 1 0.585756 0.191187 0
1085 1 0.56888 0.209757 0
1058 1 0.628844 0.180345 0
1087 1 0.610387 0.197814 0
1089 1 0.634458 0.204308 0
1086 1 0.593271 0.216288 0
1060 1 0.652749 0.188063 0
1091 1 0.677382 0.195692 0
1090 1 0.659017 0.21246 0
1062 1 0.696179 0.177457 0
1093 1 0.700027 0.203172 0
1064 1 0.71904 0.184488 0
1094 1 0.724248 0.208426 0
1095 1 0.743664 0.190721 0
1097 1 0.766192 0.198857 0
1096 1 0.747746 0.215178 0
1069 1 0.814696 0.180426 0
1068 1 0.787272 0.184036 0
1098 1 0.788343 0.209222 0
1099 1 0.811668 0.204818 0
1070 1 0.833674 0.195772 0
1072 1 0.856743 0.188488 0
1101 1 0.851244 0.213328 0
1073 1 0.880917 0.180532 0
1103 1 0.875703 0.205221 0
1074 1 0.898947 0.197007 0
1105 1 0.916789 0.214665 0
1078 1 0.947089 0.1831 0
1076 1 0.922702 0.190092 0
1107 1 0.940479 0.207221 0
1079 1 0.970849 0.175675 0
1109 1 0.964857 0.200354 0
181 1 0.988568 0.192903 0
1110 1 0.983249 0.217197 0
1082 1 0.527126 0.221075 0
1111 1 0.509615 0.238543 0
1113 1 0.534355 0.245991 0
1084 1 0.551021 0.227561 0
1114 1 0.55812 0.252446 0
1115 1 0.57577 0.234951 0
1116 1 0.581895 0.259459 0
1088 1 0.617251 0.223321 0
1117 1 0.599155 0.240409 0
1118 1 0.622343 0.248803 0
1119 1 0.641008 0.230664 0
1121 1 0.664171 0.238002 0
1120 1 0.646273 0.255474 0
1092 1 0.682283 0.220779 0
1122 1 0.688251 0.244688 0
1123 1 0.706134 0.227451 0
1124 1 0.712137 0.251385 0
1125 1 0.730346 0.233865 0
1126 1 0.752819 0.241687 0
1127 1 0.770297 0.22454 0
1155 1 0.735341 0.258239 0
1129 1 0.802693 0.228829 0
1128 1 0.776081 0.248772 0
1159 1 0.799206 0.252985 0
1100 1 0.829075 0.221967 0
1130 1 0.82215 0.245779 0
1131 1 0.845875 0.239152 0
1132 1 0.862841 0.25566 0
1102 1 0.869375 0.230871 0
1104 1 0.892901 0.22198 0
1133 1 0.887419 0.247513 0
1135 1 0.910685 0.240235 0
1136 1 0.929962 0.256911 0
1106 1 0.934656 0.232234 0
1137 1 0.953512 0.248337 0
1108 1 0.959658 0.224547 0