ITEM: TIMESTEP
94000
ITEM: NUMBER OF ATOMS
1800
ITEM: BOX BOUNDS pp pp pp
1.2987024857280289e+00 1.6370129751427072e+02
1.2987024857280289e+00 1.6370129751427072e+02
0.0000000000000000e+00 5.5000000000000000e+00
ITEM: ATOMS id type xs ys zs
2 1 0.0103902 0.00447971 0
33 1 0.0286254 0.0213499 0
31 1 0.0053411 0.0296529 0
4 1 0.0528727 0.0148772 0
6 1 0.0772827 0.00700555 0
35 1 0.071068 0.0314564 0
34 1 0.0465887 0.0390536 0
37 1 0.0951002 0.0243025 0
39 1 0.119329 0.0170428 0
38 1 0.112795 0.0410335 0
40 1 0.136652 0.0338281 0
10 1 0.142344 0.00954707 0
41 1 0.166972 0.00204413 0
42 1 0.160864 0.0262679 0
43 1 0.184929 0.0204041 0
14 1 0.208719 0.0130948 0
44 1 0.203227 0.0366436 0
45 1 0.226631 0.0291595 0
16 1 0.250508 0.0225706 0
886 1 0.232206 0.00549135 0
46 1 0.269259 0.0393449 0
18 1 0.275026 0.0151064 0
49 1 0.293418 0.0324292 0
20 1 0.298845 0.00814832 0
51 1 0.317744 0.0276397 0
22 1 0.342027 0.0347012 0
21 1 0.358957 0.0168586 0
890 1 0.323276 0.00329013 0
24 1 0.384701 0.0222272 0
53 1 0.366773 0.0406113 0
894 1 0.401583 0.00440268 0
25 1 0.409263 0.0288169 0
26 1 0.43258 0.0360536 0
27 1 0.426587 0.0109775 0
898 1 0.450956 0.0191012 0
29 1 0.474007 0.0252655 0
900 1 0.492827 0.00688594 0
899 1 0.467738 0.00067733 0
30 1 0.498531 0.0317303 0
32 1 0.0234311 0.0461734 0
62 1 0.0176045 0.0710444 0
63 1 0.0409537 0.0632389 0
61 1 -0.000546775 0.0535237 0
65 1 0.0653798 0.0560849 0
66 1 0.0840385 0.0727936 0
64 1 0.060186 0.0803052 0
36 1 0.0888053 0.0483059 0
67 1 0.10757 0.0658526 0
69 1 0.131019 0.0573427 0
68 1 0.125534 0.0820575 0
71 1 0.155516 0.0500926 0
72 1 0.173821 0.0678023 0
70 1 0.149546 0.0743593 0
73 1 0.178787 0.0444245 0
74 1 0.220755 0.0535402 0
103 1 0.197428 0.0613298 0
105 1 0.215169 0.0789805 0
101 1 0.19194 0.0864245 0
75 1 0.245563 0.0464888 0
77 1 0.262746 0.0639057 0
76 1 0.238927 0.0715427 0
47 1 0.287291 0.0567277 0
48 1 0.305713 0.072254 0
78 1 0.281824 0.0802703 0
50 1 0.323303 0.0514005 0
81 1 0.330042 0.0762124 0
52 1 0.348845 0.058743 0
82 1 0.354824 0.0828287 0
55 1 0.391053 0.0466034 0
83 1 0.373457 0.0643088 0
54 1 0.397155 0.0712608 0
57 1 0.439126 0.0596803 0
85 1 0.422399 0.078507 0
56 1 0.415238 0.0530592 0
87 1 0.445643 0.0847628 0
28 1 0.456754 0.0427203 0
59 1 0.480808 0.0498303 0
58 1 0.463414 0.0676531 0
89 1 0.487107 0.0756897 0
990 1 0.0110795 0.0955754 0
92 1 0.0288786 0.112528 0
93 1 0.0361322 0.0882701 0
91 1 0.00563875 0.120798 0
94 1 0.0538222 0.105367 0
95 1 0.0776338 0.0973989 0
125 1 0.0724105 0.122246 0
123 1 0.0481016 0.129528 0
96 1 0.0963765 0.115222 0
97 1 0.102062 0.0904543 0
98 1 0.120554 0.107637 0
99 1 0.144618 0.0996424 0
100 1 0.167473 0.0919165 0
130 1 0.162604 0.117286 0
129 1 0.138796 0.12431 0
131 1 0.186141 0.111031 0
102 1 0.209311 0.103315 0
133 1 0.203737 0.127999 0
104 1 0.2271 0.120048 0
137 1 0.256796 0.0888147 0
106 1 0.233281 0.0960024 0
135 1 0.250962 0.113327 0
107 1 0.274904 0.105023 0
109 1 0.297518 0.112663 0
79 1 0.313953 0.0949461 0
108 1 0.280055 0.129536 0
80 1 0.338198 0.100987 0
110 1 0.321521 0.118569 0
141 1 0.345057 0.124515 0
111 1 0.362634 0.107233 0
113 1 0.379335 0.0894973 0
84 1 0.404249 0.0958866 0
112 1 0.385985 0.11399 0
115 1 0.410504 0.120253 0
86 1 0.42814 0.102538 0
116 1 0.434976 0.126935 0
117 1 0.452855 0.108935 0
88 1 0.469473 0.0917582 0
90 1 0.495002 0.0998643 0
119 1 0.476849 0.117172 0
120 1 0.500983 0.124157 0
122 1 0.0244154 0.13755 0
153 1 0.0424109 0.154103 0
152 1 0.0188174 0.162434 0
121 1 0.000772959 0.145121 0
124 1 0.0667947 0.146015 0
155 1 0.0849141 0.163506 0
154 1 0.0610743 0.170606 0
126 1 0.0903056 0.139267 0
127 1 0.114543 0.132051 0
128 1 0.13323 0.148718 0
157 1 0.109057 0.156182 0
158 1 0.126892 0.173421 0
159 1 0.15636 0.142464 0
161 1 0.175018 0.160504 0
160 1 0.15129 0.166639 0
132 1 0.180503 0.136274 0
163 1 0.198491 0.152375 0
134 1 0.222046 0.145088 0
193 1 0.218357 0.169884 0
136 1 0.264284 0.148532 0
165 1 0.244333 0.136142 0
164 1 0.24316 0.162432 0
167 1 0.270048 0.171117 0
139 1 0.304602 0.136155 0
138 1 0.287834 0.153953 0
169 1 0.310987 0.160622 0
140 1 0.328346 0.142697 0
142 1 0.352254 0.149165 0
171 1 0.335306 0.167125 0
172 1 0.359033 0.175276 0
143 1 0.369241 0.131905 0
114 1 0.393413 0.138287 0
173 1 0.37582 0.157089 0
144 1 0.400363 0.162552 0
145 1 0.41749 0.145362 0
146 1 0.424825 0.169138 0
147 1 0.441663 0.150929 0
118 1 0.459206 0.13472 0
149 1 0.483373 0.142277 0
148 1 0.466573 0.159356 0
150 1 0.490406 0.166647 0
183 1 0.0374537 0.178369 0
182 1 0.0313752 0.202502 0
1080 1 0.0132708 0.18641 0
211 1 0.00731521 0.210453 0
184 1 0.055603 0.1954 0
185 1 0.0786306 0.187306 0
215 1 0.0745133 0.211962 0
186 1 0.0973547 0.204987 0
156 1 0.102866 0.180664 0
187 1 0.120129 0.197113 0
189 1 0.145555 0.190912 0
191 1 0.169994 0.184945 0
190 1 0.162736 0.208776 0
188 1 0.138913 0.214623 0
221 1 0.18713 0.203264 0
162 1 0.193305 0.177328 0
192 1 0.210536 0.194845 0
195 1 0.234383 0.203375 0
166 1 0.251569 0.186686 0
196 1 0.258398 0.210991 0
168 1 0.293925 0.178019 0
197 1 0.276319 0.194368 0
199 1 0.300518 0.202228 0
170 1 0.317357 0.185044 0
201 1 0.340945 0.192169 0
200 1 0.324016 0.209658 0
202 1 0.347944 0.216956 0
203 1 0.365338 0.199003 0
174 1 0.382856 0.181533 0
204 1 0.390139 0.204847 0
175 1 0.407054 0.186257 0
177 1 0.44933 0.176317 0
205 1 0.413579 0.210769 0
176 1 0.431542 0.193503 0
178 1 0.454445 0.20068 0
179 1 0.472666 0.184036 0
180 1 0.496269 0.190679 0
209 1 0.478129 0.208304 0
212 1 0.0259996 0.227031 0
243 1 0.0443325 0.24405 0
241 1 0.020401 0.251301 0
1140 1 0.00170531 0.234958 0
213 1 0.0496534 0.219598 0
214 1 0.0681994 0.236523 0
245 1 0.0863637 0.255654 0
216 1 0.0924099 0.229625 0
217 1 0.115237 0.22222 0
218 1 0.133119 0.237885 0
247 1 0.110982 0.248095 0
219 1 0.158301 0.239353 0
220 1 0.179864 0.227259 0
222 1 0.180368 0.2525 0
249 1 0.142309 0.259452 0
223 1 0.201101 0.239662 0
194 1 0.216772 0.220292 0
224 1 0.223744 0.246571 0
225 1 0.240502 0.228792 0
227 1 0.264473 0.235379 0
226 1 0.247083 0.25317 0
198 1 0.283069 0.219532 0
228 1 0.288679 0.244285 0
229 1 0.306528 0.227128 0
230 1 0.313002 0.250857 0
231 1 0.33041 0.233937 0
232 1 0.35469 0.241214 0
261 1 0.336639 0.257648 0
233 1 0.372602 0.22295 0
234 1 0.379109 0.247347 0
235 1 0.396775 0.229048 0
265 1 0.402797 0.254198 0
207 1 0.437133 0.218122 0
206 1 0.420236 0.236647 0
237 1 0.444129 0.244428 0
208 1 0.459772 0.225546 0
210 1 0.484804 0.23237 0
239 1 0.46778 0.251158 0
240 1 0.491417 0.257846 0
242 1 0.0379275 0.268029 0
271 1 0.0318962 0.290693 0
1170 1 0.0138038 0.27554 0
1200 1 0.00964185 0.300345 0
273 1 0.0557917 0.287067 0
244 1 0.0621587 0.261272 0
275 1 0.079966 0.279308 0
246 1 0.102711 0.290087 0
248 1 0.12111 0.273364 0
279 1 0.125913 0.299021 0
251 1 0.164179 0.268889 0
250 1 0.145247 0.284088 0
281 1 0.167753 0.294248 0
253 1 0.205941 0.263614 0
252 1 0.187337 0.277775 0
254 1 0.210238 0.288094 0
283 1 0.190987 0.303711 0
257 1 0.270439 0.260855 0
255 1 0.229614 0.271183 0
256 1 0.25303 0.278549 0
285 1 0.234547 0.29587 0
287 1 0.25787 0.3038 0
259 1 0.293841 0.269174 0
258 1 0.275801 0.286524 0
289 1 0.300019 0.293628 0
260 1 0.317997 0.275698 0
263 1 0.360659 0.265019 0
262 1 0.342299 0.282494 0
291 1 0.324626 0.299276 0
293 1 0.36622 0.289897 0
264 1 0.384914 0.272029 0
295 1 0.391318 0.296516 0
266 1 0.409191 0.279394 0
236 1 0.426343 0.261478 0
238 1 0.449728 0.268136 0
267 1 0.432828 0.286381 0
297 1 0.414352 0.304063 0
268 1 0.456048 0.292632 0
1141 1 0.497449 0.282571 0
269 1 0.47365 0.275008 0
270 1 0.480399 0.300059 0
301 1 0.0206336 0.322938 0
272 1 0.0421332 0.311762 0
1230 1 0.00276674 0.340331 0
303 1 0.0450242 0.336185 0
276 1 0.0832636 0.304218 0
274 1 0.0648521 0.320874 0
305 1 0.087405 0.330798 0
304 1 0.0673889 0.345891 0
277 1 0.107248 0.315433 0
278 1 0.129909 0.324788 0
307 1 0.109996 0.340725 0
280 1 0.148499 0.309308 0
311 1 0.153115 0.33485 0
282 1 0.172222 0.319367 0
312 1 0.177139 0.344271 0
284 1 0.214437 0.313121 0
313 1 0.195715 0.327894 0
315 1 0.219325 0.337738 0
286 1 0.238523 0.320232 0
317 1 0.261386 0.328309 0
316 1 0.243297 0.345888 0
288 1 0.281382 0.310398 0
318 1 0.286419 0.335474 0
290 1 0.305026 0.317534 0
319 1 0.311208 0.341517 0
292 1 0.348421 0.30726 0
321 1 0.329238 0.323324 0
323 1 0.354795 0.331111 0
324 1 0.37851 0.337176 0
294 1 0.372603 0.313613 0
325 1 0.402873 0.34503 0
296 1 0.396072 0.321097 0
298 1 0.439169 0.311043 0
327 1 0.421504 0.327845 0
328 1 0.445571 0.334983 0
329 1 0.469618 0.341875 0
299 1 0.462622 0.317564 0
300 1 0.486573 0.324005 0
302 1 0.02476 0.349241 0
332 1 0.0274355 0.37483 0
331 1 0.00534384 0.364752 0
361 1 0.00796669 0.38957 0
333 1 0.0472931 0.360254 0
335 1 0.0702323 0.370386 0
334 1 0.0495599 0.384462 0
306 1 0.090221 0.355323 0
337 1 0.0937577 0.380447 0
308 1 0.113578 0.365125 0
309 1 0.132976 0.349931 0
338 1 0.116153 0.390037 0
339 1 0.136742 0.374336 0
310 1 0.156967 0.359273 0
341 1 0.1599 0.383957 0
343 1 0.179399 0.368862 0
314 1 0.200324 0.352733 0
344 1 0.202592 0.377824 0
345 1 0.223624 0.362913 0
375 1 0.225833 0.387014 0
347 1 0.267316 0.352291 0
346 1 0.248939 0.370878 0
377 1 0.272361 0.377589 0
349 1 0.293112 0.360064 0
348 1 0.297187 0.384469 0
350 1 0.318668 0.364738 0
320 1 0.336339 0.347079 0
351 1 0.344197 0.371421 0
381 1 0.32685 0.388315 0
322 1 0.361306 0.355046 0
353 1 0.367719 0.379451 0
355 1 0.384814 0.361774 0
354 1 0.391632 0.38773 0
356 1 0.409732 0.369993 0
326 1 0.427127 0.352064 0
357 1 0.433505 0.376656 0
359 1 0.451543 0.358735 0
1201 1 0.493472 0.348041 0
358 1 0.457845 0.382961 0
330 1 0.475591 0.366246 0
360 1 0.481226 0.390924 0
1231 1 0.499572 0.372606 0
363 1 0.0303927 0.400269 0
362 1 0.0106651 0.415094 0
364 1 0.0342839 0.424796 0
336 1 0.0741419 0.395378 0
365 1 0.0537829 0.409616 0
366 1 0.0774722 0.419436 0
367 1 0.0975037 0.404934 0
369 1 0.120015 0.415007 0
368 1 0.100182 0.430003 0
340 1 0.138515 0.398504 0
370 1 0.143171 0.423146 0
371 1 0.162534 0.407959 0
401 1 0.166311 0.432678 0
342 1 0.182724 0.393364 0
372 1 0.185471 0.417845 0
373 1 0.205589 0.403457 0
403 1 0.207993 0.428086 0
374 1 0.228759 0.412298 0
376 1 0.24839 0.395891 0
405 1 0.25148 0.421538 0
378 1 0.272561 0.405294 0
379 1 0.309993 0.405181 0
409 1 0.29137 0.419861 0
410 1 0.314658 0.429466 0
407 1 0.271937 0.4338 0
352 1 0.350784 0.396572 0
382 1 0.356736 0.422287 0
380 1 0.333655 0.413476 0
383 1 0.373935 0.404821 0
385 1 0.398243 0.411727 0
384 1 0.380347 0.429102 0
387 1 0.415398 0.395066 0
386 1 0.422076 0.418989 0
388 1 0.439516 0.400875 0
419 1 0.44499 0.425694 0
389 1 0.463408 0.407621 0
1261 1 0.48685 0.415756 0
390 1 0.468495 0.432266 0
393 1 0.014095 0.439317 0
423 1 0.0170979 0.464057 0
394 1 0.0381918 0.449263 0
425 1 0.0396717 0.473999 0
395 1 0.0571463 0.434214 0
396 1 0.0610198 0.460371 0
397 1 0.0796573 0.444811 0
427 1 0.0838884 0.469831 0
399 1 0.123382 0.439206 0
398 1 0.103586 0.454931 0
429 1 0.126486 0.463897 0
400 1 0.146886 0.448485 0
431 1 0.169277 0.458595 0
430 1 0.149087 0.473079 0
402 1 0.188929 0.44369 0
433 1 0.211233 0.453823 0
432 1 0.191204 0.469404 0
404 1 0.231071 0.436622 0
406 1 0.252426 0.447745 0
435 1 0.23435 0.463424 0
436 1 0.256218 0.473809 0
437 1 0.275661 0.458757 0
408 1 0.294936 0.444331 0
439 1 0.299182 0.468334 0
441 1 0.318776 0.453529 0
413 1 0.360861 0.447111 0
411 1 0.337982 0.438532 0
412 1 0.342637 0.463607 0
440 1 0.322729 0.478321 0
415 1 0.403774 0.436662 0
414 1 0.385112 0.453436 0
443 1 0.366952 0.471927 0
416 1 0.409503 0.461938 0
417 1 0.427708 0.444993 0
418 1 0.4519 0.451386 0
447 1 0.433094 0.468965 0
1291 1 0.492818 0.440367 0
420 1 0.475111 0.458339 0
449 1 0.457325 0.475734 0
1321 1 0.499829 0.464265 0
454 1 0.0213396 0.513371 0
424 1 0.0192893 0.488335 0
455 1 0.0414106 0.498799 0
426 1 0.0626099 0.485332 0
456 1 0.064749 0.509784 0
457 1 0.0846188 0.494794 0
487 1 0.0874126 0.519541 0
428 1 0.106142 0.478911 0
459 1 0.128559 0.488227 0
458 1 0.107738 0.504187 0
489 1 0.131974 0.514169 0
461 1 0.171654 0.484012 0
460 1 0.151746 0.498492 0
462 1 0.175137 0.508854 0
434 1 0.21465 0.47931 0
463 1 0.195382 0.494784 0
464 1 0.218054 0.503955 0
493 1 0.196512 0.519259 0
465 1 0.237558 0.488657 0
467 1 0.259782 0.499001 0
466 1 0.239872 0.513675 0
438 1 0.280165 0.483309 0
469 1 0.302971 0.493573 0
468 1 0.28357 0.508794 0
470 1 0.306542 0.518173 0
442 1 0.346391 0.487365 0
471 1 0.326271 0.502616 0
473 1 0.351163 0.511889 0
445 1 0.391605 0.47854 0
444 1 0.371592 0.496149 0
475 1 0.395451 0.503891 0
474 1 0.374647 0.520367 0
446 1 0.414301 0.486617 0
477 1 0.421233 0.510888 0
448 1 0.438873 0.493439 0
478 1 0.446015 0.517644 0
450 1 0.481742 0.481534 0
479 1 0.462716 0.499296 0
1381 1 0.488584 0.50614 0
452 1 0.000672874 0.526958 0
483 1 0.0237679 0.537794 0
482 1 0.00355072 0.552239 0
513 1 0.0267408 0.562754 0
485 1 0.0446115 0.523165 0
484 1 0.0459646 0.548122 0
486 1 0.0674167 0.534061 0
515 1 0.0696863 0.559735 0
517 1 0.0898292 0.545327 0
488 1 0.110359 0.528521 0
519 1 0.11345 0.553194 0
490 1 0.134862 0.538296 0
520 1 0.136034 0.564171 0
491 1 0.154612 0.522983 0
521 1 0.157491 0.548504 0
492 1 0.177362 0.533505 0
523 1 0.17996 0.558909 0
494 1 0.20026 0.544402 0
495 1 0.220236 0.528998 0
525 1 0.224213 0.553701 0
496 1 0.24402 0.538571 0
497 1 0.263345 0.523001 0
527 1 0.267692 0.547549 0
526 1 0.247334 0.563366 0
499 1 0.309482 0.542869 0
498 1 0.286941 0.532538 0
529 1 0.2897 0.557937 0
472 1 0.329399 0.526895 0
501 1 0.332402 0.550971 0
502 1 0.353937 0.560748 0
503 1 0.35483 0.536353 0
505 1 0.378769 0.544511 0
476 1 0.402743 0.530622 0
506 1 0.413299 0.55437 0
507 1 0.428671 0.535437 0
508 1 0.438725 0.561747 0
509 1 0.454079 0.542418 0
480 1 0.471266 0.523428 0
510 1 0.479296 0.548021 0
1382 1 0.496438 0.529179 0
512 1 0.0289372 0.587387 0
511 1 0.00523176 0.577987 0
541 1 0.00888595 0.602271 0
514 1 0.049762 0.573885 0
545 1 0.0728462 0.585706 0
543 1 0.0520175 0.599737 0
516 1 0.0927514 0.569581 0
518 1 0.116079 0.578864 0
547 1 0.094981 0.594747 0
548 1 0.118968 0.603915 0
549 1 0.139456 0.588995 0
522 1 0.160378 0.573343 0
551 1 0.163157 0.598092 0
553 1 0.183741 0.583626 0
524 1 0.203367 0.569118 0
554 1 0.207062 0.59392 0
555 1 0.227193 0.579105 0
556 1 0.229729 0.604018 0
557 1 0.250233 0.588649 0
528 1 0.269654 0.572998 0
558 1 0.273451 0.598033 0
500 1 0.312375 0.566999 0
559 1 0.2924 0.582159 0
530 1 0.315581 0.591317 0
560 1 0.296616 0.607115 0
531 1 0.334477 0.576119 0
532 1 0.338203 0.601609 0
533 1 0.357284 0.584809 0
504 1 0.37572 0.568661 0
534 1 0.380116 0.59216 0
535 1 0.398772 0.574514 0
536 1 0.404149 0.598985 0
537 1 0.42242 0.579799 0
567 1 0.427879 0.603971 0
538 1 0.445618 0.586416 0
539 1 0.46255 0.566575 0
540 1 0.487133 0.571824 0
569 1 0.470178 0.59029 0
1441 1 0.49368 0.596925 0
542 1 0.0307802 0.613379 0
571 1 0.0105265 0.626775 0
573 1 0.0334003 0.637776 0
572 1 0.0139686 0.651669 0
546 1 0.0750725 0.610668 0
544 1 0.0546026 0.62444 0
575 1 0.0791994 0.63488 0
574 1 0.057975 0.649052 0
577 1 0.0986269 0.619261 0
579 1 0.122786 0.628735 0
576 1 0.102882 0.644317 0
550 1 0.143434 0.614086 0
581 1 0.166306 0.624595 0
580 1 0.145797 0.639094 0
611 1 0.168634 0.649005 0
552 1 0.186066 0.608266 0
582 1 0.189223 0.633542 0
583 1 0.208751 0.61808 0
584 1 0.213623 0.644399 0
585 1 0.23234 0.628278 0
586 1 0.256901 0.637269 0
587 1 0.253652 0.613422 0
589 1 0.277505 0.622999 0
590 1 0.299537 0.632068 0
588 1 0.280445 0.647593 0
561 1 0.319113 0.6166 0
563 1 0.361719 0.609741 0
562 1 0.341662 0.626055 0
591 1 0.323261 0.642968 0
593 1 0.346834 0.651371 0
565 1 0.385553 0.616406 0
564 1 0.366535 0.633475 0
595 1 0.391473 0.639884 0
566 1 0.409467 0.622558 0
568 1 0.452199 0.609853 0
596 1 0.416246 0.647295 0
597 1 0.434221 0.627664 0
599 1 0.44105 0.652605 0
570 1 0.476146 0.616119 0
600 1 0.458672 0.634806 0
1471 1 0.483001 0.640088 0
1442 1 0.500117 0.622402 0
602 1 0.0162647 0.676208 0
603 1 0.0371205 0.663307 0
633 1 0.040886 0.687905 0
605 1 0.08228 0.659842 0
604 1 0.0608763 0.672995 0
606 1 0.085056 0.685311 0
578 1 0.125944 0.654414 0
607 1 0.105391 0.669953 0
608 1 0.127959 0.680215 0
609 1 0.14868 0.664956 0
610 1 0.17275 0.673327 0
639 1 0.151733 0.688954 0
612 1 0.196025 0.683964 0
613 1 0.19251 0.658875 0
614 1 0.21666 0.669272 0
643 1 0.218892 0.694013 0
615 1 0.236734 0.653731 0
616 1 0.239792 0.678951 0
617 1 0.260685 0.663003 0
647 1 0.263531 0.688149 0
619 1 0.303744 0.657272 0
618 1 0.28344 0.672122 0
620 1 0.307635 0.681615 0
621 1 0.329197 0.66727 0
592 1 0.355103 0.675158 0
622 1 0.336975 0.692111 0
594 1 0.371755 0.65746 0
625 1 0.398006 0.664277 0
623 1 0.380932 0.682425 0
626 1 0.405347 0.689134 0
598 1 0.448363 0.676908 0
627 1 0.422971 0.671206 0
657 1 0.429922 0.694491 0
628 1 0.472838 0.682574 0
629 1 0.465417 0.657675 0
1501 1 0.490023 0.664283 0
630 1 0.495514 0.689933 0
632 1 0.0191566 0.701005 0
663 1 0.0227546 0.724679 0
634 1 0.0439987 0.712979 0
661 1 0.00058658 0.739284 0
635 1 0.0645986 0.699272 0
636 1 0.0872756 0.711133 0
665 1 0.0662176 0.724988 0
637 1 0.107792 0.696132 0
666 1 0.089627 0.736027 0
638 1 0.131397 0.704513 0
667 1 0.110627 0.721202 0
669 1 0.134716 0.729444 0
641 1 0.174833 0.69868 0
640 1 0.155155 0.713525 0
671 1 0.178278 0.723282 0
670 1 0.159042 0.73861 0
642 1 0.198454 0.70861 0
673 1 0.20196 0.732964 0
644 1 0.221893 0.718264 0
645 1 0.242495 0.703239 0
675 1 0.244651 0.727199 0
646 1 0.265133 0.712262 0
677 1 0.267919 0.737083 0
649 1 0.286854 0.696827 0
648 1 0.287394 0.721288 0
679 1 0.309038 0.729594 0
650 1 0.315759 0.705355 0
651 1 0.346046 0.716479 0
681 1 0.331502 0.736629 0
653 1 0.363123 0.69919 0
624 1 0.387978 0.706633 0
654 1 0.370839 0.72386 0
685 1 0.394866 0.730568 0
655 1 0.412464 0.712987 0
656 1 0.437423 0.718947 0
686 1 0.418903 0.736784 0
658 1 0.454477 0.701042 0
687 1 0.461905 0.725801 0
659 1 0.478946 0.70714 0
689 1 0.485975 0.731998 0
662 1 0.0228305 0.748509 0
693 1 0.0275482 0.772676 0
691 1 0.00323457 0.764796 0
664 1 0.0463889 0.740626 0
695 1 0.0706614 0.753424 0
694 1 0.0548672 0.773597 0
696 1 0.0786044 0.780401 0
697 1 0.0951872 0.762334 0
668 1 0.113831 0.745307 0
698 1 0.120444 0.769656 0
699 1 0.139679 0.755045 0
701 1 0.16319 0.763368 0
700 1 0.144439 0.779936 0
672 1 0.182736 0.748244 0
702 1 0.187056 0.772877 0
674 1 0.225395 0.74214 0
703 1 0.206172 0.757387 0
704 1 0.209742 0.782669 0
705 1 0.229134 0.767543 0
676 1 0.249022 0.752195 0
707 1 0.270948 0.763351 0
735 1 0.25125 0.778244 0
678 1 0.290459 0.746102 0
709 1 0.294762 0.770656 0
680 1 0.314067 0.753721 0
710 1 0.318702 0.776823 0
652 1 0.355375 0.742626 0
682 1 0.361688 0.767899 0
711 1 0.337519 0.760555 0
683 1 0.377718 0.749259 0
713 1 0.385885 0.77268 0
684 1 0.401895 0.754084 0
716 1 0.409193 0.779067 0
717 1 0.443254 0.743045 0
715 1 0.42646 0.761199 0
718 1 0.451298 0.767218 0
690 1 0.493163 0.756237 0
688 1 0.467983 0.749516 0
719 1 0.47489 0.774415 0
1591 1 0.500248 0.779861 0
692 1 0.00977982 0.78995 0
722 1 0.0169944 0.813239 0
723 1 0.0352127 0.795323 0
724 1 0.0429497 0.819092 0
725 1 0.0600652 0.799347 0
726 1 0.085206 0.805582 0
755 1 0.0672603 0.823683 0
727 1 0.103326 0.787055 0
728 1 0.126207 0.795728 0
757 1 0.109561 0.812807 0
759 1 0.134433 0.822289 0
729 1 0.150654 0.80368 0
730 1 0.177897 0.811349 0
731 1 0.16854 0.788016 0
732 1 0.203835 0.806155 0
734 1 0.231804 0.821845 0
733 1 0.231102 0.796356 0
736 1 0.256249 0.815269 0
737 1 0.283335 0.811205 0
706 1 0.276059 0.78803 0
708 1 0.300804 0.79481 0
738 1 0.307567 0.818822 0
739 1 0.325823 0.801447 0
741 1 0.344106 0.784466 0
742 1 0.350039 0.808328 0
712 1 0.367589 0.791147 0
714 1 0.391053 0.796637 0
743 1 0.373531 0.815382 0
745 1 0.398154 0.821319 0
746 1 0.415118 0.803315 0
747 1 0.433902 0.785363 0
748 1 0.439497 0.808986 0
749 1 0.458103 0.791825 0
720 1 0.482035 0.797883 0
750 1 0.464445 0.815826 0
1621 1 0.488625 0.822968 0
752 1 0.00533346 0.851795 0
753 1 0.0247591 0.837032 0
783 1 0.0307863 0.860699 0
754 1 0.0491347 0.842952 0
785 1 0.0737227 0.84735 0
784 1 0.0560287 0.866057 0
756 1 0.0917158 0.830322 0
758 1 0.115201 0.837806 0
787 1 0.0997782 0.856159 0
788 1 0.125163 0.866953 0
760 1 0.15938 0.827954 0
789 1 0.1389 0.846722 0
761 1 0.182768 0.836986 0
791 1 0.174693 0.861353 0
790 1 0.151048 0.868723 0
763 1 0.206101 0.830077 0
762 1 0.200834 0.854437 0
764 1 0.224645 0.847147 0
767 1 0.272847 0.83381 0
765 1 0.24838 0.840153 0
795 1 0.242033 0.865271 0
766 1 0.26567 0.858551 0
769 1 0.313262 0.842837 0
768 1 0.289426 0.851779 0
799 1 0.309558 0.866778 0
740 1 0.332091 0.825841 0
770 1 0.338024 0.851282 0
771 1 0.356271 0.833305 0
773 1 0.363847 0.856842 0
744 1 0.380898 0.839306 0
774 1 0.386714 0.86453 0
775 1 0.405719 0.845325 0
777 1 0.422527 0.827241 0
807 1 0.43013 0.852577 0
778 1 0.44729 0.833297 0
809 1 0.454099 0.859596 0
779 1 0.471379 0.84139 0
780 1 0.478028 0.865727 0
1651 1 0.495741 0.848178 0
812 1 0.0148576 0.89185 0
814 1 0.0338948 0.908236 0
813 1 0.0388324 0.884065 0
786 1 0.0806098 0.871136 0
815 1 0.0574351 0.899158 0
816 1 0.0804592 0.894222 0
817 1 0.102621 0.883087 0
819 1 0.121018 0.8999 0
818 1 0.0987551 0.910023 0
821 1 0.169522 0.885722 0
820 1 0.14537 0.893447 0
851 1 0.164668 0.910449 0
792 1 0.193735 0.879104 0
793 1 0.21833 0.873289 0
823 1 0.213268 0.896536 0
822 1 0.189054 0.9036 0
794 1 0.237215 0.889934 0
796 1 0.260837 0.882703 0
827 1 0.254644 0.906943 0
797 1 0.283769 0.875292 0
798 1 0.278323 0.900419 0
800 1 0.301975 0.89083 0
831 1 0.318948 0.908354 0
772 1 0.347367 0.874202 0
801 1 0.326538 0.8857 0
802 1 0.350491 0.900792 0
803 1 0.370441 0.883638 0
804 1 0.378024 0.907259 0
805 1 0.394597 0.88842 0
835 1 0.401771 0.912583 0
776 1 0.411175 0.870199 0
806 1 0.419741 0.895682 0
808 1 0.436734 0.877687 0
839 1 0.444284 0.90247 0
1681 1 0.484058 0.890595 0
810 1 0.460443 0.883134 0
840 1 0.468128 0.90856 0
842 1 0.00456758 0.940617 0
843 1 0.00996351 0.915864 0
844 1 0.0273318 0.932553 0
875 1 0.0458983 0.949414 0
845 1 0.051557 0.925783 0
846 1 0.0702097 0.941945 0
847 1 0.0749125 0.918309 0
848 1 0.0942289 0.934087 0
849 1 0.11739 0.926209 0
879 1 0.111568 0.950834 0
881 1 0.135652 0.942752 0
850 1 0.140713 0.917595 0
852 1 0.159214 0.934588 0
883 1 0.177392 0.953354 0
853 1 0.182464 0.928148 0
824 1 0.206514 0.920708 0
854 1 0.200883 0.945129 0
855 1 0.225645 0.938584 0
825 1 0.231196 0.91434 0
826 1 0.249567 0.932267 0
857 1 0.267836 0.949458 0
828 1 0.272229 0.92486 0
829 1 0.296438 0.917099 0
859 1 0.290965 0.941412 0
830 1 0.315065 0.933422 0
833 1 0.362099 0.925426 0
832 1 0.337829 0.923056 0
861 1 0.335606 0.947512 0
863 1 0.366737 0.94915 0
834 1 0.385323 0.931633 0
865 1 0.408423 0.93774 0
864 1 0.390088 0.955369 0
837 1 0.425587 0.920174 0
836 1 0.432109 0.944378 0
838 1 0.450457 0.926033 0
870 1 0.456616 0.950907 0
869 1 0.474194 0.934109 0
1711 1 0.491492 0.91493 0
1712 1 0.498857 0.940086 0
3 1 0.0339478 0.997786 0
873 1 0.0228611 0.956796 0
872 1 0.0162056 0.980063 0
874 1 0.0397736 0.974222 0
5 1 0.0581855 0.990601 0
876 1 0.063563 0.966158 0
7 1 0.0825768 0.982837 0
877 1 0.0880802 0.958595 0
8 1 0.100896 0.999795 0
9 1 0.124948 0.992008 0
878 1 0.106172 0.976287 0
880 1 0.129513 0.967911 0
11 1 0.148856 0.985312 0
882 1 0.153389 0.959485 0
13 1 0.17169 0.978193 0
12 1 0.190947 0.995334 0
15 1 0.214189 0.987993 0
884 1 0.195898 0.971039 0
885 1 0.219544 0.962948 0
856 1 0.242732 0.956359 0
17 1 0.257032 0.997653 0
887 1 0.238131 0.980936 0
888 1 0.262461 0.973698 0
860 1 0.312445 0.958934 0
858 1 0.287225 0.966695 0
19 1 0.280863 0.991955 0
889 1 0.304378 0.983852 0
862 1 0.349617 0.967753 0
891 1 0.327843 0.979462 0
892 1 0.350214 0.992888 0
23 1 0.377002 0.997286 0
893 1 0.372569 0.973257 0
895 1 0.396452 0.979698 0
867 1 0.438432 0.969753 0
897 1 0.444508 0.993973 0
866 1 0.414152 0.962475 0
896 1 0.420629 0.986796 0
868 1 0.462808 0.97632 0
1741 1 0.481216 0.957198 0
1771 1 0.486702 0.982547 0
931 1 0.521576 0.0388514 0
901 1 0.51616 0.0137305 0
902 1 0.539571 0.0208722 0
904 1 0.564031 0.028685 0
906 1 0.58184 0.011733 0
905 1 0.558388 0.00424118 0
935 1 0.589305 0.0361469 0
908 1 0.60644 0.0182838 0
939 1 0.630702 0.0245567 0
937 1 0.612914 0.0422901 0
909 1 0.624183 0.000678832 0
910 1 0.647566 0.0065255 0
941 1 0.654868 0.031634 0
912 1 0.671595 0.0141268 0
942 1 0.679579 0.0379439 0
943 1 0.69653 0.0200375 0
945 1 0.719079 0.0285167 0
1784 1 0.719591 0.00403955 0
914 1 0.740994 0.0196949 0
916 1 0.764016 0.0135144 0
947 1 0.757613 0.038193 0
918 1 0.782758 0.029924 0
919 1 0.807254 0.0232895 0
917 1 0.789288 0.0054587 0
951 1 0.824941 0.0409952 0
920 1 0.83151 0.0157438 0
922 1 0.849039 0.0329967 0
921 1 0.855288 0.00783138 0
923 1 0.872594 0.0256626 0
924 1 0.896966 0.0186146 0
954 1 0.890915 0.0425567 0
1792 1 0.879043 0.00166345 0
955 1 0.915574 0.0355471 0
925 1 0.921001 0.0110066 0
926 1 0.938992 0.0276838 0
928 1 0.943793 0.00384081 0
930 1 0.986779 0.0123338 0
959 1 0.962449 0.0198157 0
960 1 0.981182 0.0368035 0
932 1 0.529408 0.0635497 0
961 1 0.512244 0.0818099 0
60 1 0.505444 0.0580933 0
933 1 0.545448 0.0461466 0
963 1 0.553494 0.0711191 0
934 1 0.571189 0.0534911 0
965 1 0.578413 0.0779677 0
936 1 0.596069 0.0608637 0
967 1 0.620548 0.0668764 0
966 1 0.602886 0.0856895 0
938 1 0.637563 0.0489568 0
969 1 0.644709 0.0735607 0
940 1 0.661587 0.0556371 0
970 1 0.667969 0.0814954 0
944 1 0.703706 0.0469656 0
971 1 0.685302 0.0635345 0
973 1 0.711233 0.0697135 0
975 1 0.729835 0.0508487 0
974 1 0.735075 0.077362 0
946 1 0.753084 0.0622744 0
977 1 0.77071 0.0794506 0
949 1 0.800886 0.0476039 0
948 1 0.776966 0.0552469 0
979 1 0.795138 0.0721134 0
950 1 0.818945 0.0653419 0
980 1 0.837266 0.081328 0
981 1 0.861757 0.0749506 0
952 1 0.843196 0.0569565 0
953 1 0.867253 0.0511098 0
983 1 0.886835 0.0680781 0
984 1 0.90391 0.0844864 0
985 1 0.909679 0.0595663 0
956 1 0.933788 0.051906 0
986 1 0.927813 0.0768635 0
987 1 0.952006 0.0688371 0
957 1 0.95739 0.044131 0
958 1 0.976264 0.0613466 0
989 1 0.993409 0.0782402 0
988 1 0.969789 0.0855808 0
962 1 0.535828 0.0885532 0
991 1 0.519251 0.106041 0
993 1 0.543107 0.113636 0
964 1 0.560122 0.0955044 0
994 1 0.567419 0.120029 0
995 1 0.584769 0.102655 0
996 1 0.591917 0.127329 0
968 1 0.626905 0.091594 0
997 1 0.608746 0.109485 0
998 1 0.633316 0.116256 0
999 1 0.650613 0.0987679 0
1000 1 0.657916 0.124048 0
1001 1 0.674835 0.105518 0
972 1 0.692462 0.0874601 0
1031 1 0.68193 0.129781 0
1002 1 0.699843 0.111699 0
1003 1 0.717084 0.094798 0
1004 1 0.723911 0.119197 0
976 1 0.765876 0.104377 0
1005 1 0.74143 0.101244 0
1035 1 0.749293 0.124974 0
978 1 0.81283 0.0893712 0
1007 1 0.789469 0.096586 0
1006 1 0.783682 0.121215 0
1008 1 0.808495 0.11321 0
1009 1 0.831882 0.106287 0
1010 1 0.850172 0.12283 0
1011 1 0.856184 0.0991116 0
1039 1 0.826521 0.130386 0
982 1 0.880016 0.0912677 0
1012 1 0.874794 0.116153 0
1013 1 0.898795 0.108793 0
1016 1 0.916456 0.125841 0
1017 1 0.946582 0.0933554 0
1015 1 0.922767 0.100988 0
1047 1 0.940513 0.117291 0
1018 1 0.963948 0.110178 0
1019 1 0.987879 0.103007 0
1020 1 0.981649 0.127362 0
992 1 0.524256 0.130577 0
1022 1 0.531636 0.154825 0
1021 1 0.506959 0.149053 0
1051 1 0.514613 0.173297 0
1023 1 0.548373 0.137576 0
1024 1 0.556239 0.161867 0
1025 1 0.573311 0.144115 0
1055 1 0.579738 0.168665 0
1027 1 0.615767 0.133873 0
1026 1 0.597444 0.151351 0
1028 1 0.621832 0.159813 0
1029 1 0.639371 0.141457 0
1059 1 0.645717 0.164942 0
1030 1 0.663308 0.148294 0
1061 1 0.670068 0.171589 0
1032 1 0.6879 0.154052 0
1033 1 0.705887 0.135669 0
1063 1 0.711687 0.160299 0
1034 1 0.72983 0.143133 0
1036 1 0.753608 0.150179 0
1065 1 0.734911 0.167198 0
1067 1 0.777696 0.145699 0
1037 1 0.801945 0.137686 0
1038 1 0.797528 0.162001 0
1040 1 0.820856 0.154485 0
1071 1 0.840149 0.171778 0
1041 1 0.845258 0.147177 0
1042 1 0.864497 0.164779 0
1014 1 0.892616 0.13325 0
1043 1 0.869216 0.140414 0
1044 1 0.887156 0.157258 0
1045 1 0.910667 0.150056 0
1046 1 0.934581 0.141775 0
1048 1 0.952395 0.15919 0
1077 1 0.928552 0.166565 0
1049 1 0.957916 0.13449 0
1050 1 0.976261 0.151807 0
151 1 0.994277 0.169014 0
1053 1 0.538512 0.179438 0
1052 1 0.520788 0.198186 0
1081 1 0.502461 0.215641 0
1083 1 0.544618 0.204287 0
1054 1 0.562181 0.186795 0
1056 1 0.585589 0.194107 0
1085 1 0.568245 0.211968 0
1057 1 0.603973 0.176022 0
1058 1 0.62757 0.182988 0
1087 1 0.609551 0.200108 0
1089 1 0.633868 0.206819 0
1060 1 0.651537 0.189024 0
1091 1 0.675917 0.195485 0
1090 1 0.657827 0.212839 0
1062 1 0.693358 0.17762 0
1093 1 0.699105 0.201966 0
1064 1 0.717222 0.184352 0
1094 1 0.723369 0.208034 0
1066 1 0.760958 0.173321 0
1095 1 0.741808 0.191092 0
1097 1 0.766312 0.197669 0
1096 1 0.747103 0.214161 0
1069 1 0.815825 0.178515 0
1068 1 0.787774 0.184721 0
1098 1 0.789077 0.20894 0
1099 1 0.812564 0.202934 0
1070 1 0.83604 0.195589 0
1072 1 0.859688 0.189157 0
1101 1 0.85385 0.213469 0
1075 1 0.905746 0.174377 0
1073 1 0.883062 0.182893 0
1103 1 0.878542 0.206901 0
1074 1 0.901898 0.199149 0
1105 1 0.918456 0.216146 0
1078 1 0.947605 0.183092 0
1076 1 0.924826 0.191299 0
1107 1 0.942126 0.208545 0
1079 1 0.970739 0.175819 0
1109 1 0.965337 0.200513 0
181 1 0.988869 0.192887 0
1082 1 0.526836 0.222411 0
1111 1 0.50906 0.239702 0
1113 1 0.53353 0.245913 0
1084 1 0.550412 0.228575 0
1114 1 0.557028 0.254172 0
1115 1 0.574065 0.236628 0
1116 1 0.580995 0.261029 0
1086 1 0.59231 0.219132 0
1088 1 0.616385 0.225153 0
1117 1 0.597961 0.242904 0
1118 1 0.622305 0.248897 0
1119 1 0.641112 0.230825 0
1121 1 0.665253 0.236537 0
1120 1 0.646659 0.254657 0
1092 1 0.681941 0.219255 0
1122 1 0.688254 0.244342 0
1123 1 0.705535 0.226378 0
1124 1 0.712572 0.250423 0
1125 1 0.730847 0.232847 0
1126 1 0.754315 0.240653 0
1127 1 0.769899 0.22255 0
1155 1 0.736745 0.257349 0
1129 1 0.805068 0.227442 0
1128 1 0.779866 0.244747 0
1159 1 0.802905 0.253288 0
1100 1 0.830334 0.219941 0
1130 1 0.824704 0.24378 0
1131 1 0.847538 0.237956 0
1132 1 0.862742 0.256591 0
1102 1 0.870897 0.231276 0
1104 1 0.895013 0.225106 0
1133 1 0.887606 0.249731 0
1135 1 0.912067 0.2415 0
1136 1 0.930724 0.257666 0
1106 1 0.936062 0.232779 0