ITEM: TIMESTEP
96000
ITEM: NUMBER OF ATOMS
1800
ITEM: BOX BOUNDS pp pp pp
1.2531671158256472e+00 1.6374683288417256e+02
1.2531671158256472e+00 1.6374683288417256e+02
0.0000000000000000e+00 5.5000000000000000e+00
ITEM: ATOMS id type xs ys zs
2 1 0.010259 0.00593395 0
33 1 0.0282596 0.0226108 0
31 1 0.00431669 0.0299883 0
4 1 0.0522966 0.0152425 0
6 1 0.076662 0.00819398 0
35 1 0.07052 0.0320815 0
34 1 0.0465989 0.0397558 0
37 1 0.0943595 0.0247002 0
39 1 0.118465 0.0172249 0
38 1 0.112354 0.0413981 0
40 1 0.136231 0.0342749 0
10 1 0.14286 0.00964928 0
41 1 0.165785 0.00176795 0
42 1 0.16014 0.0267327 0
43 1 0.183916 0.0198606 0
14 1 0.207736 0.0122229 0
44 1 0.203299 0.0366988 0
45 1 0.226419 0.0292039 0
16 1 0.251873 0.0220326 0
886 1 0.232751 0.00486736 0
46 1 0.269185 0.0396889 0
18 1 0.275894 0.014515 0
49 1 0.293971 0.03167 0
20 1 0.300489 0.00683955 0
51 1 0.319441 0.0249518 0
22 1 0.342634 0.0323888 0
21 1 0.359762 0.014424 0
890 1 0.325439 0.000761418 0
24 1 0.38488 0.0220222 0
53 1 0.366298 0.0391487 0
894 1 0.402926 0.00542847 0
25 1 0.408883 0.0294737 0
26 1 0.433541 0.0369284 0
27 1 0.427012 0.0118107 0
898 1 0.451886 0.0186574 0
29 1 0.476361 0.0252152 0
900 1 0.493506 0.00765168 0
899 1 0.469092 0.000908261 0
28 1 0.458533 0.0423623 0
32 1 0.0226773 0.0470138 0
62 1 0.0171933 0.0710077 0
63 1 0.0415636 0.0632925 0
65 1 0.0648484 0.0562884 0
66 1 0.0833037 0.073234 0
64 1 0.0593282 0.0811086 0
36 1 0.0890755 0.0496301 0
67 1 0.107321 0.0661301 0
69 1 0.130807 0.0592431 0
68 1 0.125489 0.0833544 0
73 1 0.178999 0.0440126 0
71 1 0.154799 0.0511504 0
72 1 0.173623 0.0682696 0
70 1 0.149491 0.0753277 0
74 1 0.22138 0.0529535 0
103 1 0.196621 0.0605517 0
105 1 0.215529 0.0773599 0
101 1 0.191867 0.0850972 0
75 1 0.245746 0.0454423 0
77 1 0.264556 0.0634237 0
76 1 0.239176 0.0696925 0
47 1 0.288687 0.0560589 0
48 1 0.308809 0.0700929 0
78 1 0.286879 0.0812478 0
50 1 0.324835 0.0506529 0
81 1 0.332942 0.0755057 0
52 1 0.349816 0.0571739 0
82 1 0.35805 0.0818504 0
55 1 0.390871 0.0464889 0
83 1 0.374711 0.0635312 0
54 1 0.398707 0.0709707 0
57 1 0.440623 0.061005 0
85 1 0.422323 0.0786865 0
56 1 0.416388 0.054147 0
87 1 0.447204 0.0851499 0
59 1 0.482786 0.050061 0
58 1 0.464573 0.0668634 0
89 1 0.488077 0.0741683 0
990 1 0.0119485 0.0957852 0
92 1 0.0303715 0.112651 0
93 1 0.035566 0.0880008 0
91 1 0.00719101 0.119897 0
94 1 0.0537155 0.104613 0
95 1 0.0778713 0.0981317 0
125 1 0.0722431 0.122689 0
123 1 0.048663 0.129252 0
96 1 0.0954209 0.115452 0
97 1 0.101425 0.0904448 0
98 1 0.119312 0.107889 0
99 1 0.143096 0.0994126 0
100 1 0.167734 0.092826 0
130 1 0.161825 0.116892 0
129 1 0.138107 0.123956 0
131 1 0.185976 0.110361 0
102 1 0.209511 0.102096 0
133 1 0.204824 0.12645 0
104 1 0.22733 0.118367 0
137 1 0.257504 0.0870635 0
106 1 0.232937 0.0949292 0
135 1 0.252499 0.111538 0
107 1 0.275349 0.104092 0
109 1 0.299482 0.111374 0
79 1 0.316833 0.0935072 0
108 1 0.281841 0.128396 0
80 1 0.340832 0.0994519 0
110 1 0.323829 0.117323 0
141 1 0.347831 0.124059 0
111 1 0.36539 0.106698 0
113 1 0.381382 0.0884812 0
84 1 0.405925 0.0960343 0
112 1 0.389361 0.112941 0
115 1 0.412616 0.121218 0
86 1 0.429977 0.103774 0
116 1 0.436371 0.127311 0
117 1 0.453918 0.109983 0
88 1 0.470744 0.0917379 0
90 1 0.494189 0.0988473 0
119 1 0.476832 0.116218 0
122 1 0.0252389 0.137085 0
153 1 0.0435907 0.154254 0
152 1 0.0198089 0.162002 0
121 1 0.00253481 0.144466 0
124 1 0.0671786 0.146631 0
155 1 0.0847882 0.163782 0
154 1 0.0612129 0.171428 0
126 1 0.0907932 0.139611 0
127 1 0.114271 0.132324 0
128 1 0.13219 0.14862 0
157 1 0.108209 0.156947 0
158 1 0.126481 0.173251 0
159 1 0.156388 0.141828 0
161 1 0.175503 0.159079 0
160 1 0.150479 0.165424 0
132 1 0.180261 0.134356 0
163 1 0.198962 0.151101 0
134 1 0.222315 0.144209 0
193 1 0.218991 0.168956 0
136 1 0.265646 0.146356 0
165 1 0.244298 0.135306 0
164 1 0.243625 0.160602 0
167 1 0.270706 0.169739 0
139 1 0.306383 0.135717 0
138 1 0.288897 0.152395 0
169 1 0.31304 0.1593 0
140 1 0.330427 0.14093 0
142 1 0.35428 0.147951 0
171 1 0.336319 0.165796 0
172 1 0.360136 0.173058 0
143 1 0.372053 0.130856 0
114 1 0.39511 0.138671 0
173 1 0.377816 0.155674 0
144 1 0.402185 0.163142 0
145 1 0.419349 0.144953 0
146 1 0.424805 0.170462 0
147 1 0.442164 0.152002 0
118 1 0.459358 0.133946 0
149 1 0.4831 0.14083 0
148 1 0.46589 0.158503 0
150 1 0.489323 0.165717 0
183 1 0.0375705 0.179202 0
182 1 0.0317836 0.202731 0
1080 1 0.0133563 0.185651 0
211 1 0.00834412 0.210455 0
184 1 0.0553309 0.194966 0
185 1 0.0801158 0.188256 0
215 1 0.0740541 0.212924 0
186 1 0.0974911 0.20523 0
156 1 0.103523 0.181107 0
187 1 0.12173 0.197713 0
189 1 0.144945 0.188996 0
191 1 0.169797 0.182987 0
190 1 0.162889 0.205789 0
188 1 0.140368 0.213821 0
221 1 0.18853 0.203238 0
162 1 0.194563 0.175254 0
192 1 0.211782 0.194222 0
195 1 0.23504 0.202644 0
166 1 0.252639 0.186003 0
196 1 0.258827 0.210701 0
168 1 0.294737 0.176475 0
197 1 0.276401 0.193944 0
199 1 0.29996 0.201176 0
170 1 0.318381 0.183516 0
201 1 0.341504 0.190409 0
200 1 0.323168 0.207919 0
202 1 0.347549 0.214851 0
203 1 0.365699 0.19826 0
174 1 0.383133 0.180394 0
204 1 0.389129 0.20466 0
175 1 0.406603 0.188092 0
177 1 0.448631 0.177148 0
205 1 0.412655 0.212108 0
176 1 0.431244 0.19496 0
178 1 0.454041 0.202151 0
179 1 0.472355 0.184353 0
180 1 0.496002 0.191116 0
209 1 0.47747 0.207695 0
212 1 0.027097 0.226758 0
243 1 0.0450283 0.243318 0
241 1 0.0208373 0.251253 0
1140 1 0.00280212 0.234652 0
213 1 0.0502298 0.218974 0
214 1 0.0689546 0.2366 0
245 1 0.0868032 0.254867 0
244 1 0.0628419 0.259949 0
216 1 0.0932702 0.230208 0
217 1 0.115525 0.221495 0
218 1 0.134062 0.236767 0
247 1 0.112356 0.248354 0
219 1 0.158319 0.243063 0
220 1 0.175328 0.225915 0
222 1 0.18195 0.251925 0
249 1 0.140185 0.260316 0
223 1 0.199094 0.235154 0
194 1 0.217029 0.2189 0
224 1 0.222466 0.243927 0
253 1 0.204975 0.260212 0
225 1 0.240477 0.226909 0
227 1 0.264604 0.235314 0
226 1 0.245615 0.251893 0
257 1 0.269519 0.259632 0
198 1 0.282765 0.218917 0
228 1 0.287693 0.243196 0
229 1 0.306204 0.226556 0
230 1 0.311248 0.251249 0
231 1 0.329102 0.233749 0
232 1 0.352977 0.240047 0
261 1 0.33499 0.257879 0
233 1 0.370883 0.223222 0
234 1 0.375837 0.247476 0
235 1 0.394611 0.229967 0
265 1 0.3999 0.253716 0
207 1 0.436444 0.219588 0
206 1 0.418569 0.236387 0
237 1 0.442997 0.243976 0
208 1 0.460605 0.225481 0
210 1 0.484163 0.233595 0
239 1 0.466952 0.251063 0
240 1 0.491025 0.258557 0
242 1 0.0392305 0.267349 0
271 1 0.0325912 0.291174 0
1170 1 0.0147855 0.27512 0
1200 1 0.0110736 0.302882 0
273 1 0.0571852 0.28991 0
275 1 0.0798486 0.278223 0
276 1 0.0824533 0.303472 0
246 1 0.101438 0.288933 0
248 1 0.119257 0.272582 0
279 1 0.124787 0.297477 0
251 1 0.163616 0.267591 0
250 1 0.144311 0.283541 0
281 1 0.167976 0.29223 0
252 1 0.186221 0.276693 0
254 1 0.209916 0.286086 0
283 1 0.190584 0.301488 0
255 1 0.227716 0.270329 0
256 1 0.251451 0.277129 0
285 1 0.233229 0.294696 0
287 1 0.257414 0.30254 0
259 1 0.292309 0.268391 0
258 1 0.274946 0.284979 0
289 1 0.299618 0.292425 0
260 1 0.317054 0.27523 0
263 1 0.358235 0.265273 0
262 1 0.340693 0.283552 0
291 1 0.322642 0.29998 0
293 1 0.364618 0.289719 0
264 1 0.382622 0.271941 0
295 1 0.389661 0.296271 0
266 1 0.406141 0.278812 0
236 1 0.424362 0.261498 0
238 1 0.448876 0.268327 0
267 1 0.43139 0.285719 0
297 1 0.41323 0.303416 0
268 1 0.455469 0.292093 0
1141 1 0.497184 0.282757 0
269 1 0.473061 0.274989 0
270 1 0.478842 0.299046 0
301 1 0.022257 0.324977 0
272 1 0.0429501 0.31213 0
1230 1 0.00413704 0.339913 0
303 1 0.0462427 0.335965 0
274 1 0.0652406 0.320744 0
305 1 0.0887508 0.329529 0
304 1 0.0688558 0.344965 0
277 1 0.106464 0.313332 0
278 1 0.129268 0.323156 0
307 1 0.110925 0.339271 0
280 1 0.148516 0.307935 0
311 1 0.152105 0.333012 0
282 1 0.171782 0.316951 0
312 1 0.175618 0.341746 0
284 1 0.214535 0.310477 0
313 1 0.195302 0.325755 0
315 1 0.219342 0.335528 0
286 1 0.238299 0.31999 0
317 1 0.26192 0.327115 0
316 1 0.242505 0.345145 0
288 1 0.28084 0.310539 0
318 1 0.285264 0.33572 0
290 1 0.305205 0.317019 0
319 1 0.310408 0.342008 0
292 1 0.346582 0.30738 0
321 1 0.328471 0.324202 0
323 1 0.353497 0.33066 0
324 1 0.377955 0.338091 0
294 1 0.372279 0.313168 0
325 1 0.401987 0.344492 0
296 1 0.395533 0.320507 0
298 1 0.437175 0.309919 0
327 1 0.420283 0.328153 0
328 1 0.443617 0.335031 0
329 1 0.468126 0.341709 0
299 1 0.461153 0.316919 0
300 1 0.484644 0.3235 0
302 1 0.0262951 0.349596 0
332 1 0.0288887 0.374198 0
331 1 0.00502621 0.364145 0
361 1 0.00850557 0.388799 0
333 1 0.0488235 0.360257 0
335 1 0.0709645 0.369463 0
334 1 0.051728 0.385118 0
306 1 0.0916874 0.355494 0
337 1 0.0947755 0.379919 0
308 1 0.114368 0.363465 0
309 1 0.133428 0.348438 0
338 1 0.117118 0.388802 0
339 1 0.136994 0.3732 0
310 1 0.156799 0.358644 0
341 1 0.159987 0.383855 0
343 1 0.179167 0.366788 0
314 1 0.199537 0.351093 0
344 1 0.201972 0.376295 0
345 1 0.222454 0.361411 0
375 1 0.225401 0.386613 0
347 1 0.26632 0.353274 0
346 1 0.246482 0.370278 0
377 1 0.271123 0.380342 0
349 1 0.290794 0.359695 0
348 1 0.297024 0.383151 0
350 1 0.316907 0.365306 0
320 1 0.336093 0.348091 0
351 1 0.342368 0.372251 0
381 1 0.325304 0.388249 0
322 1 0.361011 0.355991 0
353 1 0.367805 0.379571 0
355 1 0.385294 0.362012 0
354 1 0.392084 0.386219 0
356 1 0.409271 0.369064 0
326 1 0.426053 0.352412 0
357 1 0.432368 0.377 0
359 1 0.450553 0.360278 0
1201 1 0.492376 0.348247 0
358 1 0.456809 0.384636 0
330 1 0.474423 0.366722 0
1231 1 0.498773 0.372683 0
363 1 0.0310693 0.399354 0
362 1 0.0105516 0.414037 0
364 1 0.0343361 0.423225 0
336 1 0.0748758 0.394387 0
365 1 0.054213 0.410024 0
366 1 0.0769239 0.418648 0
367 1 0.0973835 0.40469 0
369 1 0.119603 0.414286 0
368 1 0.0988831 0.429472 0
340 1 0.139174 0.399354 0
370 1 0.142521 0.423662 0
371 1 0.162578 0.408286 0
401 1 0.165278 0.433475 0
342 1 0.183024 0.392553 0
372 1 0.185177 0.417541 0
373 1 0.206123 0.402552 0
403 1 0.207651 0.427604 0
374 1 0.229418 0.411246 0
376 1 0.248753 0.395385 0
405 1 0.252301 0.421662 0
378 1 0.271677 0.406499 0
379 1 0.308537 0.405096 0
409 1 0.290271 0.420988 0
410 1 0.313083 0.428749 0
352 1 0.34955 0.395916 0
382 1 0.355452 0.420034 0
380 1 0.331911 0.41223 0
383 1 0.373645 0.403792 0
385 1 0.397079 0.411522 0
384 1 0.378891 0.428411 0
387 1 0.415072 0.394916 0
386 1 0.42134 0.420077 0
388 1 0.438453 0.402896 0
419 1 0.445284 0.427333 0
360 1 0.481267 0.39098 0
389 1 0.463138 0.408858 0
1261 1 0.488487 0.414799 0
390 1 0.47032 0.433141 0
393 1 0.0138638 0.439472 0
423 1 0.0162409 0.464057 0
394 1 0.0366031 0.449612 0
425 1 0.039193 0.474143 0
395 1 0.0562302 0.434845 0
396 1 0.0592714 0.459769 0
397 1 0.0781537 0.444858 0
427 1 0.0821115 0.469872 0
399 1 0.122917 0.439648 0
398 1 0.10224 0.455254 0
429 1 0.124493 0.465324 0
400 1 0.145612 0.449635 0
431 1 0.167425 0.459835 0
430 1 0.147261 0.474406 0
402 1 0.187564 0.443766 0
433 1 0.210789 0.453706 0
432 1 0.189563 0.469047 0
407 1 0.27177 0.436067 0
404 1 0.231161 0.436666 0
406 1 0.252865 0.449804 0
435 1 0.233085 0.464217 0
436 1 0.255613 0.4749 0
437 1 0.275281 0.460362 0
408 1 0.294369 0.445156 0
439 1 0.299492 0.469327 0
441 1 0.318307 0.453557 0
413 1 0.360688 0.445341 0
411 1 0.337041 0.437121 0
412 1 0.342467 0.461668 0
440 1 0.323439 0.477161 0
415 1 0.402995 0.435726 0
414 1 0.384959 0.452229 0
443 1 0.367513 0.469485 0
416 1 0.408399 0.460562 0
417 1 0.428339 0.445744 0
418 1 0.452739 0.451264 0
447 1 0.434349 0.46894 0
1291 1 0.494826 0.438896 0
420 1 0.477629 0.457642 0
449 1 0.459798 0.474607 0
454 1 0.0224618 0.513935 0
424 1 0.0196181 0.488972 0
455 1 0.041618 0.498579 0
426 1 0.0619519 0.484662 0
456 1 0.0654891 0.509633 0
457 1 0.0852215 0.494994 0
487 1 0.0883261 0.519832 0
428 1 0.104882 0.479934 0
459 1 0.127793 0.489844 0
458 1 0.107825 0.505821 0
489 1 0.131302 0.515855 0
461 1 0.169549 0.484448 0
460 1 0.150349 0.500101 0
462 1 0.174023 0.509439 0
434 1 0.213394 0.478253 0
463 1 0.193628 0.493853 0
464 1 0.21594 0.503822 0
493 1 0.196294 0.51931 0
465 1 0.235936 0.489093 0
467 1 0.258979 0.499194 0
466 1 0.238709 0.514025 0
438 1 0.280319 0.484297 0
469 1 0.303326 0.493567 0
468 1 0.282658 0.508969 0
470 1 0.306515 0.518116 0
442 1 0.347795 0.486363 0
471 1 0.32715 0.501579 0
473 1 0.351664 0.510865 0
445 1 0.392028 0.47841 0
444 1 0.372437 0.494311 0
475 1 0.397095 0.504319 0
474 1 0.376493 0.518631 0
446 1 0.416957 0.486374 0
477 1 0.422484 0.510454 0
448 1 0.441255 0.493081 0
478 1 0.447618 0.517305 0
450 1 0.483739 0.481396 0
479 1 0.464778 0.500002 0
1381 1 0.490073 0.506113 0
452 1 0.00288909 0.529147 0
483 1 0.0255463 0.539158 0
482 1 0.00453829 0.553465 0
513 1 0.0283567 0.563793 0
485 1 0.0450158 0.523677 0
484 1 0.048741 0.549155 0
486 1 0.0681953 0.534429 0
515 1 0.0718065 0.559282 0
517 1 0.0914343 0.544881 0
488 1 0.111188 0.530188 0
519 1 0.115372 0.555837 0
490 1 0.13407 0.53964 0
491 1 0.154021 0.524901 0
521 1 0.156535 0.551124 0
492 1 0.176709 0.534829 0
523 1 0.179453 0.560743 0
494 1 0.199636 0.545012 0
495 1 0.218918 0.52963 0
525 1 0.222001 0.554347 0
496 1 0.242004 0.538877 0
497 1 0.262246 0.523554 0
527 1 0.265154 0.547865 0
526 1 0.245587 0.562757 0
499 1 0.307964 0.542719 0
498 1 0.285609 0.533137 0
529 1 0.287907 0.558178 0
472 1 0.33113 0.526411 0
501 1 0.330641 0.552078 0
502 1 0.353698 0.559183 0
503 1 0.357192 0.534778 0
505 1 0.381549 0.54335 0
476 1 0.403321 0.528272 0
506 1 0.410828 0.551807 0
507 1 0.430014 0.535554 0
508 1 0.437056 0.560199 0
509 1 0.454494 0.542389 0
480 1 0.472294 0.524201 0
510 1 0.479188 0.548586 0
1382 1 0.496784 0.530453 0
512 1 0.0321594 0.588272 0
511 1 0.00744625 0.578554 0
541 1 0.0105062 0.602925 0
514 1 0.0508876 0.573657 0
545 1 0.0738301 0.584771 0
543 1 0.0540295 0.599125 0
516 1 0.0943812 0.569262 0
518 1 0.117224 0.581089 0
547 1 0.0965872 0.595171 0
548 1 0.119597 0.60529 0
520 1 0.13718 0.566996 0
549 1 0.139473 0.59144 0
522 1 0.160189 0.577077 0
551 1 0.162212 0.600834 0
553 1 0.182705 0.584515 0
524 1 0.202762 0.569742 0
554 1 0.205834 0.594196 0
555 1 0.226755 0.578148 0
556 1 0.227909 0.60288 0
557 1 0.248855 0.588278 0
528 1 0.267989 0.572677 0
558 1 0.272689 0.597672 0
500 1 0.310608 0.568155 0
559 1 0.291319 0.582096 0
530 1 0.316247 0.592159 0
560 1 0.296872 0.606609 0
531 1 0.334863 0.576595 0
532 1 0.339447 0.601191 0
533 1 0.357529 0.584465 0
504 1 0.376016 0.567065 0
534 1 0.381655 0.591453 0
535 1 0.399474 0.572467 0
536 1 0.405202 0.597862 0
537 1 0.421925 0.579709 0
567 1 0.429323 0.603799 0
538 1 0.445349 0.585868 0
539 1 0.460956 0.567383 0
540 1 0.485139 0.572714 0
569 1 0.469354 0.591973 0
1441 1 0.492883 0.597796 0
542 1 0.0331504 0.613679 0
571 1 0.0120945 0.628112 0
573 1 0.0352749 0.637914 0
546 1 0.0758446 0.61034 0
544 1 0.0557886 0.624052 0
575 1 0.0789616 0.635356 0
574 1 0.0589259 0.648729 0
577 1 0.0991531 0.619672 0
579 1 0.122584 0.630489 0
576 1 0.102518 0.644917 0
550 1 0.14242 0.616018 0
581 1 0.165886 0.625834 0
580 1 0.144877 0.640296 0
611 1 0.167954 0.649935 0
552 1 0.185625 0.609374 0
582 1 0.189126 0.634296 0
583 1 0.208791 0.619 0
584 1 0.212216 0.643967 0
585 1 0.23247 0.627451 0
586 1 0.256216 0.636889 0
587 1 0.252575 0.613036 0
589 1 0.277116 0.622713 0
590 1 0.301391 0.632038 0
588 1 0.280989 0.647701 0
563 1 0.36332 0.60877 0
561 1 0.321007 0.615952 0
562 1 0.344848 0.625266 0
591 1 0.325225 0.640237 0
593 1 0.350208 0.648976 0
565 1 0.387722 0.615917 0
564 1 0.369078 0.632326 0
595 1 0.393094 0.639561 0
566 1 0.411071 0.621665 0
568 1 0.453039 0.610121 0
596 1 0.417184 0.646395 0
597 1 0.434611 0.628344 0
570 1 0.47651 0.616603 0
600 1 0.458025 0.634907 0
1471 1 0.48211 0.640756 0
572 1 0.0153204 0.652977 0
602 1 0.0177266 0.678088 0
603 1 0.0377632 0.663017 0
633 1 0.040281 0.68885 0
605 1 0.0812082 0.65938 0
604 1 0.060193 0.67444 0
606 1 0.0828652 0.685214 0
578 1 0.124218 0.655363 0
607 1 0.104008 0.670419 0
608 1 0.127007 0.680264 0
637 1 0.106803 0.695586 0
609 1 0.147775 0.664886 0
610 1 0.170709 0.674225 0
639 1 0.150471 0.688916 0
612 1 0.194992 0.682945 0
613 1 0.19208 0.658161 0
614 1 0.215684 0.668168 0
643 1 0.217634 0.693244 0
615 1 0.23543 0.652297 0
616 1 0.239164 0.67679 0
617 1 0.25951 0.661997 0
647 1 0.262818 0.686482 0
619 1 0.305495 0.65654 0
618 1 0.286439 0.672501 0
620 1 0.310504 0.681538 0
621 1 0.330812 0.666129 0
592 1 0.355058 0.673942 0
622 1 0.3351 0.691096 0
594 1 0.373553 0.656597 0
625 1 0.397717 0.663654 0
623 1 0.380034 0.681272 0
626 1 0.404922 0.688169 0
599 1 0.441391 0.652644 0
598 1 0.446924 0.675806 0
627 1 0.421791 0.670623 0
657 1 0.429357 0.694934 0
628 1 0.471072 0.683042 0
629 1 0.465313 0.658533 0
1501 1 0.488775 0.664917 0
630 1 0.495068 0.689284 0
632 1 0.018904 0.702967 0
663 1 0.020599 0.727331 0
634 1 0.0428033 0.714607 0
635 1 0.0635272 0.700207 0
636 1 0.0860942 0.71089 0
665 1 0.0666971 0.726753 0
666 1 0.0899271 0.735964 0
638 1 0.13083 0.704782 0
667 1 0.110827 0.720788 0
669 1 0.134225 0.729804 0
641 1 0.174082 0.698217 0
640 1 0.154158 0.713227 0
671 1 0.176749 0.722668 0
670 1 0.157636 0.738564 0
642 1 0.196787 0.70814 0
673 1 0.202327 0.73333 0
644 1 0.221633 0.717814 0
645 1 0.241916 0.701746 0
675 1 0.244943 0.726876 0
646 1 0.26509 0.711901 0
677 1 0.267686 0.737757 0
649 1 0.288038 0.697445 0
648 1 0.28633 0.721757 0
679 1 0.308337 0.730776 0
650 1 0.316345 0.707126 0
651 1 0.344758 0.716202 0
681 1 0.331221 0.736722 0
653 1 0.362016 0.698348 0
624 1 0.387137 0.705915 0
654 1 0.369594 0.72312 0
685 1 0.394727 0.729768 0
655 1 0.411616 0.71221 0
656 1 0.43593 0.718598 0
686 1 0.418732 0.736829 0
658 1 0.453744 0.700636 0
687 1 0.460247 0.726639 0
659 1 0.478235 0.707557 0
689 1 0.484302 0.732431 0
662 1 0.0231058 0.750443 0
693 1 0.027287 0.774743 0
691 1 0.00277249 0.767397 0
664 1 0.0461474 0.740714 0
695 1 0.0686408 0.755613 0
694 1 0.0518563 0.776663 0
696 1 0.0757914 0.781293 0
697 1 0.094922 0.76365 0
668 1 0.114807 0.747204 0
698 1 0.119549 0.77196 0
699 1 0.138926 0.755213 0
701 1 0.161738 0.762471 0
700 1 0.143388 0.780213 0
672 1 0.180986 0.747154 0
702 1 0.185537 0.771372 0
674 1 0.225459 0.742367 0
703 1 0.206149 0.757678 0
704 1 0.207953 0.781987 0
705 1 0.228667 0.768796 0
676 1 0.248118 0.752972 0
707 1 0.270762 0.762978 0
735 1 0.251026 0.778648 0
678 1 0.289924 0.746888 0
709 1 0.294463 0.771718 0
680 1 0.313246 0.754645 0
710 1 0.318259 0.778956 0
652 1 0.354306 0.742842 0
682 1 0.361504 0.767368 0
711 1 0.337031 0.761675 0
683 1 0.378693 0.74844 0
713 1 0.386567 0.772721 0
684 1 0.401751 0.753799 0
716 1 0.409172 0.78036 0
717 1 0.442606 0.744455 0
715 1 0.4258 0.761638 0
718 1 0.450097 0.769093 0
690 1 0.491851 0.75691 0
688 1 0.467494 0.750671 0
719 1 0.474364 0.775614 0
1591 1 0.499792 0.781809 0
692 1 0.00861951 0.790501 0
722 1 0.0158247 0.814573 0
723 1 0.0341635 0.797493 0
724 1 0.0423405 0.820072 0
725 1 0.0598781 0.800995 0
726 1 0.083422 0.807046 0
755 1 0.0665382 0.825218 0
727 1 0.0999105 0.788362 0
728 1 0.124888 0.796738 0
757 1 0.108326 0.814418 0
759 1 0.132859 0.821313 0
729 1 0.149542 0.804151 0
730 1 0.175385 0.810486 0
731 1 0.167363 0.787092 0
732 1 0.202675 0.805756 0
734 1 0.229852 0.82049 0
733 1 0.229878 0.794074 0
736 1 0.254245 0.812165 0
737 1 0.280919 0.811114 0
706 1 0.27563 0.787712 0
708 1 0.300676 0.796558 0
738 1 0.305806 0.821736 0
739 1 0.32439 0.803594 0
741 1 0.343299 0.785755 0
742 1 0.350423 0.809506 0
712 1 0.367999 0.79122 0
714 1 0.391678 0.796662 0
743 1 0.374709 0.816071 0
745 1 0.399033 0.821525 0
746 1 0.415454 0.804083 0
747 1 0.432914 0.786808 0
748 1 0.439812 0.810996 0
749 1 0.45807 0.793898 0
720 1 0.482011 0.799758 0
750 1 0.464322 0.81742 0
1621 1 0.488571 0.825071 0
752 1 0.00525568 0.852485 0
753 1 0.0247534 0.83792 0
783 1 0.0310783 0.861576 0
754 1 0.0493238 0.843567 0
785 1 0.0737711 0.849084 0
784 1 0.0566117 0.867315 0
756 1 0.0911053 0.831742 0
758 1 0.115032 0.83795 0
787 1 0.103894 0.859536 0
788 1 0.12681 0.869366 0
760 1 0.156713 0.828169 0
789 1 0.139685 0.846869 0
791 1 0.175613 0.860091 0
790 1 0.152207 0.869118 0
761 1 0.18154 0.835839 0
763 1 0.205712 0.829986 0
762 1 0.199709 0.854151 0
764 1 0.223972 0.845837 0
765 1 0.246929 0.838849 0
795 1 0.242186 0.864323 0
766 1 0.265723 0.856973 0
767 1 0.270696 0.833178 0
769 1 0.315756 0.845057 0
768 1 0.290019 0.849147 0
799 1 0.308494 0.867988 0
740 1 0.332783 0.827498 0
770 1 0.340536 0.851714 0
771 1 0.35767 0.834575 0
773 1 0.364062 0.858659 0
744 1 0.381947 0.840655 0
774 1 0.389234 0.864147 0
775 1 0.406666 0.846292 0
777 1 0.423325 0.829206 0
807 1 0.43087 0.853254 0
778 1 0.447443 0.835918 0
809 1 0.454062 0.861013 0
779 1 0.471831 0.842764 0
780 1 0.47805 0.86762 0
1651 1 0.495529 0.849704 0
812 1 0.0151953 0.891746 0
814 1 0.0335614 0.908555 0
813 1 0.0385873 0.884411 0
786 1 0.081724 0.871778 0
815 1 0.0566068 0.90147 0
816 1 0.0810987 0.894944 0
817 1 0.104264 0.883924 0
819 1 0.122411 0.900745 0
818 1 0.100026 0.91074 0
821 1 0.170666 0.886321 0
820 1 0.145809 0.892463 0
851 1 0.165043 0.911433 0
792 1 0.194 0.878313 0
793 1 0.218468 0.871001 0
823 1 0.212906 0.895744 0
822 1 0.1885 0.902658 0
794 1 0.23682 0.888218 0
796 1 0.260692 0.881431 0
827 1 0.254265 0.906141 0
797 1 0.284448 0.874753 0
798 1 0.278824 0.899642 0
800 1 0.30279 0.893237 0
831 1 0.321136 0.910978 0
772 1 0.347078 0.875425 0
801 1 0.326105 0.887387 0
802 1 0.347553 0.902562 0
803 1 0.370743 0.882843 0
804 1 0.378204 0.905419 0
805 1 0.395525 0.887955 0
835 1 0.402014 0.912264 0
776 1 0.413306 0.870325 0
806 1 0.420106 0.895825 0
808 1 0.437197 0.878817 0
839 1 0.444698 0.902085 0
1681 1 0.485544 0.890922 0
810 1 0.461036 0.884682 0
840 1 0.468433 0.908932 0
842 1 0.00436798 0.940055 0
843 1 0.0103742 0.916051 0
844 1 0.0285583 0.932528 0
875 1 0.0458525 0.949605 0
845 1 0.0522263 0.925909 0
846 1 0.0700013 0.942665 0
847 1 0.075063 0.918448 0
848 1 0.0943105 0.934803 0
849 1 0.117902 0.926328 0
879 1 0.111705 0.951844 0
881 1 0.134792 0.943868 0
850 1 0.140988 0.91805 0
852 1 0.158948 0.936145 0
883 1 0.178299 0.952976 0
853 1 0.183254 0.928418 0
824 1 0.207217 0.919983 0
854 1 0.20224 0.945264 0
855 1 0.225874 0.938082 0
825 1 0.230605 0.912846 0
826 1 0.248873 0.93158 0
857 1 0.267435 0.949012 0
856 1 0.243754 0.955557 0
828 1 0.272495 0.923589 0
829 1 0.296087 0.916982 0
859 1 0.29019 0.941115 0
830 1 0.313443 0.933983 0
833 1 0.361797 0.923708 0
832 1 0.338456 0.927855 0
861 1 0.331718 0.9503 0
863 1 0.366859 0.948264 0
834 1 0.385436 0.93044 0
864 1 0.390599 0.95484 0
865 1 0.408304 0.937175 0
837 1 0.42621 0.91945 0
836 1 0.431241 0.943776 0
838 1 0.450019 0.926901 0
870 1 0.455762 0.950235 0
869 1 0.473446 0.933457 0
1711 1 0.492159 0.915652 0
1712 1 0.497209 0.939727 0
3 1 0.0342273 0.998627 0
873 1 0.0224175 0.957412 0
872 1 0.0158072 0.981935 0
874 1 0.0401282 0.974881 0
5 1 0.0577346 0.991552 0
876 1 0.0636218 0.966986 0
7 1 0.0816414 0.983883 0
877 1 0.0880912 0.95976 0
8 1 0.10003 0.999821 0
9 1 0.124473 0.99351 0
878 1 0.10673 0.976587 0
880 1 0.13052 0.968936 0
11 1 0.148288 0.986101 0
882 1 0.153862 0.961255 0
13 1 0.172197 0.978077 0
12 1 0.189571 0.995043 0
15 1 0.215283 0.987552 0
884 1 0.196618 0.9711 0
885 1 0.220403 0.961891 0
17 1 0.256316 0.997949 0
887 1 0.239131 0.979226 0
888 1 0.262709 0.974295 0
860 1 0.308477 0.95853 0
858 1 0.285948 0.966247 0
19 1 0.280446 0.991064 0
889 1 0.304339 0.98313 0
862 1 0.349972 0.966023 0
891 1 0.328189 0.977072 0
892 1 0.350472 0.99064 0
23 1 0.377311 0.998188 0
893 1 0.373801 0.97412 0
895 1 0.396859 0.981048 0
896 1 0.420971 0.987656 0
866 1 0.414615 0.962478 0
867 1 0.438164 0.968948 0
897 1 0.445299 0.994429 0
868 1 0.462183 0.976487 0
1771 1 0.486414 0.983696 0
1741 1 0.479664 0.957734 0
931 1 0.523693 0.0399452 0
901 1 0.517222 0.0144657 0
902 1 0.542029 0.0212945 0
30 1 0.500129 0.0325838 0
904 1 0.566211 0.027458 0
906 1 0.583847 0.00979799 0
905 1 0.559979 0.00271881 0
935 1 0.589527 0.0354294 0
908 1 0.607449 0.0180507 0
939 1 0.632237 0.0242398 0
937 1 0.613717 0.0422313 0
910 1 0.650033 0.00747759 0
941 1 0.656215 0.0317774 0
912 1 0.673863 0.0138364 0
942 1 0.679249 0.0385878 0
943 1 0.697304 0.0203654 0
945 1 0.720322 0.0278149 0
1784 1 0.715723 0.00181585 0
914 1 0.74281 0.0193367 0
916 1 0.766942 0.0123226 0
947 1 0.760146 0.0365586 0
918 1 0.784034 0.0307212 0
919 1 0.807104 0.0230685 0
917 1 0.789906 0.00563491 0
951 1 0.824976 0.0409092 0
920 1 0.831329 0.0167594 0
922 1 0.848903 0.0338197 0
921 1 0.854705 0.00796803 0
923 1 0.872966 0.0251679 0
924 1 0.896313 0.0177799 0
1792 1 0.878889 0.000547403 0
954 1 0.891062 0.0422674 0
955 1 0.915209 0.0343186 0
925 1 0.920303 0.0104077 0
926 1 0.939254 0.0283013 0
928 1 0.944445 0.00433993 0
930 1 0.986913 0.0133755 0
959 1 0.962811 0.0212135 0
960 1 0.980938 0.0380281 0
932 1 0.530461 0.063805 0
961 1 0.512429 0.0814129 0
60 1 0.505812 0.0564948 0
933 1 0.548064 0.0454375 0
963 1 0.555225 0.0701553 0
934 1 0.5725 0.0535009 0
965 1 0.578312 0.0781101 0
936 1 0.596248 0.0603118 0
967 1 0.619181 0.0669228 0
966 1 0.601365 0.0848504 0
938 1 0.637357 0.0499057 0
969 1 0.64274 0.0742956 0
940 1 0.66031 0.0565251 0
970 1 0.666367 0.0807277 0
944 1 0.702073 0.046106 0
971 1 0.683726 0.0633266 0
973 1 0.708035 0.0691448 0
972 1 0.69041 0.0871324 0
975 1 0.727818 0.0512314 0
974 1 0.73183 0.075796 0
946 1 0.751986 0.0611475 0
977 1 0.77009 0.0792859 0
949 1 0.801328 0.0478528 0
948 1 0.776943 0.0550062 0
979 1 0.795335 0.0721184 0
950 1 0.818908 0.0648454 0
980 1 0.837516 0.0814553 0
981 1 0.861833 0.0749266 0
952 1 0.843542 0.0576196 0
953 1 0.867329 0.0489921 0
983 1 0.884898 0.0668011 0
984 1 0.902894 0.0837612 0
985 1 0.908316 0.0592232 0
956 1 0.933189 0.0523798 0
986 1 0.927232 0.0766301 0
987 1 0.951232 0.0699932 0
957 1 0.95652 0.0457081 0
958 1 0.974975 0.0616199 0
989 1 0.99321 0.0789082 0
988 1 0.969101 0.0864928 0
61 1 0.998464 0.0544623 0
962 1 0.536277 0.0884637 0
991 1 0.51904 0.105793 0
993 1 0.54281 0.112981 0
120 1 0.50087 0.122738 0
992 1 0.524531 0.130349 0
964 1 0.559612 0.0948974 0
994 1 0.56649 0.120472 0
995 1 0.582959 0.102263 0
996 1 0.590258 0.126897 0
968 1 0.62504 0.0910655 0
997 1 0.60676 0.108483 0
998 1 0.63059 0.11518 0
999 1 0.649315 0.099183 0
1000 1 0.654962 0.123299 0
1001 1 0.673157 0.105665 0
1031 1 0.680329 0.130279 0
1002 1 0.69805 0.112087 0
1003 1 0.715568 0.0946975 0
1004 1 0.72296 0.118105 0
976 1 0.764092 0.104185 0
1005 1 0.740177 0.0991837 0
1035 1 0.747318 0.123746 0
978 1 0.813511 0.0892636 0
1007 1 0.788973 0.0962132 0
1006 1 0.783396 0.120168 0
1008 1 0.808115 0.113378 0
1009 1 0.831609 0.105974 0
1010 1 0.849618 0.123432 0
1011 1 0.855683 0.0990907 0
1039 1 0.826799 0.130025 0
982 1 0.879742 0.0917056 0
1012 1 0.873009 0.11628 0
1013 1 0.897556 0.109021 0
1016 1 0.917582 0.126194 0
1017 1 0.944957 0.0936835 0
1015 1 0.921918 0.101908 0
1047 1 0.941654 0.118955 0
1018 1 0.964718 0.111157 0
1019 1 0.988252 0.103116 0
1020 1 0.983167 0.128165 0
1022 1 0.530653 0.155846 0
1021 1 0.506993 0.147833 0
1051 1 0.513222 0.172899 0
1023 1 0.548455 0.137895 0
1024 1 0.554704 0.162892 0
1025 1 0.571914 0.145311 0
1055 1 0.578969 0.169415 0
1027 1 0.613885 0.132844 0
1026 1 0.595713 0.151302 0
1028 1 0.619853 0.158404 0
1029 1 0.637438 0.140371 0
1059 1 0.644632 0.164886 0
1030 1 0.661244 0.147185 0
1061 1 0.668817 0.171718 0
1032 1 0.686092 0.15427 0
1033 1 0.705558 0.135765 0
1063 1 0.71115 0.160264 0
1034 1 0.729558 0.142909 0
1036 1 0.754337 0.14844 0
1065 1 0.736897 0.166578 0
1066 1 0.763504 0.172618 0
1067 1 0.777767 0.144396 0
1037 1 0.802961 0.137327 0
1038 1 0.79732 0.161141 0
1040 1 0.82128 0.155524 0
1071 1 0.839242 0.173663 0
1041 1 0.845054 0.148299 0
1042 1 0.863314 0.165071 0
1014 1 0.893323 0.133063 0
1043 1 0.868867 0.14031 0
1044 1 0.88749 0.157828 0
1045 1 0.911151 0.15077 0
1046 1 0.935283 0.143343 0
1048 1 0.953144 0.16053 0
1077 1 0.930082 0.167826 0
1049 1 0.959209 0.135839 0
1050 1 0.97791 0.152122 0
151 1 0.995666 0.169138 0
1053 1 0.537561 0.180363 0
1052 1 0.519003 0.197534 0
1081 1 0.50146 0.215085 0
1083 1 0.542574 0.204333 0
1054 1 0.561956 0.186773 0
1056 1 0.585872 0.194486 0
1085 1 0.567314 0.211049 0
1057 1 0.603582 0.177141 0
1058 1 0.626855 0.183161 0
1087 1 0.610056 0.201231 0
1089 1 0.633988 0.207634 0
1060 1 0.65091 0.188632 0
1091 1 0.676236 0.195419 0
1090 1 0.658436 0.212229 0
1062 1 0.693113 0.177536 0
1093 1 0.700261 0.201679 0
1064 1 0.718617 0.184201 0
1094 1 0.724388 0.208404 0
1095 1 0.743074 0.190978 0
1097 1 0.76643 0.197036 0
1096 1 0.748776 0.215942 0
1069 1 0.814644 0.179894 0
1068 1 0.786939 0.183068 0
1098 1 0.789545 0.206665 0
1099 1 0.813491 0.20508 0
1070 1 0.836168 0.197815 0
1072 1 0.859189 0.190384 0
1101 1 0.853157 0.215146 0
1075 1 0.906324 0.175869 0
1073 1 0.881926 0.182555 0
1103 1 0.876954 0.207474 0
1074 1 0.900514 0.200586 0
1105 1 0.918417 0.216816 0
1078 1 0.947746 0.184826 0
1076 1 0.923544 0.193 0
1107 1 0.942208 0.209387 0
1079 1 0.971516 0.177054 0
1109 1 0.96643 0.201414 0
181 1 0.990203 0.193478 0
1082 1 0.52488 0.22245 0
1111 1 0.508776 0.240217 0
1113 1 0.532595 0.246773 0
1084 1 0.549899 0.228177 0
1114 1 0.557392 0.254407 0
1115 1 0.575107 0.23551 0
1116 1 0.581636 0.260395 0
1086 1 0.592263 0.21904 0
1088 1 0.616184 0.225528 0
1117 1 0.59893 0.243047 0
1118 1 0.62317 0.248902 0
1119 1 0.642046 0.23194 0
1121 1 0.666213 0.237688 0
1120 1 0.648384 0.256033 0
1092 1 0.68274 0.219088 0
1122 1 0.690128 0.2448 0
1123 1 0.707298 0.225776 0
1124 1 0.714295 0.250217 0
1125 1 0.731743 0.232629 0
1126 1 0.753874 0.240409 0
1127 1 0.771415 0.22329 0
1155 1 0.737189 0.258181 0
1129 1 0.80311 0.228342 0
1128 1 0.777995 0.246855 0
1159 1 0.801902 0.253258 0
1100 1 0.828475 0.223432 0
1130 1 0.824912 0.248903 0
1131 1 0.847795 0.24033 0
1132 1 0.867599 0.256879 0
1102 1 0.871374 0.232482 0
1104 1 0.894439 0.225048 0
1133 1 0.890527 0.24898 0
1135 1 0.913074 0.241525 0
1136 1 0.931636 0.258128 0
1106 1 0.937261 0.233752 0
1137 1 0.954751 0.25114 0
1110 1 0.984871 0.21813 0
1108 1 0.961289 0.22571 0
1139 1 0.97864 0.242275 0
1169 1 0.996713 0.259399 0