ITEM: TIMESTEP
98000
ITEM: NUMBER OF ATOMS
1800
ITEM: BOX BOUNDS pp pp pp
1.2470080419556240e+00 1.6375299195804342e+02
1.2470080419556240e+00 1.6375299195804342e+02
0.0000000000000000e+00 5.5000000000000000e+00
ITEM: ATOMS id type xs ys zs
2 1 0.010638 0.00692227 0
33 1 0.0281573 0.0242183 0
31 1 0.00461215 0.0313258 0
4 1 0.0527432 0.0164441 0
6 1 0.0771252 0.00863545 0
35 1 0.0714525 0.0329324 0
34 1 0.0470193 0.0413625 0
37 1 0.0959733 0.024522 0
39 1 0.119082 0.0176569 0
38 1 0.114497 0.0418373 0
8 1 0.10058 0.000114921 0
40 1 0.137909 0.034266 0
10 1 0.144039 0.0101453 0
41 1 0.167332 0.00170076 0
42 1 0.16196 0.0270417 0
43 1 0.185403 0.018722 0
14 1 0.209475 0.0117837 0
44 1 0.204529 0.0358874 0
45 1 0.228645 0.0282864 0
16 1 0.25259 0.0208567 0
886 1 0.232471 0.00281869 0
46 1 0.270161 0.038313 0
18 1 0.277123 0.013681 0
49 1 0.295407 0.0314845 0
20 1 0.302179 0.00705109 0
51 1 0.319848 0.0253795 0
22 1 0.344286 0.0316917 0
21 1 0.362365 0.0153976 0
890 1 0.326433 0.000745397 0
24 1 0.385969 0.0212865 0
53 1 0.368668 0.0389108 0
894 1 0.404376 0.00456274 0
25 1 0.410341 0.0288479 0
26 1 0.43457 0.0353389 0
27 1 0.428741 0.0108435 0
898 1 0.451948 0.0160005 0
29 1 0.475961 0.0242398 0
900 1 0.4945 0.00676945 0
28 1 0.458045 0.0409317 0
32 1 0.0229095 0.0486903 0
62 1 0.0174484 0.0727623 0
63 1 0.04119 0.0651971 0
65 1 0.0649912 0.0579054 0
66 1 0.0838834 0.0740269 0
64 1 0.0594839 0.082073 0
36 1 0.0904979 0.0499195 0
67 1 0.108116 0.0658028 0
69 1 0.1336 0.0588155 0
68 1 0.126574 0.0826995 0
73 1 0.181168 0.0439101 0
71 1 0.156612 0.0507336 0
72 1 0.17484 0.0672297 0
70 1 0.151147 0.0759304 0
74 1 0.222551 0.0527385 0
103 1 0.19932 0.0601409 0
105 1 0.216573 0.077791 0
101 1 0.192551 0.0847169 0
75 1 0.246705 0.0455931 0
77 1 0.264183 0.0629497 0
76 1 0.240387 0.0696282 0
137 1 0.257972 0.0878902 0
47 1 0.287975 0.0552433 0
48 1 0.308643 0.0675997 0
78 1 0.284167 0.0803023 0
50 1 0.326523 0.0496241 0
81 1 0.333924 0.0746359 0
52 1 0.350866 0.0556702 0
82 1 0.35784 0.0806488 0
55 1 0.392442 0.0458322 0
83 1 0.37448 0.0630282 0
54 1 0.399317 0.0705413 0
57 1 0.440525 0.0586926 0
85 1 0.424022 0.077151 0
56 1 0.41699 0.0530932 0
87 1 0.447447 0.0843276 0
59 1 0.483075 0.0480974 0
58 1 0.464453 0.06582 0
89 1 0.487854 0.0726601 0
990 1 0.0107326 0.0965879 0
92 1 0.0295598 0.113571 0
93 1 0.0360135 0.0892436 0
91 1 0.00594191 0.121138 0
94 1 0.0538958 0.106226 0
95 1 0.0779916 0.0988499 0
125 1 0.0724917 0.122456 0
123 1 0.0483967 0.130667 0
96 1 0.0965634 0.115371 0
97 1 0.102314 0.0910405 0
98 1 0.120691 0.106956 0
99 1 0.145542 0.0999449 0
100 1 0.169394 0.0931341 0
130 1 0.163833 0.116817 0
129 1 0.139546 0.123468 0
131 1 0.187758 0.109972 0
102 1 0.210468 0.101713 0
133 1 0.205533 0.126064 0
104 1 0.229022 0.117507 0
106 1 0.23455 0.0936871 0
135 1 0.253027 0.111649 0
107 1 0.276255 0.103754 0
109 1 0.299399 0.110915 0
79 1 0.315909 0.092166 0
108 1 0.281481 0.12792 0
80 1 0.34048 0.0988218 0
110 1 0.323045 0.11611 0
141 1 0.346618 0.124113 0
111 1 0.3636 0.105769 0
113 1 0.381748 0.0881495 0
84 1 0.405681 0.0946881 0
112 1 0.388237 0.113011 0
115 1 0.411084 0.119446 0
86 1 0.42897 0.102525 0
116 1 0.435614 0.126708 0
117 1 0.453538 0.109444 0
88 1 0.471593 0.0910065 0
90 1 0.495116 0.0981752 0
119 1 0.477426 0.116303 0
122 1 0.0246974 0.138169 0
153 1 0.0434917 0.155281 0
152 1 0.0191683 0.162426 0
121 1 0.000615808 0.144702 0
124 1 0.0677101 0.147319 0
155 1 0.0860244 0.163091 0
154 1 0.0618805 0.170731 0
126 1 0.0907127 0.139385 0
127 1 0.115545 0.131368 0
128 1 0.134963 0.148355 0
157 1 0.10942 0.155447 0
158 1 0.128346 0.171934 0
159 1 0.158273 0.140825 0
161 1 0.175977 0.158545 0
160 1 0.152166 0.165547 0
132 1 0.181319 0.13442 0
163 1 0.199748 0.15113 0
134 1 0.222976 0.143842 0
193 1 0.220304 0.168592 0
136 1 0.266395 0.145594 0
165 1 0.245726 0.134603 0
164 1 0.243239 0.160355 0
167 1 0.269932 0.168917 0
139 1 0.306541 0.135647 0
138 1 0.289317 0.152605 0
169 1 0.311886 0.160124 0
140 1 0.329712 0.142598 0
142 1 0.352443 0.148608 0
171 1 0.335497 0.166904 0
143 1 0.369625 0.13036 0
114 1 0.392998 0.137621 0
173 1 0.376043 0.154606 0
144 1 0.400683 0.161935 0
145 1 0.417597 0.144147 0
146 1 0.424265 0.170188 0
147 1 0.440652 0.152238 0
118 1 0.458908 0.135053 0
149 1 0.482879 0.141397 0
148 1 0.46494 0.159404 0
150 1 0.48966 0.166002 0
183 1 0.0381256 0.179364 0
182 1 0.0334775 0.202854 0
1080 1 0.0127783 0.186315 0
211 1 0.00910985 0.210718 0
184 1 0.0565613 0.195473 0
185 1 0.080176 0.187754 0
215 1 0.0758224 0.21321 0
186 1 0.098438 0.204674 0
156 1 0.10345 0.180369 0
187 1 0.122673 0.196339 0
189 1 0.146912 0.189104 0
191 1 0.171579 0.182885 0
190 1 0.164901 0.206159 0
188 1 0.140965 0.212888 0
221 1 0.188952 0.202685 0
162 1 0.195402 0.17451 0
192 1 0.211741 0.192878 0
194 1 0.215781 0.216481 0
195 1 0.234586 0.201452 0
166 1 0.251468 0.18493 0
196 1 0.257403 0.209372 0
168 1 0.293785 0.177129 0
197 1 0.275514 0.193372 0
199 1 0.299978 0.201169 0
172 1 0.359687 0.173545 0
170 1 0.317906 0.184153 0
201 1 0.341734 0.191517 0
200 1 0.323323 0.208895 0
202 1 0.347475 0.215437 0
203 1 0.366052 0.197621 0
174 1 0.383203 0.179465 0
204 1 0.389543 0.205051 0
175 1 0.40636 0.187176 0
177 1 0.447827 0.178004 0
205 1 0.413846 0.212899 0
176 1 0.430251 0.19474 0
178 1 0.454549 0.201133 0
179 1 0.472558 0.183821 0
180 1 0.496941 0.190085 0
209 1 0.478968 0.207821 0
212 1 0.0277179 0.227767 0
241 1 0.0228181 0.252085 0
1140 1 0.00363381 0.234915 0
243 1 0.0470394 0.244097 0
213 1 0.0517683 0.219865 0
214 1 0.0711277 0.238595 0
245 1 0.0899467 0.256177 0
216 1 0.0947067 0.230255 0
217 1 0.117157 0.220746 0
218 1 0.134994 0.236522 0
247 1 0.113301 0.2478 0
219 1 0.159003 0.242738 0
220 1 0.17839 0.226213 0
222 1 0.181925 0.252487 0
249 1 0.140373 0.260262 0
223 1 0.199999 0.236154 0
224 1 0.223045 0.243471 0
253 1 0.20475 0.260482 0
225 1 0.238886 0.225909 0
227 1 0.262582 0.234177 0
226 1 0.245547 0.25176 0
257 1 0.269757 0.25953 0
198 1 0.281446 0.217936 0
228 1 0.286997 0.242594 0
229 1 0.304969 0.22622 0
230 1 0.311046 0.250225 0
231 1 0.328789 0.233137 0
232 1 0.35279 0.240485 0
261 1 0.33459 0.257013 0
233 1 0.370973 0.223141 0
234 1 0.376365 0.2473 0
235 1 0.395829 0.230109 0
265 1 0.400715 0.25422 0
207 1 0.437833 0.21914 0
206 1 0.419494 0.237011 0
237 1 0.443298 0.243341 0
208 1 0.461204 0.225258 0
210 1 0.484839 0.232182 0
239 1 0.466906 0.248858 0
240 1 0.490469 0.256513 0
242 1 0.0407284 0.26721 0
271 1 0.035808 0.290837 0
1170 1 0.0168603 0.276131 0
1200 1 0.0123042 0.300568 0
244 1 0.0647505 0.263015 0
273 1 0.0607376 0.296697 0
275 1 0.0813537 0.281591 0
246 1 0.103954 0.290902 0
248 1 0.119581 0.272713 0
279 1 0.126151 0.300778 0
251 1 0.163263 0.268202 0
250 1 0.144277 0.284361 0
281 1 0.166705 0.293541 0
252 1 0.18611 0.277856 0
254 1 0.209443 0.285813 0
283 1 0.190395 0.302565 0
255 1 0.2281 0.269324 0
256 1 0.251586 0.276273 0
285 1 0.232774 0.293676 0
287 1 0.256249 0.301169 0
259 1 0.292922 0.267008 0
258 1 0.274442 0.284453 0
289 1 0.298288 0.291243 0
260 1 0.316677 0.274097 0
263 1 0.357938 0.264441 0
262 1 0.340685 0.281694 0
291 1 0.32093 0.299312 0
293 1 0.364433 0.289425 0
264 1 0.382272 0.272267 0
295 1 0.388824 0.296213 0
266 1 0.4064 0.278128 0
236 1 0.425484 0.260586 0
238 1 0.448926 0.268049 0
267 1 0.430021 0.285423 0
297 1 0.41274 0.303326 0
268 1 0.454965 0.292805 0
1141 1 0.496666 0.280995 0
269 1 0.472957 0.274287 0
270 1 0.479065 0.299652 0
301 1 0.0198245 0.325012 0
272 1 0.0417948 0.314066 0
1230 1 0.00191244 0.34096 0
303 1 0.0445253 0.337801 0
276 1 0.0843059 0.306896 0
274 1 0.0647876 0.321921 0
305 1 0.0862422 0.331839 0
304 1 0.0662621 0.346641 0
277 1 0.106521 0.316902 0
278 1 0.129477 0.326023 0
307 1 0.1101 0.340929 0
280 1 0.149064 0.309807 0
311 1 0.152815 0.334328 0
282 1 0.171963 0.318042 0
312 1 0.175791 0.342377 0
284 1 0.213811 0.309961 0
313 1 0.195422 0.326629 0
315 1 0.219687 0.335458 0
286 1 0.238058 0.318314 0
317 1 0.261218 0.325396 0
316 1 0.242202 0.345335 0
288 1 0.279519 0.308734 0
318 1 0.284362 0.334721 0
290 1 0.30345 0.316771 0
319 1 0.308081 0.342754 0
292 1 0.345782 0.305825 0
321 1 0.328228 0.323781 0
323 1 0.352449 0.330886 0
324 1 0.376301 0.337707 0
294 1 0.370234 0.313464 0
325 1 0.400232 0.344849 0
296 1 0.394604 0.320778 0
298 1 0.437155 0.310518 0
327 1 0.419524 0.327897 0
328 1 0.444383 0.334605 0
329 1 0.468833 0.340313 0
299 1 0.461949 0.31713 0
300 1 0.486031 0.323396 0
302 1 0.0243144 0.350921 0
332 1 0.0265577 0.375192 0
331 1 0.00342387 0.364958 0
361 1 0.00742627 0.389733 0
333 1 0.0474338 0.362482 0
335 1 0.0698346 0.371544 0
334 1 0.0497419 0.387099 0
306 1 0.0900147 0.355177 0
337 1 0.0933428 0.379534 0
308 1 0.113503 0.3647 0
309 1 0.133932 0.349603 0
338 1 0.11616 0.388792 0
339 1 0.136463 0.373867 0
310 1 0.157084 0.359228 0
341 1 0.159503 0.383429 0
343 1 0.179793 0.36695 0
314 1 0.199482 0.35086 0
344 1 0.203256 0.376541 0
345 1 0.223141 0.360953 0
375 1 0.226575 0.386611 0
347 1 0.266232 0.351165 0
346 1 0.247376 0.370181 0
377 1 0.270541 0.378447 0
349 1 0.289129 0.361342 0
348 1 0.295359 0.385466 0
350 1 0.315149 0.366483 0
320 1 0.33394 0.348063 0
351 1 0.342553 0.372568 0
381 1 0.325811 0.389374 0
322 1 0.358559 0.355202 0
353 1 0.367118 0.379728 0
355 1 0.383717 0.362269 0
354 1 0.39232 0.386485 0
356 1 0.408413 0.367667 0
326 1 0.425936 0.350986 0
357 1 0.432816 0.375445 0
359 1 0.451136 0.35873 0
1201 1 0.492816 0.347782 0
358 1 0.45793 0.382463 0
330 1 0.475679 0.365022 0
1231 1 0.500079 0.373403 0
360 1 0.481021 0.390378 0
363 1 0.0303503 0.401445 0
362 1 0.00983327 0.414313 0
364 1 0.0327756 0.425435 0
336 1 0.0736091 0.396149 0
365 1 0.052156 0.411373 0
366 1 0.0770558 0.420035 0
395 1 0.0553683 0.435508 0
367 1 0.0970457 0.40463 0
369 1 0.119926 0.413685 0
368 1 0.100403 0.428637 0
340 1 0.139015 0.399325 0
370 1 0.142521 0.423787 0
371 1 0.161931 0.408466 0
401 1 0.166468 0.432909 0
342 1 0.182748 0.392029 0
372 1 0.185955 0.41687 0
373 1 0.206899 0.401672 0
403 1 0.208316 0.4272 0
374 1 0.229657 0.411525 0
376 1 0.249998 0.395403 0
405 1 0.251153 0.422294 0
378 1 0.274215 0.402951 0
407 1 0.272069 0.435546 0
379 1 0.309181 0.406063 0
409 1 0.290665 0.420696 0
410 1 0.313737 0.429072 0
352 1 0.349786 0.397251 0
382 1 0.356329 0.421777 0
380 1 0.332655 0.414614 0
383 1 0.373375 0.404693 0
385 1 0.39798 0.410619 0
384 1 0.379936 0.429429 0
387 1 0.41555 0.392652 0
386 1 0.422502 0.418539 0
388 1 0.439317 0.400548 0
419 1 0.445821 0.425027 0
389 1 0.463472 0.408105 0
1261 1 0.487922 0.414886 0
390 1 0.470132 0.431755 0
393 1 0.01238 0.439709 0
423 1 0.0153311 0.464402 0
394 1 0.0351758 0.450204 0
425 1 0.0378986 0.474964 0
396 1 0.0581492 0.459931 0
397 1 0.078862 0.444278 0
427 1 0.0820845 0.468967 0
399 1 0.122995 0.438631 0
398 1 0.102278 0.454237 0
429 1 0.125387 0.462787 0
400 1 0.146096 0.447827 0
431 1 0.16831 0.458474 0
430 1 0.148169 0.473826 0
402 1 0.189055 0.442743 0
433 1 0.210988 0.452636 0
432 1 0.191038 0.468833 0
404 1 0.230665 0.4374 0
406 1 0.252193 0.448634 0
435 1 0.232968 0.464093 0
436 1 0.255675 0.475025 0
437 1 0.275211 0.459561 0
408 1 0.294734 0.444545 0
439 1 0.298573 0.468354 0
441 1 0.318015 0.4531 0
413 1 0.361234 0.446328 0
411 1 0.33835 0.438356 0
412 1 0.342726 0.462348 0
415 1 0.404296 0.434939 0
414 1 0.385494 0.453667 0
443 1 0.368289 0.470624 0
445 1 0.391644 0.477902 0
416 1 0.409551 0.459979 0
417 1 0.428415 0.442826 0
418 1 0.452576 0.449893 0
447 1 0.433476 0.467036 0
1291 1 0.494413 0.439561 0
420 1 0.476672 0.455982 0
449 1 0.458533 0.473854 0
454 1 0.0210991 0.513276 0
424 1 0.0177876 0.489442 0
455 1 0.0413072 0.498492 0
426 1 0.0628005 0.483841 0
456 1 0.0636796 0.508316 0
457 1 0.0854781 0.493254 0
487 1 0.0864961 0.518523 0
428 1 0.105641 0.477994 0
459 1 0.128036 0.487967 0
458 1 0.107279 0.504299 0
489 1 0.130293 0.513507 0
461 1 0.170576 0.483697 0
460 1 0.151214 0.499243 0
462 1 0.174652 0.508954 0
434 1 0.213601 0.478219 0
463 1 0.194229 0.493023 0
464 1 0.216095 0.50408 0
493 1 0.19751 0.518904 0
465 1 0.235716 0.489878 0
467 1 0.259333 0.499924 0
466 1 0.240275 0.514975 0
438 1 0.27928 0.484228 0
469 1 0.302603 0.492922 0
468 1 0.282755 0.507832 0
470 1 0.306865 0.51737 0
440 1 0.322733 0.476777 0
442 1 0.348097 0.486391 0
471 1 0.327712 0.501981 0
473 1 0.351887 0.511076 0
444 1 0.372822 0.496222 0
475 1 0.397373 0.501832 0
474 1 0.377882 0.520425 0
446 1 0.415435 0.484218 0
477 1 0.423236 0.508367 0
448 1 0.440209 0.492312 0
478 1 0.445866 0.516401 0
450 1 0.482179 0.481349 0
479 1 0.464255 0.499818 0
1381 1 0.490335 0.507017 0
452 1 0.000448545 0.528182 0
483 1 0.023328 0.538063 0
482 1 0.00291074 0.552714 0
513 1 0.0267377 0.56302 0
485 1 0.0438326 0.523222 0
484 1 0.0467511 0.548779 0
486 1 0.0665728 0.534537 0
515 1 0.070203 0.558989 0
517 1 0.0896829 0.544208 0
488 1 0.109628 0.529043 0
519 1 0.112628 0.554249 0
490 1 0.132345 0.538387 0
520 1 0.135789 0.564053 0
491 1 0.153688 0.522861 0
521 1 0.156432 0.547934 0
492 1 0.17685 0.533418 0
523 1 0.17894 0.559388 0
494 1 0.19947 0.544976 0
495 1 0.21979 0.53008 0
525 1 0.223503 0.554946 0
496 1 0.24249 0.53924 0
497 1 0.26276 0.524037 0
527 1 0.265197 0.548306 0
526 1 0.245773 0.564816 0
499 1 0.308282 0.541485 0
498 1 0.286247 0.532016 0
529 1 0.288258 0.557597 0
472 1 0.332384 0.527117 0
501 1 0.329861 0.551696 0
502 1 0.352315 0.559476 0
503 1 0.358403 0.535514 0
505 1 0.387649 0.544481 0
476 1 0.404794 0.526642 0
504 1 0.375259 0.56615 0
506 1 0.4119 0.55164 0
507 1 0.429574 0.534351 0
508 1 0.436324 0.55838 0
509 1 0.453951 0.540958 0
480 1 0.471685 0.522578 0
510 1 0.478783 0.54749 0
1382 1 0.497863 0.531205 0
512 1 0.0293276 0.588337 0
511 1 0.00734544 0.578361 0
541 1 0.00893321 0.602839 0
514 1 0.0494994 0.573574 0
545 1 0.0720761 0.584627 0
543 1 0.0529248 0.599928 0
516 1 0.0926939 0.569509 0
518 1 0.115818 0.579354 0
547 1 0.0951039 0.594182 0
548 1 0.118392 0.604227 0
549 1 0.138609 0.589537 0
522 1 0.159181 0.574257 0
551 1 0.163016 0.599802 0
553 1 0.181775 0.583972 0
524 1 0.203604 0.569725 0
554 1 0.206365 0.594559 0
555 1 0.226705 0.580429 0
556 1 0.229116 0.605358 0
557 1 0.249105 0.590148 0
528 1 0.269028 0.574418 0
558 1 0.272146 0.600216 0
500 1 0.311113 0.567991 0
559 1 0.290796 0.583816 0
530 1 0.314818 0.592771 0
560 1 0.295645 0.608473 0
531 1 0.33305 0.576854 0
532 1 0.337672 0.600919 0
533 1 0.357131 0.583686 0
563 1 0.361071 0.608277 0
534 1 0.38037 0.591535 0
535 1 0.397904 0.572988 0
536 1 0.403982 0.597211 0
537 1 0.421009 0.577969 0
567 1 0.427484 0.602775 0
538 1 0.445041 0.584226 0
568 1 0.451492 0.609661 0
539 1 0.460908 0.564995 0
540 1 0.485393 0.572775 0
569 1 0.468117 0.591039 0
1441 1 0.492255 0.598078 0
542 1 0.0324239 0.614426 0
571 1 0.0122763 0.628352 0
573 1 0.0347868 0.63957 0
546 1 0.075557 0.610986 0
544 1 0.0560256 0.626197 0
575 1 0.0790063 0.636493 0
574 1 0.0586601 0.650862 0
577 1 0.0989396 0.620042 0
579 1 0.122358 0.630165 0
576 1 0.101384 0.645245 0
550 1 0.142544 0.614715 0
581 1 0.165913 0.625339 0
580 1 0.144638 0.640657 0
611 1 0.168048 0.64948 0
552 1 0.186081 0.608962 0
582 1 0.188263 0.633764 0
583 1 0.208814 0.619973 0
584 1 0.212776 0.644281 0
585 1 0.233125 0.629159 0
586 1 0.256688 0.639767 0
587 1 0.2528 0.61513 0
589 1 0.275861 0.624512 0
590 1 0.299017 0.63384 0
588 1 0.28026 0.650092 0
561 1 0.319347 0.618336 0
562 1 0.342695 0.626584 0
591 1 0.323732 0.643686 0
593 1 0.347883 0.650681 0
565 1 0.385262 0.615395 0
564 1 0.367414 0.632663 0
595 1 0.391641 0.639466 0
566 1 0.408791 0.621192 0
596 1 0.415345 0.64592 0
597 1 0.433181 0.627489 0
570 1 0.475791 0.615802 0
600 1 0.457196 0.633807 0
1471 1 0.481267 0.640845 0
1442 1 0.499799 0.622936 0
572 1 0.0148981 0.653427 0
602 1 0.0180217 0.678999 0
603 1 0.0379868 0.664436 0
633 1 0.0405045 0.690195 0
605 1 0.0819301 0.661684 0
604 1 0.0612412 0.67605 0
606 1 0.0837773 0.68688 0
578 1 0.123982 0.655187 0
607 1 0.104427 0.67125 0
608 1 0.126756 0.680853 0
609 1 0.147894 0.665716 0
610 1 0.171121 0.674935 0
639 1 0.151552 0.690224 0
612 1 0.195499 0.683641 0
613 1 0.19143 0.657743 0
614 1 0.215397 0.669274 0
643 1 0.218482 0.693772 0
615 1 0.236569 0.65408 0
616 1 0.239149 0.679125 0
617 1 0.25985 0.665407 0
647 1 0.263501 0.68955 0
619 1 0.304096 0.658047 0
618 1 0.284294 0.674307 0
620 1 0.309438 0.683995 0
621 1 0.328728 0.667983 0
592 1 0.353991 0.675825 0
622 1 0.336599 0.692297 0
594 1 0.372545 0.656862 0
625 1 0.396337 0.664086 0
623 1 0.37945 0.681639 0
626 1 0.404187 0.688705 0
599 1 0.44008 0.652218 0
598 1 0.445761 0.677046 0
627 1 0.421388 0.670518 0
657 1 0.429011 0.695645 0
628 1 0.470702 0.683746 0
629 1 0.464119 0.65917 0
1501 1 0.488925 0.66565 0
630 1 0.495384 0.691112 0
632 1 0.0193901 0.70323 0
663 1 0.0211273 0.727406 0
634 1 0.0424958 0.715614 0
635 1 0.0631744 0.701539 0
636 1 0.0866001 0.71217 0
665 1 0.0657654 0.728619 0
666 1 0.0892211 0.738085 0
637 1 0.106978 0.696331 0
638 1 0.130434 0.706454 0
667 1 0.109921 0.721254 0
669 1 0.133248 0.73123 0
641 1 0.174915 0.699257 0
640 1 0.154436 0.715156 0
671 1 0.178067 0.724474 0
670 1 0.157305 0.740028 0
642 1 0.197751 0.708367 0
673 1 0.201392 0.733504 0
644 1 0.220903 0.718003 0
645 1 0.24149 0.703635 0
675 1 0.243401 0.728174 0
646 1 0.263377 0.71409 0
677 1 0.265999 0.737774 0
649 1 0.28786 0.699169 0
648 1 0.285923 0.723354 0
679 1 0.308245 0.730612 0
650 1 0.317477 0.708187 0
651 1 0.343351 0.717019 0
681 1 0.330558 0.738478 0
653 1 0.361594 0.699433 0
624 1 0.386386 0.707415 0
654 1 0.367752 0.724199 0
685 1 0.392898 0.732196 0
655 1 0.410788 0.713407 0
656 1 0.43541 0.719786 0
686 1 0.417607 0.737458 0
658 1 0.453143 0.701841 0
687 1 0.459461 0.726364 0
659 1 0.478129 0.708584 0
689 1 0.483854 0.733264 0
662 1 0.0229558 0.752144 0
693 1 0.0280573 0.77505 0
691 1 0.00277891 0.766183 0
664 1 0.0442326 0.740995 0
695 1 0.0683171 0.755489 0
694 1 0.0519054 0.77463 0
696 1 0.0759515 0.782132 0
697 1 0.0945491 0.763145 0
668 1 0.11271 0.746947 0
698 1 0.119689 0.772688 0
699 1 0.137751 0.75588 0
701 1 0.162738 0.763504 0
700 1 0.144204 0.779472 0
672 1 0.18198 0.748462 0
702 1 0.185692 0.772451 0
674 1 0.224188 0.742998 0
703 1 0.20577 0.758078 0
704 1 0.207881 0.782824 0
705 1 0.228126 0.768379 0
676 1 0.246731 0.753298 0
707 1 0.269026 0.762821 0
735 1 0.250711 0.779197 0
678 1 0.289359 0.747326 0
709 1 0.294065 0.771871 0
680 1 0.312176 0.755252 0
710 1 0.318048 0.779175 0
652 1 0.354634 0.74451 0
682 1 0.360563 0.769087 0
711 1 0.336828 0.762253 0
683 1 0.377643 0.750367 0
713 1 0.384652 0.775475 0
684 1 0.401504 0.756907 0
716 1 0.409338 0.781699 0
717 1 0.442747 0.744874 0
715 1 0.426106 0.762031 0
718 1 0.449786 0.768398 0
690 1 0.491364 0.757253 0
688 1 0.466769 0.750657 0
719 1 0.474333 0.775971 0
1591 1 0.498764 0.782397 0
692 1 0.008945 0.790251 0
722 1 0.0164525 0.815156 0
723 1 0.0339839 0.79862 0
724 1 0.0416948 0.820826 0
725 1 0.0582403 0.799859 0
726 1 0.0836696 0.806279 0
755 1 0.0653671 0.824315 0
727 1 0.10037 0.788402 0
728 1 0.125432 0.796974 0
757 1 0.107101 0.813162 0
759 1 0.13133 0.820993 0
729 1 0.149764 0.805213 0
730 1 0.174387 0.813924 0
731 1 0.167559 0.789012 0
732 1 0.197514 0.804911 0
734 1 0.226418 0.819582 0
733 1 0.230832 0.794267 0
736 1 0.252278 0.808961 0
737 1 0.279251 0.810872 0
706 1 0.273742 0.78711 0
708 1 0.299318 0.795693 0
738 1 0.304727 0.820986 0
739 1 0.323864 0.80318 0
741 1 0.341976 0.786182 0
742 1 0.349449 0.810607 0
712 1 0.367079 0.793179 0
714 1 0.39163 0.799332 0
743 1 0.373093 0.817534 0
745 1 0.398242 0.823198 0
746 1 0.415898 0.805136 0
747 1 0.43367 0.787626 0
748 1 0.440581 0.811899 0
749 1 0.457827 0.793274 0
720 1 0.482247 0.800626 0
750 1 0.465505 0.817361 0
1621 1 0.489043 0.825161 0
752 1 0.00280193 0.850103 0
753 1 0.0241272 0.838474 0
783 1 0.0240818 0.86344 0
754 1 0.0478761 0.845173 0
785 1 0.0725663 0.849235 0
756 1 0.0892115 0.830625 0
758 1 0.113214 0.836612 0
787 1 0.108351 0.860992 0
760 1 0.154989 0.830184 0
789 1 0.136701 0.846683 0
791 1 0.173301 0.861452 0
790 1 0.149086 0.868298 0
761 1 0.178818 0.837457 0
763 1 0.202493 0.829101 0
762 1 0.198453 0.852988 0
764 1 0.222873 0.844661 0
765 1 0.246473 0.837557 0
795 1 0.241299 0.862163 0
766 1 0.265253 0.856849 0
767 1 0.270917 0.832774 0
769 1 0.314079 0.843972 0
768 1 0.289531 0.849192 0
799 1 0.306559 0.867172 0
740 1 0.331139 0.827656 0
770 1 0.337219 0.853172 0
771 1 0.355925 0.835535 0
773 1 0.363143 0.859247 0
744 1 0.380948 0.840851 0
774 1 0.387973 0.865109 0
775 1 0.405381 0.847353 0
777 1 0.422874 0.829203 0
807 1 0.429768 0.852925 0
778 1 0.447584 0.835101 0
809 1 0.453557 0.860616 0
779 1 0.471691 0.842249 0
780 1 0.477987 0.867445 0
1651 1 0.496097 0.849428 0
812 1 0.0147799 0.891711 0
814 1 0.0324988 0.910245 0
813 1 0.0380279 0.884568 0
784 1 0.0564694 0.869161 0
786 1 0.0834199 0.870291 0
815 1 0.0555804 0.901869 0
816 1 0.0791706 0.894434 0
788 1 0.126028 0.877327 0
817 1 0.102566 0.885132 0
819 1 0.121758 0.901248 0
818 1 0.0986014 0.910007 0
821 1 0.168278 0.886225 0
820 1 0.145016 0.893333 0
851 1 0.164426 0.910328 0
792 1 0.191838 0.87774 0
793 1 0.217408 0.870336 0
823 1 0.211908 0.895295 0
822 1 0.188252 0.902373 0
794 1 0.23512 0.888302 0
796 1 0.258532 0.881129 0
827 1 0.253738 0.905174 0
825 1 0.229436 0.912921 0
797 1 0.282887 0.873872 0
798 1 0.277036 0.898096 0
800 1 0.300706 0.892006 0
831 1 0.320063 0.908765 0
772 1 0.3472 0.877288 0
801 1 0.324735 0.883867 0
802 1 0.345343 0.901625 0
803 1 0.37068 0.882979 0
804 1 0.378076 0.907209 0
805 1 0.395613 0.889506 0
835 1 0.401991 0.914202 0
776 1 0.41234 0.871126 0
806 1 0.419457 0.896294 0
808 1 0.436571 0.878622 0
839 1 0.443461 0.90286 0
1681 1 0.484045 0.891404 0
810 1 0.459527 0.884778 0
840 1 0.467928 0.909473 0
842 1 0.00289627 0.940138 0
843 1 0.00896312 0.917177 0
844 1 0.0274498 0.934097 0
875 1 0.0457567 0.95069 0
845 1 0.0506669 0.926596 0
846 1 0.0690349 0.943386 0
847 1 0.0748975 0.918286 0
848 1 0.0935396 0.935095 0
849 1 0.117142 0.926349 0
879 1 0.111763 0.951096 0
881 1 0.134759 0.94414 0
850 1 0.140238 0.917956 0
852 1 0.158658 0.935557 0
883 1 0.177575 0.95225 0
853 1 0.181321 0.927293 0
824 1 0.206289 0.919737 0
854 1 0.200963 0.945107 0
855 1 0.223876 0.937973 0
826 1 0.247893 0.930056 0
857 1 0.266172 0.947887 0
856 1 0.242585 0.954934 0
828 1 0.271913 0.923139 0
829 1 0.295459 0.91581 0
859 1 0.290344 0.939521 0
830 1 0.31332 0.933347 0
833 1 0.36022 0.92365 0
832 1 0.336693 0.926663 0
861 1 0.332518 0.950871 0
863 1 0.365797 0.949112 0
834 1 0.383794 0.931468 0
864 1 0.391022 0.955786 0
865 1 0.408064 0.937796 0
837 1 0.426365 0.920019 0
836 1 0.433293 0.944604 0
838 1 0.45093 0.927131 0
870 1 0.457909 0.951721 0
869 1 0.47548 0.934322 0
1711 1 0.492578 0.916519 0
1712 1 0.499529 0.940898 0
3 1 0.0345267 0.999771 0
873 1 0.0211026 0.957833 0
872 1 0.0163408 0.982596 0
874 1 0.0398768 0.974952 0
5 1 0.0584901 0.991433 0
876 1 0.0642336 0.968037 0
7 1 0.0834062 0.98348 0
877 1 0.0879289 0.959656 0
9 1 0.124579 0.993097 0
878 1 0.106176 0.975738 0
880 1 0.129756 0.968294 0
11 1 0.148359 0.985314 0
882 1 0.153918 0.959889 0
13 1 0.17279 0.976352 0
12 1 0.190671 0.994622 0
15 1 0.214296 0.987097 0
884 1 0.196204 0.969667 0
885 1 0.219586 0.962426 0
17 1 0.256253 0.996901 0
887 1 0.238047 0.979296 0
888 1 0.262015 0.972493 0
860 1 0.309554 0.958503 0
858 1 0.286462 0.964913 0
19 1 0.280363 0.989418 0
889 1 0.304215 0.983097 0
862 1 0.350366 0.96784 0
891 1 0.327787 0.976233 0
892 1 0.356273 0.991881 0
23 1 0.37977 0.997863 0
893 1 0.37367 0.974011 0
895 1 0.397362 0.980255 0
896 1 0.422238 0.987057 0
866 1 0.414932 0.962182 0
867 1 0.439965 0.968433 0
897 1 0.447618 0.99236 0
899 1 0.470931 0.999388 0
868 1 0.46585 0.975619 0
1771 1 0.489373 0.982509 0
1741 1 0.481832 0.957684 0
931 1 0.52427 0.0384223 0
901 1 0.518152 0.0141381 0
902 1 0.542121 0.0210868 0
30 1 0.500146 0.0307892 0
904 1 0.565809 0.0260005 0
906 1 0.583332 0.0085583 0
905 1 0.559631 0.00229963 0
935 1 0.589563 0.0335819 0
908 1 0.60745 0.0156603 0
939 1 0.630728 0.0219424 0
937 1 0.613703 0.0397415 0
910 1 0.648108 0.00433245 0
941 1 0.654244 0.0292248 0
912 1 0.671473 0.0118722 0
942 1 0.678219 0.0363744 0
943 1 0.695686 0.0178118 0
945 1 0.717726 0.0270146 0
1784 1 0.716779 0.00200542 0
914 1 0.74059 0.0187555 0
916 1 0.764189 0.0119728 0
947 1 0.758407 0.0353525 0
918 1 0.78228 0.0290385 0
919 1 0.805983 0.0221898 0
917 1 0.788161 0.0045999 0
951 1 0.823321 0.0396137 0
920 1 0.830448 0.0146602 0
922 1 0.847077 0.0328221 0
921 1 0.853968 0.0088338 0
923 1 0.871109 0.0257584 0
924 1 0.8959 0.0193563 0
1792 1 0.877431 0.00131045 0
954 1 0.890051 0.0430264 0
955 1 0.914834 0.0354634 0
925 1 0.919899 0.0113649 0
926 1 0.938334 0.0285358 0
928 1 0.943809 0.00452075 0
930 1 0.987379 0.0137226 0
959 1 0.962515 0.0215457 0
960 1 0.981129 0.0379923 0
932 1 0.530037 0.0620761 0
961 1 0.512689 0.0809884 0
60 1 0.505896 0.0557332 0
933 1 0.547915 0.0445563 0
963 1 0.553967 0.069555 0
934 1 0.57238 0.0521996 0
965 1 0.579041 0.0767565 0
936 1 0.596248 0.0584704 0
967 1 0.619724 0.064828 0
966 1 0.603184 0.0827436 0
938 1 0.636907 0.0473905 0
969 1 0.643413 0.071714 0
940 1 0.660579 0.0547475 0
970 1 0.667698 0.0791804 0
944 1 0.701569 0.0448383 0
971 1 0.684809 0.0611057 0
973 1 0.711459 0.0670239 0
972 1 0.693008 0.0845378 0
975 1 0.730052 0.0495471 0
974 1 0.734995 0.0751035 0
946 1 0.753152 0.0591547 0
977 1 0.769831 0.0793317 0
949 1 0.799467 0.0469978 0
948 1 0.776338 0.0544002 0
979 1 0.793956 0.0724333 0
950 1 0.818273 0.0642544 0
980 1 0.836479 0.0812675 0
981 1 0.860436 0.0746181 0
952 1 0.841858 0.0569826 0
953 1 0.865645 0.0496444 0
983 1 0.88456 0.0681812 0
984 1 0.902855 0.0846141 0
985 1 0.908408 0.0599548 0
956 1 0.932839 0.052193 0
986 1 0.927088 0.0771815 0
987 1 0.951 0.069417 0
957 1 0.957191 0.0456335 0
958 1 0.975313 0.0621208 0
989 1 0.993733 0.0792774 0
61 1 0.998919 0.0548869 0
962 1 0.536592 0.0869207 0
991 1 0.519983 0.105728 0
993 1 0.544228 0.111304 0
120 1 0.50163 0.123463 0
992 1 0.525626 0.13032 0
964 1 0.561367 0.0937024 0
994 1 0.56744 0.119298 0
995 1 0.585701 0.101262 0
996 1 0.592069 0.125721 0
968 1 0.626868 0.0901821 0
997 1 0.609363 0.107571 0
998 1 0.632912 0.114547 0
999 1 0.65096 0.0970504 0
1000 1 0.657271 0.12123 0
1001 1 0.675286 0.102453 0
1031 1 0.681122 0.127337 0
1002 1 0.699298 0.109809 0
1003 1 0.7167 0.0918836 0
1004 1 0.722871 0.116482 0
976 1 0.765002 0.104436 0
1005 1 0.740787 0.0996066 0
1035 1 0.748019 0.123089 0
978 1 0.812768 0.0890508 0
1007 1 0.788665 0.0971747 0
1006 1 0.781774 0.123695 0
1008 1 0.805834 0.114929 0
1009 1 0.830385 0.106755 0
1010 1 0.848916 0.124442 0
1011 1 0.854881 0.0992356 0
982 1 0.879015 0.0929085 0
1012 1 0.872445 0.116855 0
1013 1 0.897393 0.108993 0
1016 1 0.915854 0.125434 0
1017 1 0.945308 0.0935146 0
1015 1 0.921183 0.101184 0
1047 1 0.939435 0.118563 0
988 1 0.969399 0.0859911 0
1018 1 0.964283 0.110682 0
1019 1 0.987674 0.103489 0
1020 1 0.982457 0.127863 0
1022 1 0.530944 0.155443 0
1021 1 0.506798 0.148529 0
1051 1 0.514355 0.172908 0
1023 1 0.550084 0.137314 0
1024 1 0.556189 0.161716 0
1025 1 0.574665 0.144034 0
1055 1 0.580632 0.167933 0
1027 1 0.615862 0.131868 0
1026 1 0.598903 0.150233 0
1028 1 0.622071 0.157376 0
1029 1 0.639987 0.13873 0
1059 1 0.646344 0.163363 0
1030 1 0.664728 0.145941 0
1061 1 0.671035 0.170887 0
1032 1 0.688363 0.152171 0
1033 1 0.705637 0.134858 0
1063 1 0.712351 0.159643 0
1034 1 0.729114 0.141497 0
1036 1 0.753914 0.147884 0
1065 1 0.735996 0.165945 0
1066 1 0.759684 0.172082 0
1067 1 0.778213 0.148955 0
1037 1 0.801493 0.139159 0
1038 1 0.798239 0.163427 0
1039 1 0.824567 0.130934 0
1040 1 0.821402 0.155959 0
1071 1 0.838525 0.173731 0
1041 1 0.844218 0.148854 0
1042 1 0.862165 0.166153 0
1014 1 0.892054 0.133146 0
1043 1 0.867892 0.141345 0
1044 1 0.885597 0.157726 0
1045 1 0.909511 0.150175 0
1046 1 0.934463 0.143123 0
1048 1 0.951886 0.160129 0
1077 1 0.928802 0.168189 0
1049 1 0.958437 0.135728 0
1050 1 0.976827 0.152303 0
151 1 0.995268 0.169299 0
1053 1 0.53823 0.179529 0
1052 1 0.520037 0.197842 0
1081 1 0.503096 0.215483 0
1083 1 0.544974 0.204962 0
1054 1 0.562358 0.185926 0
1056 1 0.586944 0.191995 0
1085 1 0.568819 0.209815 0
1057 1 0.604608 0.174511 0
1058 1 0.628674 0.181834 0
1087 1 0.610947 0.199162 0
1089 1 0.634015 0.205621 0
1060 1 0.652231 0.188598 0
1091 1 0.67623 0.195825 0
1090 1 0.658996 0.212471 0
1062 1 0.694818 0.178183 0
1093 1 0.701237 0.202011 0
1064 1 0.7187 0.183202 0
1094 1 0.724648 0.209089 0
1095 1 0.741686 0.19038 0
1097 1 0.764572 0.198364 0
1096 1 0.748088 0.216245 0
1069 1 0.814694 0.180824 0
1068 1 0.783286 0.182099 0
1098 1 0.787635 0.205713 0
1099 1 0.811046 0.20594 0
1070 1 0.835028 0.198163 0
1072 1 0.857353 0.189809 0
1101 1 0.852922 0.215007 0
1075 1 0.904935 0.175156 0
1073 1 0.881392 0.182501 0
1103 1 0.875098 0.207584 0
1074 1 0.899002 0.199676 0
1105 1 0.917189 0.216771 0
1078 1 0.947493 0.184519 0
1076 1 0.922735 0.192681 0
1107 1 0.941582 0.20917 0
1079 1 0.97111 0.176315 0
1109 1 0.966251 0.201981 0
181 1 0.989128 0.193932 0
1082 1 0.526618 0.221801 0
1111 1 0.508966 0.240009 0
1113 1 0.53343 0.245809 0
1084 1 0.551474 0.227883 0
1114 1 0.558286 0.252542 0
1115 1 0.575723 0.234136 0
1116 1 0.581891 0.259496 0
1086 1 0.592387 0.215998 0
1088 1 0.616834 0.224186 0
1117 1 0.59927 0.241356 0
1118 1 0.622879 0.24847 0
1119 1 0.641437 0.229016 0
1121 1 0.664891 0.238226 0
1120 1 0.646779 0.255027 0
1092 1 0.682767 0.219445 0
1122 1 0.688882 0.243943 0
1123 1 0.706976 0.226399 0
1124 1 0.714093 0.251357 0
1125 1 0.731115 0.234285 0
1126 1 0.755261 0.241807 0
1127 1 0.77186 0.223708 0
1155 1 0.738574 0.258707 0
1129 1 0.800622 0.230254 0
1128 1 0.779931 0.246464 0
1159 1 0.802632 0.254845 0
1100 1 0.829686 0.221591 0
1130 1 0.824853 0.246631 0
1131 1 0.847767 0.240053 0
1132 1 0.864613 0.258611 0
1102 1 0.871149 0.232924 0
1104 1 0.893786 0.224525 0
1133 1 0.888433 0.24986 0
1135 1 0.91239 0.240907 0
1136 1 0.930559 0.258408 0
1106 1 0.935747 0.233512 0
1137 1 0.953716 0.249872 0
1110 1 0.984728 0.218338 0
1108 1 0.9608 0.225436 0