ITEM: TIMESTEP
75000
ITEM: NUMBER OF ATOMS
10
ITEM: BOX BOUNDS pp pp pp
-6.8793483350524536e+00 2.6879348335052022e+01
-1.0000000000000000e+00 1.0000000000000000e+00
-1.0000000000000000e+00 1.0000000000000000e+00
ITEM: ATOMS id type xs ys zs
1 1 0.0515304 0.526309 0.462448
2 1 0.149892 0.511806 0.47743
3 1 0.250306 0.473874 0.456839
4 1 0.350867 0.446002 0.477192
5 1 0.449706 0.459998 0.48244
6 1 0.549839 0.494876 0.551974
7 1 0.648783 0.501541 0.565763
8 1 0.749558 0.500167 0.540454
9 1 0.849346 0.528681 0.500707
10 1 0.950171 0.556745 0.484752
