ITEM: TIMESTEP
30000
ITEM: NUMBER OF ATOMS
10
ITEM: BOX BOUNDS pp pp pp
-2.5389444774675924e+00 2.2538944477467162e+01
-1.0000000000000000e+00 1.0000000000000000e+00
-1.0000000000000000e+00 1.0000000000000000e+00
ITEM: ATOMS id type xs ys zs
2 1 0.150933 0.481246 0.550605
1 1 0.049582 0.461214 0.510431
3 1 0.251253 0.522502 0.56528
4 1 0.35023 0.532861 0.496672
5 1 0.450067 0.542276 0.470273
6 1 0.550648 0.538856 0.435362
7 1 0.650297 0.519389 0.545597
9 1 0.848975 0.479198 0.467831
10 1 0.948779 0.428651 0.488201
8 1 0.749235 0.493807 0.46975
