ITEM: TIMESTEP
195000
ITEM: NUMBER OF ATOMS
10
ITEM: BOX BOUNDS pp pp pp
-1.8453758621945418e+01 3.8453758621944985e+01
-1.0000000000000000e+00 1.0000000000000000e+00
-1.0000000000000000e+00 1.0000000000000000e+00
ITEM: ATOMS id type xs ys zs
1 1 0.0511501 0.502792 0.515601
2 1 0.149961 0.512069 0.511718
3 1 0.250162 0.499783 0.516987
5 1 0.449457 0.508489 0.517364
4 1 0.349708 0.510832 0.540246
6 1 0.549712 0.47526 0.465133
7 1 0.650097 0.473879 0.443041
8 1 0.749851 0.50574 0.453578
9 1 0.849578 0.500626 0.517998
10 1 0.950323 0.510531 0.518333
