ITEM: TIMESTEP
45000
ITEM: NUMBER OF ATOMS
10
ITEM: BOX BOUNDS pp pp pp
-3.9857457633292128e+00 2.3985745763328779e+01
-1.0000000000000000e+00 1.0000000000000000e+00
-1.0000000000000000e+00 1.0000000000000000e+00
ITEM: ATOMS id type xs ys zs
1 1 0.0511687 0.533827 0.462759
2 1 0.150273 0.5131 0.47513
3 1 0.249954 0.473513 0.451674
5 1 0.451042 0.476123 0.462814
4 1 0.350726 0.454353 0.467373
7 1 0.649625 0.499535 0.590048
6 1 0.549953 0.466026 0.564695
10 1 0.94996 0.528823 0.448573
8 1 0.749049 0.519609 0.578698
9 1 0.848248 0.535092 0.498238
