ITEM: TIMESTEP
85000
ITEM: NUMBER OF ATOMS
10
ITEM: BOX BOUNDS pp pp pp
-7.8438825256268663e+00 2.7843882525626434e+01
-1.0000000000000000e+00 1.0000000000000000e+00
-1.0000000000000000e+00 1.0000000000000000e+00
ITEM: ATOMS id type xs ys zs
1 1 0.0498175 0.545936 0.486407
2 1 0.14952 0.488716 0.479909
5 1 0.449657 0.467803 0.52329
3 1 0.249777 0.480231 0.482932
4 1 0.350066 0.4813 0.499128
7 1 0.6509 0.479196 0.4614
6 1 0.549049 0.477696 0.516087
8 1 0.750546 0.50982 0.501775
9 1 0.850318 0.530453 0.525946
10 1 0.950348 0.53885 0.523125
