ITEM: TIMESTEP
0
ITEM: NUMBER OF ATOMS
10
ITEM: BOX BOUNDS pp pp pp
3.5465809425564815e-01 1.9645341905743919e+01
-1.0000000000000000e+00 1.0000000000000000e+00
-1.0000000000000000e+00 1.0000000000000000e+00
ITEM: ATOMS id type xs ys zs
1 1 0.0501371 0.358766 0.832723
2 1 0.145982 0.662515 0.526464
5 1 0.454132 0.343729 0.22945
3 1 0.25216 0.634539 0.534125
4 1 0.358308 0.64527 0.539634
7 1 0.645833 0.343247 0.223697
6 1 0.54995 0.0430785 0.533652
8 1 0.741694 0.644892 0.52701
9 1 0.847795 0.663923 0.526486
10 1 0.954009 0.660039 0.526759
