ITEM: TIMESTEP
95000
ITEM: NUMBER OF ATOMS
10
ITEM: BOX BOUNDS pp pp pp
-8.8084167162012807e+00 2.8808416716200846e+01
-1.0000000000000000e+00 1.0000000000000000e+00
-1.0000000000000000e+00 1.0000000000000000e+00
ITEM: ATOMS id type xs ys zs
1 1 0.0496046 0.526715 0.466052
2 1 0.151246 0.506386 0.487413
3 1 0.250935 0.490256 0.478319
4 1 0.350077 0.45884 0.459535
5 1 0.450203 0.434407 0.476768
6 1 0.548915 0.498976 0.55117
7 1 0.649693 0.498683 0.561752
8 1 0.749243 0.520685 0.558541
9 1 0.85019 0.52737 0.489623
10 1 0.949893 0.537682 0.470827
