ITEM: TIMESTEP
185000
ITEM: NUMBER OF ATOMS
10
ITEM: BOX BOUNDS pp pp pp
-1.7489224431371003e+01 3.7489224431370573e+01
-1.0000000000000000e+00 1.0000000000000000e+00
-1.0000000000000000e+00 1.0000000000000000e+00
ITEM: ATOMS id type xs ys zs
2 1 0.149724 0.495996 0.509075
1 1 0.0498141 0.500271 0.51716
4 1 0.349134 0.503786 0.540263
3 1 0.249742 0.520846 0.519042
5 1 0.450316 0.499172 0.51776
7 1 0.650687 0.488643 0.446798
6 1 0.55097 0.481892 0.462955
8 1 0.750554 0.482151 0.449696
9 1 0.849856 0.505407 0.516902
10 1 0.949202 0.521837 0.520349
