ITEM: TIMESTEP
155000
ITEM: NUMBER OF ATOMS
10
ITEM: BOX BOUNDS pp pp pp
-1.4595621859647764e+01 3.4595621859647331e+01
-1.0000000000000000e+00 1.0000000000000000e+00
-1.0000000000000000e+00 1.0000000000000000e+00
ITEM: ATOMS id type xs ys zs
1 1 0.0495411 0.457609 0.521752
2 1 0.150434 0.494361 0.539276
3 1 0.250473 0.524144 0.526367
4 1 0.348988 0.557512 0.532226
5 1 0.450348 0.530976 0.51024
6 1 0.550479 0.513371 0.453317
7 1 0.650916 0.496433 0.428276
8 1 0.750396 0.488577 0.448993
9 1 0.84962 0.465085 0.521815
10 1 0.948804 0.471932 0.517737
