ITEM: TIMESTEP
105000
ITEM: NUMBER OF ATOMS
10
ITEM: BOX BOUNDS pp pp pp
-9.7729509067756961e+00 2.9772950906775264e+01
-1.0000000000000000e+00 1.0000000000000000e+00
-1.0000000000000000e+00 1.0000000000000000e+00
ITEM: ATOMS id type xs ys zs
3 1 0.249572 0.485406 0.517784
1 1 0.0488046 0.535787 0.512197
2 1 0.14989 0.520797 0.541238
4 1 0.349812 0.480667 0.471647
5 1 0.450439 0.459344 0.473068
6 1 0.549802 0.482395 0.506031
7 1 0.651481 0.490151 0.503763
8 1 0.750611 0.525628 0.520537
9 1 0.850239 0.503824 0.47442
10 1 0.949349 0.516001 0.479314
