ITEM: TIMESTEP
25000
ITEM: NUMBER OF ATOMS
10
ITEM: BOX BOUNDS pp pp pp
-2.0566773821803856e+00 2.2056677382179952e+01
-1.0000000000000000e+00 1.0000000000000000e+00
-1.0000000000000000e+00 1.0000000000000000e+00
ITEM: ATOMS id type xs ys zs
1 1 0.0501055 0.540345 0.520116
2 1 0.151071 0.517133 0.472258
3 1 0.25124 0.484603 0.464253
4 1 0.350646 0.474561 0.531997
5 1 0.450289 0.479206 0.504528
7 1 0.649945 0.474607 0.473402
6 1 0.55045 0.46564 0.509893
8 1 0.749094 0.499922 0.485989
9 1 0.848368 0.509922 0.488788
10 1 0.948792 0.554061 0.548776
