ITEM: TIMESTEP
15000
ITEM: NUMBER OF ATOMS
10
ITEM: BOX BOUNDS pp pp pp
-1.0921431916059723e+00 2.1092143191605540e+01
-1.0000000000000000e+00 1.0000000000000000e+00
-1.0000000000000000e+00 1.0000000000000000e+00
ITEM: ATOMS id type xs ys zs
1 1 0.048073 0.54337 0.458888
2 1 0.148536 0.49597 0.44025
5 1 0.451198 0.427852 0.494517
3 1 0.249444 0.479535 0.439543
4 1 0.35054 0.473631 0.472787
6 1 0.551686 0.490558 0.557607
7 1 0.651794 0.508639 0.585918
8 1 0.751195 0.529255 0.60681
9 1 0.849223 0.530072 0.483478
10 1 0.948311 0.521118 0.460201
