ITEM: TIMESTEP
120000
ITEM: NUMBER OF ATOMS
10
ITEM: BOX BOUNDS pp pp pp
-1.1219752192637316e+01 3.1219752192636882e+01
-1.0000000000000000e+00 1.0000000000000000e+00
-1.0000000000000000e+00 1.0000000000000000e+00
ITEM: ATOMS id type xs ys zs
1 1 0.0508091 0.47544 0.5402
2 1 0.150329 0.510596 0.571874
3 1 0.249984 0.523022 0.553283
5 1 0.450675 0.51949 0.460864
4 1 0.350444 0.541156 0.518281
7 1 0.649426 0.485739 0.464786
6 1 0.548969 0.52533 0.462475
8 1 0.74859 0.505989 0.463971
9 1 0.850124 0.466052 0.460573
10 1 0.950649 0.447186 0.503693
