ITEM: TIMESTEP
190000
ITEM: NUMBER OF ATOMS
10
ITEM: BOX BOUNDS pp pp pp
-1.7971491526658209e+01 3.7971491526657772e+01
-1.0000000000000000e+00 1.0000000000000000e+00
-1.0000000000000000e+00 1.0000000000000000e+00
ITEM: ATOMS id type xs ys zs
3 1 0.249992 0.491769 0.494872
1 1 0.0496437 0.474236 0.494667
2 1 0.149103 0.505196 0.508658
4 1 0.349759 0.5206 0.47246
5 1 0.450076 0.507945 0.480661
6 1 0.550127 0.517725 0.524557
7 1 0.649887 0.509358 0.519319
8 1 0.7505 0.524149 0.532905
9 1 0.850845 0.476205 0.496656
10 1 0.950066 0.472815 0.475244
