ITEM: TIMESTEP
140000
ITEM: NUMBER OF ATOMS
10
ITEM: BOX BOUNDS pp pp pp
-1.3148820573786143e+01 3.3148820573785713e+01
-1.0000000000000000e+00 1.0000000000000000e+00
-1.0000000000000000e+00 1.0000000000000000e+00
ITEM: ATOMS id type xs ys zs
2 1 0.14969 0.494099 0.474081
3 1 0.249754 0.483364 0.462892
1 1 0.0501155 0.498814 0.482886
5 1 0.45092 0.528576 0.492797
4 1 0.349445 0.484252 0.496191
6 1 0.549519 0.520675 0.526205
7 1 0.649182 0.517843 0.553127
8 1 0.749476 0.486309 0.516233
9 1 0.851091 0.494462 0.497604
10 1 0.950806 0.491605 0.497985
