ITEM: TIMESTEP
125000
ITEM: NUMBER OF ATOMS
10
ITEM: BOX BOUNDS pp pp pp
-1.1702019287924522e+01 3.1702019287924088e+01
-1.0000000000000000e+00 1.0000000000000000e+00
-1.0000000000000000e+00 1.0000000000000000e+00
ITEM: ATOMS id type xs ys zs
3 1 0.250895 0.498339 0.49309
1 1 0.049637 0.489811 0.498718
2 1 0.150943 0.498456 0.491203
4 1 0.349561 0.489451 0.477371
5 1 0.450116 0.532175 0.478175
6 1 0.549831 0.521486 0.525375
7 1 0.650415 0.526008 0.551427
10 1 0.948826 0.474567 0.487842
8 1 0.749781 0.485621 0.525267
9 1 0.849994 0.484087 0.471532
