ITEM: TIMESTEP
160000
ITEM: NUMBER OF ATOMS
10
ITEM: BOX BOUNDS pp pp pp
-1.5077888954934970e+01 3.5077888954934537e+01
-1.0000000000000000e+00 1.0000000000000000e+00
-1.0000000000000000e+00 1.0000000000000000e+00
ITEM: ATOMS id type xs ys zs
3 1 0.24962 0.490828 0.476322
1 1 0.0493684 0.544955 0.484046
2 1 0.148379 0.486926 0.444872
4 1 0.349919 0.457468 0.512569
5 1 0.451015 0.472432 0.519573
6 1 0.550196 0.482398 0.511087
7 1 0.650169 0.486183 0.514185
8 1 0.750176 0.495943 0.508179
10 1 0.950451 0.535623 0.519066
9 1 0.850707 0.547243 0.510102
