ITEM: TIMESTEP
80000
ITEM: NUMBER OF ATOMS
10
ITEM: BOX BOUNDS pp pp pp
-7.3616154303396604e+00 2.7361615430339228e+01
-1.0000000000000000e+00 1.0000000000000000e+00
-1.0000000000000000e+00 1.0000000000000000e+00
ITEM: ATOMS id type xs ys zs
1 1 0.0506379 0.494382 0.552289
2 1 0.151168 0.517033 0.56692
3 1 0.249795 0.51876 0.558574
4 1 0.350542 0.519231 0.524317
5 1 0.449861 0.494477 0.4523
7 1 0.649625 0.478999 0.463866
6 1 0.549337 0.512544 0.448024
8 1 0.749273 0.505593 0.476728
9 1 0.849161 0.488161 0.451625
10 1 0.950601 0.47082 0.505356
