ITEM: TIMESTEP
175000
ITEM: NUMBER OF ATOMS
10
ITEM: BOX BOUNDS pp pp pp
-1.6524690240796591e+01 3.6524690240796161e+01
-1.0000000000000000e+00 1.0000000000000000e+00
-1.0000000000000000e+00 1.0000000000000000e+00
ITEM: ATOMS id type xs ys zs
1 1 0.0506459 0.499827 0.456904
2 1 0.150894 0.47051 0.447141
3 1 0.250958 0.488977 0.45832
4 1 0.349525 0.509351 0.495184
5 1 0.449617 0.504259 0.537957
6 1 0.549967 0.513763 0.53172
7 1 0.649863 0.498552 0.494144
9 1 0.849234 0.504704 0.536023
10 1 0.9497 0.500757 0.510334
8 1 0.749596 0.5093 0.532273
