ITEM: TIMESTEP
55000
ITEM: NUMBER OF ATOMS
10
ITEM: BOX BOUNDS pp pp pp
-4.9502799539036264e+00 2.4950279953903195e+01
-1.0000000000000000e+00 1.0000000000000000e+00
-1.0000000000000000e+00 1.0000000000000000e+00
ITEM: ATOMS id type xs ys zs
1 1 0.0501897 0.475726 0.532772
2 1 0.150839 0.485365 0.537678
4 1 0.350539 0.536231 0.507911
5 1 0.450476 0.532214 0.467379
3 1 0.25086 0.536085 0.548553
6 1 0.550587 0.538284 0.460802
8 1 0.74807 0.480682 0.487061
7 1 0.648697 0.504517 0.506689
9 1 0.849813 0.479622 0.464827
10 1 0.94993 0.431276 0.486328
