ITEM: TIMESTEP
200000
ITEM: NUMBER OF ATOMS
10
ITEM: BOX BOUNDS pp pp pp
-1.8936025717232624e+01 3.8936025717232191e+01
-1.0000000000000000e+00 1.0000000000000000e+00
-1.0000000000000000e+00 1.0000000000000000e+00
ITEM: ATOMS id type xs ys zs
1 1 0.0505059 0.514253 0.45295
2 1 0.150394 0.499557 0.443161
3 1 0.250803 0.464072 0.438505
5 1 0.449793 0.472846 0.529895
4 1 0.35027 0.476494 0.489079
7 1 0.648945 0.494324 0.529322
8 1 0.749778 0.5196 0.533482
6 1 0.549433 0.48872 0.54826
9 1 0.850324 0.515223 0.546352
10 1 0.949754 0.554911 0.488994
