ITEM: TIMESTEP
70000
ITEM: NUMBER OF ATOMS
10
ITEM: BOX BOUNDS pp pp pp
-6.3970812397652468e+00 2.6397081239764816e+01
-1.0000000000000000e+00 1.0000000000000000e+00
-1.0000000000000000e+00 1.0000000000000000e+00
ITEM: ATOMS id type xs ys zs
3 1 0.248909 0.467115 0.451839
2 1 0.149278 0.524837 0.473619
1 1 0.0499569 0.513002 0.454666
4 1 0.349042 0.463184 0.473285
5 1 0.450221 0.479045 0.480697
6 1 0.550898 0.469319 0.547238
7 1 0.650637 0.512255 0.590112
9 1 0.850372 0.513828 0.490403
10 1 0.949843 0.526464 0.461291
8 1 0.750843 0.53095 0.576849
