ITEM: TIMESTEP
65000
ITEM: NUMBER OF ATOMS
10
ITEM: BOX BOUNDS pp pp pp
-5.9148141444780400e+00 2.5914814144477607e+01
-1.0000000000000000e+00 1.0000000000000000e+00
-1.0000000000000000e+00 1.0000000000000000e+00
ITEM: ATOMS id type xs ys zs
1 1 0.0501539 0.499164 0.530315
2 1 0.151435 0.485978 0.510732
3 1 0.251235 0.530605 0.539393
4 1 0.349776 0.512217 0.533635
5 1 0.450268 0.48055 0.507288
7 1 0.649473 0.481623 0.437443
6 1 0.550082 0.496723 0.45058
8 1 0.74863 0.488391 0.443093
9 1 0.84915 0.529397 0.515341
10 1 0.949797 0.495353 0.532179
