ITEM: TIMESTEP
20000
ITEM: NUMBER OF ATOMS
10
ITEM: BOX BOUNDS pp pp pp
-1.5744102868931791e+00 2.1574410286892746e+01
-1.0000000000000000e+00 1.0000000000000000e+00
-1.0000000000000000e+00 1.0000000000000000e+00
ITEM: ATOMS id type xs ys zs
3 1 0.250574 0.503317 0.445314
1 1 0.0507168 0.543266 0.494996
2 1 0.150225 0.519173 0.480698
4 1 0.351441 0.452891 0.49115
5 1 0.451101 0.475335 0.555143
6 1 0.54967 0.451352 0.520207
7 1 0.647866 0.500522 0.474606
8 1 0.74816 0.496394 0.472053
10 1 0.950745 0.548608 0.527426
9 1 0.849502 0.509143 0.538407
