ITEM: TIMESTEP
35000
ITEM: NUMBER OF ATOMS
10
ITEM: BOX BOUNDS pp pp pp
-3.0212115727547992e+00 2.3021211572754368e+01
-1.0000000000000000e+00 1.0000000000000000e+00
-1.0000000000000000e+00 1.0000000000000000e+00
ITEM: ATOMS id type xs ys zs
2 1 0.151074 0.529039 0.482898
1 1 0.0499001 0.514575 0.484632
3 1 0.251005 0.507314 0.518067
4 1 0.349876 0.484977 0.514001
5 1 0.450207 0.467096 0.516585
6 1 0.551027 0.465808 0.456202
7 1 0.64987 0.472585 0.496637
8 1 0.748524 0.506172 0.463297
10 1 0.949662 0.521788 0.536208
9 1 0.848855 0.530645 0.531474
