ITEM: TIMESTEP
50000
ITEM: NUMBER OF ATOMS
10
ITEM: BOX BOUNDS pp pp pp
-4.4680128586164196e+00 2.4468012858615985e+01
-1.0000000000000000e+00 1.0000000000000000e+00
-1.0000000000000000e+00 1.0000000000000000e+00
ITEM: ATOMS id type xs ys zs
2 1 0.150109 0.480686 0.49003
1 1 0.0489046 0.482973 0.494448
3 1 0.250726 0.490988 0.507963
4 1 0.349816 0.511578 0.459565
5 1 0.449645 0.51214 0.472259
6 1 0.550333 0.542721 0.511549
7 1 0.65038 0.50904 0.555189
8 1 0.750635 0.529253 0.545302
9 1 0.850261 0.499862 0.500695
10 1 0.949191 0.440759 0.462999
