ITEM: TIMESTEP
170000
ITEM: NUMBER OF ATOMS
10
ITEM: BOX BOUNDS pp pp pp
-1.6042423145509382e+01 3.6042423145508948e+01
-1.0000000000000000e+00 1.0000000000000000e+00
-1.0000000000000000e+00 1.0000000000000000e+00
ITEM: ATOMS id type xs ys zs
1 1 0.0503487 0.469245 0.482228
2 1 0.149979 0.492963 0.471798
3 1 0.250421 0.511918 0.491405
4 1 0.349947 0.51165 0.491352
5 1 0.450463 0.494242 0.48624
7 1 0.648572 0.506286 0.536161
6 1 0.549291 0.520185 0.519341
8 1 0.749638 0.517276 0.539239
9 1 0.850737 0.497364 0.485394
10 1 0.950603 0.478871 0.496843
