ITEM: TIMESTEP
100000
ITEM: NUMBER OF ATOMS
10
ITEM: BOX BOUNDS pp pp pp
-9.2906838114884884e+00 2.9290683811488055e+01
-1.0000000000000000e+00 1.0000000000000000e+00
-1.0000000000000000e+00 1.0000000000000000e+00
ITEM: ATOMS id type xs ys zs
1 1 0.0498597 0.494341 0.449124
2 1 0.149717 0.514301 0.433663
3 1 0.249591 0.476333 0.436213
4 1 0.350434 0.481483 0.508997
5 1 0.450867 0.47312 0.516439
7 1 0.650919 0.496159 0.549736
8 1 0.749126 0.543383 0.549505
6 1 0.549783 0.458383 0.532173
9 1 0.849384 0.536279 0.522876
10 1 0.950318 0.526217 0.501274
