ITEM: TIMESTEP
130000
ITEM: NUMBER OF ATOMS
10
ITEM: BOX BOUNDS pp pp pp
-1.2184286383211729e+01 3.2184286383211294e+01
-1.0000000000000000e+00 1.0000000000000000e+00
-1.0000000000000000e+00 1.0000000000000000e+00
ITEM: ATOMS id type xs ys zs
3 1 0.249381 0.516104 0.514498
1 1 0.0495212 0.524956 0.496873
2 1 0.148609 0.495328 0.515295
4 1 0.350222 0.490926 0.498201
5 1 0.45126 0.466739 0.504943
6 1 0.55017 0.461954 0.49461
7 1 0.650656 0.489842 0.467595
10 1 0.950379 0.506883 0.496533
8 1 0.74953 0.517016 0.506176
9 1 0.850272 0.530253 0.505275
