ITEM: TIMESTEP
110000
ITEM: NUMBER OF ATOMS
10
ITEM: BOX BOUNDS pp pp pp
-1.0255218002062902e+01 3.0255218002062470e+01
-1.0000000000000000e+00 1.0000000000000000e+00
-1.0000000000000000e+00 1.0000000000000000e+00
ITEM: ATOMS id type xs ys zs
1 1 0.0494793 0.475434 0.490587
2 1 0.149897 0.493591 0.496303
3 1 0.248964 0.510563 0.493869
4 1 0.349285 0.535196 0.500188
5 1 0.450772 0.516459 0.505422
6 1 0.550217 0.513057 0.502207
7 1 0.650325 0.501214 0.515158
8 1 0.749613 0.522697 0.509337
9 1 0.850931 0.479857 0.504732
10 1 0.950517 0.451932 0.482195
