ITEM: TIMESTEP
60000
ITEM: NUMBER OF ATOMS
10
ITEM: BOX BOUNDS pp pp pp
-5.4325470491908332e+00 2.5432547049190401e+01
-1.0000000000000000e+00 1.0000000000000000e+00
-1.0000000000000000e+00 1.0000000000000000e+00
ITEM: ATOMS id type xs ys zs
1 1 0.0502267 0.547588 0.516694
2 1 0.149423 0.502483 0.503892
3 1 0.24854 0.488446 0.504768
4 1 0.349206 0.460863 0.474438
5 1 0.449731 0.451612 0.494005
8 1 0.750921 0.48747 0.486777
6 1 0.54999 0.501324 0.517256
7 1 0.651592 0.498964 0.50594
9 1 0.849999 0.526263 0.512907
10 1 0.95037 0.534987 0.483323
