ITEM: TIMESTEP
115000
ITEM: NUMBER OF ATOMS
10
ITEM: BOX BOUNDS pp pp pp
-1.0737485097350108e+01 3.0737485097349676e+01
-1.0000000000000000e+00 1.0000000000000000e+00
-1.0000000000000000e+00 1.0000000000000000e+00
ITEM: ATOMS id type xs ys zs
3 1 0.250526 0.525163 0.553203
1 1 0.0501862 0.49329 0.559597
2 1 0.150769 0.502855 0.573219
4 1 0.349797 0.511645 0.505426
5 1 0.449323 0.524421 0.459909
6 1 0.548509 0.532782 0.458858
8 1 0.74977 0.463518 0.442669
7 1 0.650906 0.511691 0.48875
9 1 0.85 0.465638 0.459315
10 1 0.950214 0.468996 0.499055
