ITEM: TIMESTEP
180000
ITEM: NUMBER OF ATOMS
10
ITEM: BOX BOUNDS pp pp pp
-1.7006957336083797e+01 3.7006957336083360e+01
-1.0000000000000000e+00 1.0000000000000000e+00
-1.0000000000000000e+00 1.0000000000000000e+00
ITEM: ATOMS id type xs ys zs
1 1 0.04987 0.526218 0.456724
2 1 0.148917 0.496637 0.441911
4 1 0.350863 0.466804 0.483925
5 1 0.45053 0.484455 0.535758
3 1 0.250252 0.463189 0.443537
6 1 0.549827 0.477007 0.542886
7 1 0.649802 0.500829 0.532935
8 1 0.750029 0.513437 0.529377
9 1 0.849834 0.524972 0.546456
10 1 0.950076 0.546453 0.48649
