ITEM: TIMESTEP
5000
ITEM: NUMBER OF ATOMS
10
ITEM: BOX BOUNDS pp pp pp
-1.2760900103155864e-01 2.0127609001031125e+01
-1.0000000000000000e+00 1.0000000000000000e+00
-1.0000000000000000e+00 1.0000000000000000e+00
ITEM: ATOMS id type xs ys zs
3 1 0.249505 0.465743 0.541939
1 1 0.0504719 0.260175 0.591047
2 1 0.149182 0.418511 0.454937
4 1 0.348838 0.646075 0.515348
5 1 0.449795 0.640883 0.440307
7 1 0.651045 0.689398 0.42526
6 1 0.550667 0.583556 0.478589
8 1 0.750236 0.551957 0.572007
9 1 0.849584 0.385457 0.491829
10 1 0.950676 0.358245 0.488737
