ITEM: TIMESTEP
10000
ITEM: NUMBER OF ATOMS
10
ITEM: BOX BOUNDS pp pp pp
-6.0987609631876549e-01 2.0609876096318331e+01
-1.0000000000000000e+00 1.0000000000000000e+00
-1.0000000000000000e+00 1.0000000000000000e+00
ITEM: ATOMS id type xs ys zs
3 1 0.250925 0.513494 0.502133
1 1 0.0506307 0.571246 0.387329
2 1 0.15092 0.539267 0.433179
4 1 0.350047 0.411518 0.485899
5 1 0.4497 0.370314 0.477219
6 1 0.549106 0.475654 0.516361
7 1 0.648975 0.513768 0.625734
10 1 0.950156 0.530526 0.458471
8 1 0.749628 0.48885 0.56933
9 1 0.849912 0.585363 0.544346
