ITEM: TIMESTEP
40000
ITEM: NUMBER OF ATOMS
10
ITEM: BOX BOUNDS pp pp pp
-3.5034786680420060e+00 2.3503478668041573e+01
-1.0000000000000000e+00 1.0000000000000000e+00
-1.0000000000000000e+00 1.0000000000000000e+00
ITEM: ATOMS id type xs ys zs
1 1 0.0508066 0.492745 0.480359
2 1 0.150304 0.488056 0.472858
4 1 0.351345 0.494168 0.492725
5 1 0.450745 0.524176 0.511351
3 1 0.250415 0.477145 0.450603
7 1 0.648939 0.511844 0.572056
8 1 0.749038 0.498552 0.510416
6 1 0.549502 0.52139 0.531179
9 1 0.849008 0.493492 0.478876
10 1 0.949896 0.498432 0.499578
