ITEM: TIMESTEP
135000
ITEM: NUMBER OF ATOMS
10
ITEM: BOX BOUNDS pp pp pp
-1.2666553478498937e+01 3.2666553478498500e+01
-1.0000000000000000e+00 1.0000000000000000e+00
-1.0000000000000000e+00 1.0000000000000000e+00
ITEM: ATOMS id type xs ys zs
1 1 0.0497518 0.492311 0.449284
2 1 0.149811 0.496529 0.457314
3 1 0.249964 0.486566 0.463294
4 1 0.349239 0.496196 0.465327
5 1 0.44975 0.459621 0.514438
6 1 0.549753 0.489795 0.548577
7 1 0.651716 0.501019 0.540263
8 1 0.750856 0.543817 0.566366
9 1 0.849861 0.517302 0.520276
10 1 0.949298 0.516843 0.474861
