ITEM: TIMESTEP
150000
ITEM: NUMBER OF ATOMS
10
ITEM: BOX BOUNDS pp pp pp
-1.4113354764360556e+01 3.4113354764360125e+01
-1.0000000000000000e+00 1.0000000000000000e+00
-1.0000000000000000e+00 1.0000000000000000e+00
ITEM: ATOMS id type xs ys zs
2 1 0.149307 0.503178 0.499354
1 1 0.0503722 0.546824 0.484552
3 1 0.250321 0.476561 0.477679
4 1 0.350714 0.460308 0.464469
5 1 0.451063 0.451648 0.504344
6 1 0.549192 0.492995 0.53123
8 1 0.749183 0.50807 0.520616
7 1 0.649354 0.497128 0.543269
10 1 0.950617 0.543892 0.469411
9 1 0.849876 0.519396 0.505076
