ITEM: TIMESTEP
165000
ITEM: NUMBER OF ATOMS
10
ITEM: BOX BOUNDS pp pp pp
-1.5560156050222176e+01 3.5560156050221742e+01
-1.0000000000000000e+00 1.0000000000000000e+00
-1.0000000000000000e+00 1.0000000000000000e+00
ITEM: ATOMS id type xs ys zs
3 1 0.250178 0.497378 0.444756
1 1 0.0505989 0.505645 0.454686
2 1 0.149978 0.466625 0.426288
4 1 0.34912 0.482892 0.503531
5 1 0.449406 0.494664 0.536008
6 1 0.549733 0.497949 0.526928
7 1 0.651108 0.511092 0.532652
8 1 0.75058 0.496323 0.522955
9 1 0.849493 0.530096 0.546776
10 1 0.949805 0.517335 0.50542
