ITEM: TIMESTEP
90000
ITEM: NUMBER OF ATOMS
10
ITEM: BOX BOUNDS pp pp pp
-8.3261496209140748e+00 2.8326149620913640e+01
-1.0000000000000000e+00 1.0000000000000000e+00
-1.0000000000000000e+00 1.0000000000000000e+00
ITEM: ATOMS id type xs ys zs
1 1 0.0506391 0.475419 0.546312
2 1 0.151118 0.528533 0.583124
3 1 0.249892 0.515153 0.545081
4 1 0.349463 0.527206 0.529502
5 1 0.450179 0.522994 0.457144
7 1 0.649651 0.499578 0.46517
8 1 0.74911 0.500353 0.464129
6 1 0.549259 0.497707 0.44845
9 1 0.850095 0.467348 0.455674
10 1 0.950594 0.46571 0.505413
