ITEM: TIMESTEP
145000
ITEM: NUMBER OF ATOMS
10
ITEM: BOX BOUNDS pp pp pp
-1.3631087669073349e+01 3.3631087669072912e+01
-1.0000000000000000e+00 1.0000000000000000e+00
-1.0000000000000000e+00 1.0000000000000000e+00
ITEM: ATOMS id type xs ys zs
1 1 0.0506924 0.496227 0.470343
2 1 0.151091 0.51052 0.477506
3 1 0.25123 0.480528 0.461413
4 1 0.349368 0.471561 0.474632
5 1 0.449318 0.49879 0.477784
7 1 0.650389 0.521471 0.586126
6 1 0.549044 0.498353 0.543683
8 1 0.749691 0.513148 0.54674
9 1 0.849383 0.507689 0.487371
10 1 0.949793 0.501714 0.474402
