ITEM: TIMESTEP
7750
ITEM: NUMBER OF ATOMS
864
ITEM: BOX BOUNDS pp pp pp
0.0000000000000000e+00 3.1559999999999999e+01
0.0000000000000000e+00 3.1559999999999999e+01
0.0000000000000000e+00 3.1559999999999999e+01
ITEM: ATOMS id type xs ys zs
8 1 0.157158 0.093035 0.0820378
74 1 0.0800582 0.0908636 0.172746
4 1 0.00366576 0.0931603 0.0901155
30 1 0.255882 0.243764 0.00954394
31 1 0.259974 0.160123 0.0794836
593 1 0.656744 0.499728 0.342505
149 1 0.174022 0.00512172 0.339387
78 1 0.255395 0.0873105 0.165079
12 1 0.343016 0.0935862 0.0875312
82 1 0.410885 0.0694723 0.168875
16 1 0.485469 0.0765852 0.0805736
105 1 0.338013 0.171229 0.175886
167 1 0.918755 0.00701764 0.415649
449 1 0.658983 0.49816 0.00781693
20 1 0.668688 0.0855117 0.0883415
65 1 0.663824 0.319837 0.0080924
211 1 0.753508 0.346884 0.428104
90 1 0.749209 0.0759918 0.169691
24 1 0.835253 0.0806992 0.104566
43 1 0.753659 0.149381 0.0815143
207 1 0.580875 0.320979 0.427559
7 1 0.251066 0.00738243 0.0794708
47 1 0.902076 0.169599 0.0882607
94 1 0.921281 0.0832332 0.167302
437 1 0.160699 0.488843 0.00575938
153 1 0.340971 0.00923287 0.345105
27 1 0.0778211 0.175187 0.090972
97 1 0.987293 0.160122 0.16934
28 1 0.992201 0.268649 0.090852
101 1 0.177128 0.154672 0.165514
32 1 0.171562 0.250421 0.0918025
36 1 0.330374 0.257805 0.0976923
35 1 0.409313 0.17917 0.0774069
40 1 0.511177 0.251785 0.0853969
39 1 0.586054 0.166948 0.0910194
44 1 0.672972 0.226002 0.0902702
22 1 0.916855 0.0925273 0.0129297
270 1 0.242608 0.41562 0.493237
114 1 0.741301 0.254843 0.176276
215 1 0.910197 0.342306 0.424164
48 1 0.828455 0.254558 0.0927021
73 1 0.00382829 0.000978484 0.158806
51 1 0.0697621 0.341423 0.0911623
56 1 0.163898 0.406246 0.0904976
206 1 0.576338 0.40965 0.3506
129 1 0.327983 0.341185 0.185012
55 1 0.24635 0.335698 0.0730577
60 1 0.331702 0.412306 0.0905677
61 1 0.50503 0.336563 0.00401783
3 1 0.0749958 0.0083355 0.0784339
59 1 0.411985 0.328506 0.0971681
64 1 0.494244 0.411514 0.0880297
130 1 0.401868 0.415038 0.172175
238 1 0.923612 0.0824447 0.488986
63 1 0.593703 0.332589 0.0942822
134 1 0.58504 0.413535 0.172726
445 1 0.523896 0.492697 0.0276331
83 1 0.422249 0.0115607 0.262178
67 1 0.740601 0.322417 0.0910065
68 1 0.669064 0.412475 0.103846
266 1 0.08178 0.422762 0.497201
72 1 0.836624 0.40988 0.0977175
71 1 0.909289 0.336577 0.0848364
52 1 0.997347 0.424797 0.0815843
142 1 0.901729 0.432511 0.176703
77 1 0.174855 0.0180968 0.157097
173 1 0.162981 0.157176 0.338497
80 1 0.159965 0.0892633 0.243746
99 1 0.0806981 0.167435 0.240742
150 1 0.251298 0.087296 0.323072
250 1 0.407141 0.262355 0.497705
230 1 0.585315 0.0822453 0.497565
505 1 0.995841 0.492041 0.167786
84 1 0.332464 0.0743627 0.250694
107 1 0.420957 0.162343 0.254105
58 1 0.426125 0.417041 0.0113735
86 1 0.59028 0.0727059 0.151215
88 1 0.501183 0.0856115 0.243792
109 1 0.485053 0.162566 0.172433
185 1 0.666313 0.173485 0.335341
181 1 0.500299 0.170737 0.330533
113 1 0.677025 0.159709 0.176802
117 1 0.821238 0.179398 0.173836
92 1 0.664105 0.0781516 0.244615
115 1 0.744187 0.174652 0.254633
96 1 0.831042 0.0962122 0.247074
76 1 0.995428 0.0842414 0.244563
119 1 0.911551 0.190965 0.262833
165 1 0.84012 0.00859309 0.340828
95 1 0.913285 0.0101422 0.256517
98 1 0.0778233 0.25267 0.164549
123 1 0.0804647 0.336192 0.244351
121 1 0.986336 0.356087 0.165995
103 1 0.246972 0.167739 0.251657
104 1 0.154276 0.245061 0.257783
102 1 0.250718 0.249332 0.165486
108 1 0.339185 0.240194 0.261693
106 1 0.404207 0.268107 0.184385
131 1 0.413799 0.32857 0.266197
112 1 0.504942 0.25136 0.253912
201 1 0.327174 0.329487 0.332563
133 1 0.49512 0.344623 0.170212
178 1 0.425281 0.251674 0.334905
111 1 0.57578 0.165039 0.23394
110 1 0.589216 0.257945 0.164191
137 1 0.66975 0.333494 0.177752
116 1 0.659844 0.257994 0.250393
139 1 0.738186 0.344473 0.272584
141 1 0.836427 0.327573 0.169396
118 1 0.914522 0.251583 0.167982
120 1 0.82848 0.264953 0.26368
100 1 0.00434985 0.253799 0.248303
122 1 0.0730049 0.432882 0.151275
194 1 0.0798572 0.424898 0.336618
125 1 0.166025 0.328902 0.157788
126 1 0.241188 0.419184 0.153628
127 1 0.238991 0.321527 0.25284
128 1 0.175265 0.415812 0.235652
257 1 0.66669 0.180141 0.496784
205 1 0.503873 0.326537 0.338199
132 1 0.337412 0.408707 0.255379
202 1 0.419954 0.412621 0.330106
136 1 0.50212 0.41161 0.258884
135 1 0.580663 0.327829 0.260684
140 1 0.662884 0.416801 0.26762
138 1 0.746632 0.41343 0.177192
85 1 0.506868 0.0146807 0.160931
66 1 0.737946 0.414404 0.0114468
210 1 0.745353 0.412368 0.346675
144 1 0.82365 0.411923 0.251263
143 1 0.916109 0.331666 0.244113
214 1 0.899664 0.418949 0.331602
124 1 0.987067 0.418951 0.264353
146 1 0.0720567 0.0801432 0.321497
152 1 0.180291 0.0916781 0.424656
148 1 0.995878 0.091815 0.398158
212 1 0.66627 0.423096 0.433937
519 1 0.58423 0.490734 0.262545
163 1 0.739083 0.00946429 0.410413
156 1 0.336337 0.0786095 0.419418
177 1 0.344544 0.172919 0.348143
154 1 0.416082 0.0892798 0.332748
179 1 0.417838 0.180504 0.416758
160 1 0.51232 0.100067 0.413282
278 1 0.57021 0.422161 0.486237
208 1 0.488612 0.426794 0.412168
158 1 0.570874 0.0866954 0.333781
9 1 0.337248 0.00166831 7.11818e-05
37 1 0.502221 0.168741 0.00919249
162 1 0.754255 0.0843479 0.328622
164 1 0.672011 0.0893398 0.429466
29 1 0.162913 0.162625 0.00613734
166 1 0.900097 0.0973452 0.328559
189 1 0.831598 0.177737 0.335857
168 1 0.833013 0.0810514 0.424775
46 1 0.912212 0.26549 0.00667261
517 1 0.499904 0.482146 0.172845
169 1 0.014671 0.172267 0.324085
191 1 0.925294 0.179231 0.409761
170 1 0.0891341 0.250527 0.350471
171 1 0.0835165 0.158429 0.414516
216 1 0.841584 0.425524 0.43082
69 1 0.820609 0.344226 0.000173433
197 1 0.16092 0.340482 0.322299
174 1 0.244385 0.250433 0.324778
175 1 0.25983 0.166565 0.429124
176 1 0.178435 0.240802 0.422441
147 1 0.0910407 0.0111372 0.420716
93 1 0.83586 0.00308372 0.178019
25 1 0.982906 0.18408 0.0136708
180 1 0.329695 0.255964 0.411596
184 1 0.503567 0.249908 0.414208
203 1 0.420306 0.326143 0.416074
157 1 0.497254 0.00433881 0.334587
182 1 0.583795 0.23651 0.327568
209 1 0.657688 0.337358 0.347175
183 1 0.586544 0.183977 0.424331
188 1 0.679808 0.246254 0.420669
26 1 0.0748171 0.248029 0.0116298
186 1 0.743283 0.250068 0.326753
277 1 0.486913 0.348175 0.494031
187 1 0.762257 0.165353 0.411375
193 1 0.00668807 0.33973 0.334599
213 1 0.825665 0.344875 0.337622
192 1 0.826749 0.247609 0.420751
172 1 0.999371 0.255235 0.40777
190 1 0.925627 0.277106 0.337411
447 1 0.597493 0.487146 0.0961148
273 1 0.320696 0.334308 0.488029
145 1 0.000185242 0.00296941 0.331498
195 1 0.104089 0.331951 0.413406
196 1 0.997261 0.403854 0.419284
2 1 0.0690356 0.0982625 0.0120689
87 1 0.576422 0.00732322 0.251546
198 1 0.25186 0.419747 0.324695
199 1 0.227173 0.342185 0.395775
200 1 0.166283 0.429794 0.416787
241 1 0.00919709 0.170812 0.485277
204 1 0.326674 0.416506 0.406686
583 1 0.244528 0.49766 0.403083
261 1 0.842361 0.17315 0.489007
262 1 0.923262 0.258629 0.494534
15 1 0.579665 0.00606049 0.0658961
599 1 0.933905 0.490664 0.408228
258 1 0.754444 0.251683 0.499252
53 1 0.141089 0.337778 0.0154401
57 1 0.342249 0.328805 0.00371136
222 1 0.251186 0.0873807 0.499829
10 1 0.417145 0.0880369 0.00564605
507 1 0.0881104 0.488601 0.240417
79 1 0.238041 0.0102442 0.257136
151 1 0.259525 0.00366004 0.421088
21 1 0.832451 0.002427 0.00690013
443 1 0.416661 0.48127 0.0971484
70 1 0.909099 0.416353 0.00480046
19 1 0.759096 0.00592938 0.0815011
274 1 0.3874 0.425479 0.495599
220 1 0.00580969 0.0894058 0.579599
290 1 0.0810906 0.0901068 0.682863
17 1 0.67054 0.00548966 0.999586
731 1 0.419583 0.489662 0.751824
224 1 0.178108 0.081085 0.591589
294 1 0.258388 0.0948109 0.676948
247 1 0.252013 0.166799 0.584648
431 1 0.918829 0.330837 0.917399
432 1 0.826272 0.408452 0.90914
228 1 0.34221 0.0927178 0.609906
232 1 0.494723 0.0814086 0.584086
41 1 0.675306 0.154232 0.988618
302 1 0.577016 0.0817509 0.670747
236 1 0.665354 0.0895823 0.584479
325 1 0.497883 0.179872 0.682289
739 1 0.73919 0.491101 0.741091
289 1 0.0176182 0.00795205 0.670893
245 1 0.183997 0.164096 0.50873
240 1 0.839173 0.0925522 0.574734
306 1 0.757383 0.0907933 0.646682
333 1 0.840204 0.183659 0.660712
412 1 0.985265 0.42693 0.915549
263 1 0.923774 0.174168 0.579857
310 1 0.920937 0.10092 0.653898
49 1 0.992199 0.345448 0.99363
383 1 0.911256 0.00876559 0.926299
243 1 0.0889596 0.167407 0.580161
314 1 0.0861347 0.24526 0.67162
248 1 0.161841 0.267055 0.592766
271 1 0.245265 0.343933 0.568516
252 1 0.341884 0.253786 0.580409
341 1 0.161727 0.327027 0.672318
251 1 0.416177 0.171075 0.594101
322 1 0.419704 0.263995 0.666821
256 1 0.487436 0.253446 0.579576
426 1 0.750043 0.410319 0.824566
369 1 0.335623 0.00236728 0.834921
255 1 0.578809 0.175319 0.594684
260 1 0.670302 0.24455 0.582107
259 1 0.749507 0.167878 0.570474
42 1 0.746351 0.248161 0.991665
313 1 0.999903 0.169849 0.663258
264 1 0.829067 0.241005 0.570016
244 1 0.0218306 0.259301 0.588355
337 1 0.00896324 0.333758 0.668523
334 1 0.92905 0.252144 0.660437
218 1 0.101279 0.0977524 0.501846
267 1 0.0894758 0.342653 0.589997
268 1 0.00449075 0.44101 0.583188
229 1 0.497535 0.00275477 0.502469
338 1 0.0795178 0.420303 0.677335
6 1 0.250508 0.0853936 0.996494
272 1 0.162127 0.428324 0.585282
342 1 0.2461 0.414563 0.658346
379 1 0.748533 0.010454 0.922093
235 1 0.73939 0.00795037 0.578029
276 1 0.330957 0.428082 0.587197
275 1 0.40736 0.349943 0.579052
280 1 0.491688 0.424747 0.571084
377 1 0.670754 0.00120498 0.826514
279 1 0.5722 0.354348 0.572776
350 1 0.583388 0.426357 0.668388
284 1 0.661576 0.429995 0.585825
233 1 0.66533 0.00307897 0.500569
283 1 0.759998 0.338265 0.570812
354 1 0.75469 0.421757 0.653659
288 1 0.842283 0.432103 0.572251
253 1 0.51337 0.173841 0.506037
287 1 0.923363 0.338376 0.585888
358 1 0.924667 0.425363 0.67476
246 1 0.247476 0.25831 0.520299
45 1 0.832031 0.160071 0.996645
296 1 0.161887 0.0877765 0.764275
315 1 0.0797709 0.159538 0.757649
227 1 0.417148 0.00700211 0.590665
366 1 0.24082 0.0899138 0.841374
321 1 0.33599 0.186804 0.671459
298 1 0.436105 0.0923208 0.668965
300 1 0.3343 0.0843345 0.74616
370 1 0.412392 0.0953424 0.837884
323 1 0.407929 0.16378 0.751385
304 1 0.496868 0.0902881 0.752948
327 1 0.583708 0.175221 0.759975
737 1 0.662832 0.493573 0.66617
329 1 0.669557 0.170803 0.677297
234 1 0.756747 0.0886158 0.504048
308 1 0.658275 0.0786858 0.744843
312 1 0.832378 0.100803 0.739474
378 1 0.767358 0.0797926 0.838126
307 1 0.755219 0.0301027 0.741541
292 1 0.0074379 0.0842846 0.756664
335 1 0.917958 0.172353 0.762629
311 1 0.901908 0.0187705 0.75988
317 1 0.17191 0.166978 0.662869
339 1 0.0849947 0.327627 0.758607
409 1 0.00285703 0.322493 0.828526
320 1 0.176511 0.252239 0.754676
319 1 0.252924 0.167116 0.756746
318 1 0.247066 0.244708 0.651079
390 1 0.259269 0.250262 0.827539
393 1 0.336698 0.170604 0.831722
324 1 0.341749 0.259468 0.761351
328 1 0.48832 0.259503 0.754097
417 1 0.339671 0.338338 0.827944
394 1 0.42754 0.241422 0.842778
326 1 0.576908 0.257731 0.663939
332 1 0.661756 0.25204 0.751434
398 1 0.576717 0.262422 0.832554
331 1 0.759392 0.181401 0.748978
330 1 0.761699 0.257673 0.650139
336 1 0.834078 0.25571 0.739408
357 1 0.833737 0.34468 0.653804
316 1 0.00151395 0.241665 0.757975
359 1 0.915965 0.336291 0.740277
385 1 0.00270569 0.162584 0.84116
410 1 0.0918626 0.405545 0.850582
413 1 0.176251 0.328551 0.835466
269 1 0.16498 0.347723 0.502526
425 1 0.671673 0.337152 0.834611
345 1 0.325902 0.326361 0.652236
343 1 0.263034 0.331277 0.743899
344 1 0.181836 0.413019 0.753701
348 1 0.323536 0.421896 0.750941
346 1 0.418297 0.453005 0.649496
349 1 0.494667 0.352631 0.650739
347 1 0.41318 0.362991 0.725811
418 1 0.404012 0.420305 0.838502
353 1 0.666775 0.335961 0.646104
352 1 0.502169 0.42558 0.741877
351 1 0.58165 0.335842 0.736728
356 1 0.65708 0.412394 0.748743
422 1 0.585338 0.408156 0.830917
355 1 0.750819 0.340408 0.728741
360 1 0.832946 0.424145 0.748245
231 1 0.583646 0.00454289 0.577058
340 1 0.00340592 0.416029 0.765169
429 1 0.84058 0.328451 0.817431
430 1 0.901603 0.416435 0.838502
249 1 0.332527 0.16641 0.512652
281 1 0.665222 0.325879 0.517739
735 1 0.579842 0.494907 0.759261
362 1 0.0861268 0.0890964 0.840921
427 1 0.757219 0.332007 0.907003
364 1 0.990344 0.0832052 0.923064
225 1 0.337467 0.0126779 0.507573
368 1 0.156875 0.0763641 0.930665
13 1 0.498817 0.00174047 0.995304
286 1 0.929898 0.419519 0.504988
372 1 0.341075 0.0931605 0.921122
254 1 0.57943 0.257082 0.515271
375 1 0.586992 0.00272127 0.920477
397 1 0.506614 0.17471 0.844057
374 1 0.586469 0.0917888 0.822564
376 1 0.514577 0.0727334 0.911771
399 1 0.590137 0.178167 0.907062
428 1 0.669744 0.427492 0.910137
54 1 0.26436 0.418408 0.997279
380 1 0.664381 0.0834702 0.903511
384 1 0.828538 0.0813747 0.917042
365 1 0.169731 0.00347805 0.848449
382 1 0.916226 0.0993389 0.833113
285 1 0.83878 0.341475 0.500735
361 1 0.0114238 0.00657764 0.829001
371 1 0.414359 0.0176264 0.922474
389 1 0.164382 0.167881 0.842087
387 1 0.0725519 0.165054 0.922844
386 1 0.0895187 0.25517 0.83277
388 1 0.00655911 0.243418 0.920833
219 1 0.0954071 0.00536958 0.587346
391 1 0.254593 0.193294 0.91931
655 1 0.247534 0.496557 0.584978
392 1 0.162647 0.244426 0.922489
50 1 0.074326 0.421824 0.989689
813 1 0.822429 0.491289 0.832548
309 1 0.839172 0.0204131 0.657159
395 1 0.437144 0.15681 0.920569
396 1 0.348763 0.254307 0.917973
400 1 0.513254 0.268239 0.91134
405 1 0.830996 0.172312 0.825866
401 1 0.675789 0.162456 0.813453
402 1 0.742548 0.241918 0.84432
404 1 0.670779 0.251429 0.913895
403 1 0.752206 0.166787 0.920312
239 1 0.932051 0.00750769 0.576506
406 1 0.92093 0.258782 0.844138
408 1 0.840526 0.251508 0.925008
407 1 0.921591 0.17957 0.925929
423 1 0.599037 0.345527 0.917461
416 1 0.171431 0.392371 0.93158
411 1 0.080554 0.327125 0.914178
303 1 0.574466 0.00173736 0.747398
414 1 0.261364 0.417038 0.858572
415 1 0.243775 0.312367 0.929069
420 1 0.342721 0.424558 0.915323
421 1 0.492857 0.341418 0.832503
424 1 0.501326 0.418495 0.921576
419 1 0.422767 0.328982 0.926902
38 1 0.584002 0.239031 0.998465
433 1 0.979788 0.497205 0.994908
453 1 0.82445 0.497881 0.997712
14 1 0.579206 0.0969824 0.995009
217 1 0.0115124 0.0162258 0.500937
811 1 0.746956 0.497168 0.913264
226 1 0.414622 0.0981561 0.513525
62 1 0.592636 0.410165 0.997873
299 1 0.414835 0.0117108 0.744681
1 1 0.00637106 0.0139177 0.996694
18 1 0.751115 0.0755487 0.999286
305 1 0.654822 0.00126005 0.667467
367 1 0.253747 0.0097995 0.925705
242 1 0.0994287 0.245474 0.502092
265 1 0.0011978 0.347843 0.501038
34 1 0.433671 0.247484 0.9972
293 1 0.168582 0.00907718 0.67827
797 1 0.16338 0.490036 0.850967
282 1 0.754206 0.419692 0.500517
373 1 0.491711 0.0138531 0.818425
33 1 0.336594 0.175263 0.990348
805 1 0.509385 0.492026 0.846444
459 1 0.0646266 0.678336 0.0676859
689 1 0.661205 0.685499 0.489856
591 1 0.584624 0.50979 0.420067
649 1 0.00629733 0.506041 0.48651
666 1 0.747855 0.597142 0.496732
440 1 0.155859 0.600176 0.0709783
463 1 0.23396 0.67044 0.0810835
501 1 0.834938 0.839641 0.00969511
698 1 0.0871135 0.926969 0.49858
444 1 0.31689 0.580457 0.0873313
469 1 0.484352 0.662399 0.0157931
685 1 0.495511 0.673271 0.489583
597 1 0.824601 0.502287 0.337443
448 1 0.495504 0.584927 0.087085
662 1 0.580639 0.600738 0.483164
452 1 0.66353 0.598968 0.08197
456 1 0.828489 0.597974 0.0963378
549 1 0.839313 0.672008 0.165294
5 1 0.162143 0.999577 0.00791703
585 1 0.327553 0.503704 0.326449
436 1 0.9854 0.596562 0.0595224
455 1 0.909817 0.506222 0.0747772
460 1 0.991332 0.763068 0.0805013
464 1 0.162971 0.754754 0.0763412
468 1 0.322327 0.748607 0.0918301
534 1 0.252624 0.748919 0.177128
462 1 0.250547 0.751911 0.0121294
155 1 0.424901 0.997412 0.412011
467 1 0.400733 0.662609 0.0775804
89 1 0.675477 0.993762 0.157627
491 1 0.404653 0.839386 0.0794135
472 1 0.472457 0.750682 0.090036
471 1 0.567585 0.676979 0.0838147
476 1 0.660952 0.74866 0.090951
475 1 0.744465 0.67619 0.0727216
499 1 0.753246 0.832763 0.086019
579 1 0.0911684 0.505686 0.404066
479 1 0.900409 0.673948 0.0812254
480 1 0.831005 0.763536 0.0869356
670 1 0.915514 0.59301 0.489846
693 1 0.844517 0.675595 0.490826
483 1 0.0808695 0.834372 0.0959692
557 1 0.170169 0.83116 0.17383
554 1 0.0816788 0.911145 0.16919
487 1 0.228971 0.841127 0.0832057
488 1 0.151818 0.925605 0.0937255
558 1 0.230629 0.921371 0.172928
492 1 0.335198 0.92123 0.0747219
657 1 0.315391 0.503711 0.486479
496 1 0.484073 0.918735 0.090201
465 1 0.338857 0.661592 0.000647872
495 1 0.585117 0.827907 0.0911639
500 1 0.661248 0.918464 0.0848637
159 1 0.584398 0.994933 0.416879
570 1 0.749311 0.920073 0.163635
553 1 0.981587 0.825713 0.165968
484 1 0.99735 0.912406 0.0908077
503 1 0.915321 0.846079 0.0800133
504 1 0.827087 0.920259 0.0877529
574 1 0.909897 0.930814 0.173378
506 1 0.0827942 0.575123 0.156475
512 1 0.157256 0.580039 0.249545
605 1 0.174699 0.682135 0.333026
442 1 0.414764 0.578311 0.0287848
669 1 0.824103 0.507174 0.496753
533 1 0.161194 0.672443 0.160383
510 1 0.230993 0.582739 0.168522
582 1 0.23242 0.580917 0.328903
535 1 0.233344 0.66046 0.247925
481 1 0.984409 0.830749 0.0020764
511 1 0.255088 0.502119 0.252333
81 1 0.322563 0.991969 0.17742
514 1 0.400173 0.584203 0.158945
516 1 0.336329 0.585064 0.255745
520 1 0.476486 0.586745 0.24346
589 1 0.502212 0.506166 0.333861
494 1 0.586395 0.917565 0.000774067
586 1 0.406091 0.594196 0.33532
518 1 0.576668 0.59007 0.17183
502 1 0.91993 0.923509 0.00431604
446 1 0.575128 0.583182 0.00586224
613 1 0.498479 0.671355 0.331908
522 1 0.74011 0.590625 0.174336
524 1 0.639112 0.582127 0.256922
528 1 0.839581 0.583054 0.254161
493 1 0.503715 0.830847 0.00694203
508 1 0.00159604 0.582335 0.245581
601 1 0.998612 0.658748 0.315695
526 1 0.919046 0.577609 0.173429
439 1 0.235041 0.504014 0.0846323
530 1 0.0749556 0.75001 0.158611
529 1 0.997494 0.670828 0.155112
531 1 0.0855005 0.668143 0.251286
536 1 0.173166 0.753899 0.249053
602 1 0.0839302 0.760173 0.315165
561 1 0.314067 0.837927 0.159099
540 1 0.33944 0.775685 0.268096
606 1 0.256337 0.752776 0.326952
537 1 0.321479 0.655407 0.162122
538 1 0.397753 0.751482 0.165908
539 1 0.409337 0.68137 0.251009
609 1 0.334539 0.689162 0.338321
541 1 0.476133 0.679837 0.174592
544 1 0.495559 0.757794 0.248995
543 1 0.566932 0.667561 0.236069
542 1 0.56667 0.750395 0.166977
548 1 0.670263 0.765017 0.239502
569 1 0.673302 0.839432 0.161551
546 1 0.747933 0.75872 0.162068
545 1 0.652923 0.665641 0.169846
547 1 0.751776 0.672866 0.243265
552 1 0.823915 0.759191 0.238894
645 1 0.830385 0.836972 0.327496
550 1 0.916347 0.747105 0.167093
532 1 0.989169 0.753584 0.249638
551 1 0.9055 0.666865 0.24933
622 1 0.907158 0.751073 0.321535
625 1 0.017405 0.846785 0.33327
555 1 0.0702721 0.833057 0.235747
560 1 0.158129 0.91912 0.255014
629 1 0.171692 0.844825 0.331985
559 1 0.253901 0.842647 0.264226
564 1 0.323573 0.937803 0.262114
633 1 0.326866 0.842816 0.355088
563 1 0.421893 0.841335 0.24329
562 1 0.402799 0.918053 0.178791
634 1 0.417333 0.926684 0.32696
565 1 0.500649 0.845784 0.174301
577 1 0.00393772 0.508695 0.331241
566 1 0.56949 0.917333 0.157197
567 1 0.578559 0.832775 0.248346
568 1 0.507334 0.925058 0.260826
572 1 0.65066 0.923221 0.239033
571 1 0.749996 0.848848 0.240692
576 1 0.83114 0.923537 0.251121
91 1 0.75058 0.990802 0.251957
573 1 0.830328 0.846255 0.173067
575 1 0.918092 0.841972 0.244442
556 1 0.995118 0.9315 0.243252
646 1 0.925611 0.919969 0.331363
578 1 0.0844267 0.597527 0.34636
580 1 0.983301 0.601575 0.408816
584 1 0.181883 0.576418 0.416026
607 1 0.249922 0.686306 0.422083
588 1 0.316754 0.584969 0.417246
470 1 0.580065 0.746211 0.00768444
509 1 0.160441 0.500864 0.152443
592 1 0.490103 0.593927 0.406167
435 1 0.0692598 0.506684 0.0652851
611 1 0.402046 0.687913 0.422107
161 1 0.664825 0.992168 0.320146
590 1 0.572637 0.596186 0.335495
615 1 0.603495 0.686344 0.403409
521 1 0.66862 0.511101 0.18309
661 1 0.494269 0.511747 0.485502
594 1 0.742969 0.593738 0.329538
596 1 0.663689 0.593042 0.405096
600 1 0.821918 0.592917 0.404251
619 1 0.75094 0.676278 0.416616
598 1 0.906812 0.598751 0.337958
623 1 0.915124 0.697593 0.410695
603 1 0.0682031 0.693279 0.402966
608 1 0.166468 0.752795 0.420469
673 1 0.00166219 0.674476 0.492086
648 1 0.830833 0.929521 0.419136
631 1 0.24268 0.844984 0.422343
610 1 0.417967 0.755941 0.339654
637 1 0.496781 0.8441 0.331007
612 1 0.320119 0.761422 0.425669
617 1 0.659744 0.677284 0.311795
614 1 0.582314 0.76532 0.330483
641 1 0.667901 0.846083 0.330722
639 1 0.586411 0.845263 0.414414
616 1 0.501689 0.752862 0.412941
618 1 0.745152 0.765637 0.32816
643 1 0.747254 0.846718 0.409719
620 1 0.66799 0.767791 0.415561
525 1 0.822343 0.506371 0.169462
628 1 0.00517735 0.91567 0.4167
647 1 0.909332 0.831791 0.420124
621 1 0.829481 0.672783 0.327326
624 1 0.82699 0.759408 0.415229
604 1 0.999638 0.769896 0.420381
632 1 0.165707 0.931729 0.422465
523 1 0.75538 0.501844 0.255262
674 1 0.0853394 0.76263 0.498611
626 1 0.0927457 0.924542 0.342638
705 1 0.317166 0.836489 0.497094
627 1 0.0891697 0.834012 0.405713
587 1 0.406002 0.502997 0.405766
686 1 0.580208 0.762635 0.499281
630 1 0.245257 0.921262 0.332282
636 1 0.328224 0.927874 0.442306
635 1 0.407448 0.843468 0.44338
640 1 0.507964 0.915452 0.420458
697 1 0.0158849 0.851318 0.496703
23 1 0.91479 0.997204 0.0859683
638 1 0.591335 0.918211 0.333766
486 1 0.239925 0.914016 0.00509369
451 1 0.752285 0.504202 0.0825056
595 1 0.729319 0.510602 0.416591
644 1 0.665899 0.920698 0.427876
482 1 0.0811096 0.908774 0.00348314
658 1 0.412989 0.5864 0.481361
642 1 0.750598 0.915938 0.332454
438 1 0.235465 0.591314 0.0099435
450 1 0.743826 0.584416 0.0161202
527 1 0.919527 0.501036 0.2686
466 1 0.40476 0.756976 0.0209522
690 1 0.750166 0.762135 0.491372
650 1 0.074968 0.58412 0.490046
682 1 0.425968 0.753498 0.496036
515 1 0.410993 0.500531 0.240176
441 1 0.333034 0.501951 0.0258119
458 1 0.0722977 0.777384 0.0110032
11 1 0.413807 0.992404 0.079833
513 1 0.315946 0.503246 0.151266
581 1 0.163352 0.50193 0.330386
474 1 0.740298 0.760604 0.000529992
75 1 0.0863734 0.997754 0.254242
722 1 0.0836882 0.598617 0.659515
749 1 0.158935 0.674308 0.664795
454 1 0.905638 0.577891 0.996152
656 1 0.16942 0.584544 0.583052
726 1 0.245116 0.578325 0.659747
660 1 0.326176 0.587515 0.590471
702 1 0.255398 0.918449 0.525164
863 1 0.91721 0.85387 0.906681
664 1 0.505922 0.583428 0.572715
490 1 0.422832 0.922863 0.995164
221 1 0.175516 0.998745 0.506483
654 1 0.256351 0.59068 0.50863
734 1 0.602431 0.58851 0.666828
668 1 0.663268 0.60477 0.568003
687 1 0.574112 0.676864 0.568364
761 1 0.671267 0.667084 0.660591
434 1 0.0769108 0.587605 0.994018
848 1 0.158138 0.912473 0.930982
738 1 0.743569 0.574997 0.657431
691 1 0.753543 0.678724 0.562418
678 1 0.232416 0.755792 0.513669
477 1 0.826978 0.674794 0.995744
652 1 0.0129998 0.591434 0.574209
672 1 0.830809 0.608558 0.581405
695 1 0.920756 0.672827 0.588089
803 1 0.418333 0.501001 0.921049
765 1 0.826638 0.667258 0.667123
675 1 0.0664439 0.670838 0.588112
680 1 0.162111 0.747242 0.597199
699 1 0.0948358 0.830424 0.581944
723 1 0.0818351 0.506282 0.749167
859 1 0.741604 0.841058 0.913665
679 1 0.242891 0.672651 0.585404
684 1 0.328999 0.759493 0.585088
297 1 0.345575 0.993752 0.666543
683 1 0.412977 0.66513 0.594719
757 1 0.507115 0.658965 0.662094
667 1 0.751249 0.513623 0.57945
706 1 0.422375 0.930752 0.506296
844 1 0.000758458 0.923994 0.921854
688 1 0.495378 0.747305 0.585501
758 1 0.585321 0.739562 0.668228
692 1 0.67281 0.7443 0.58517
478 1 0.899116 0.762563 0.996467
857 1 0.666329 0.82627 0.843592
715 1 0.747611 0.847184 0.583532
663 1 0.571152 0.503211 0.562696
745 1 0.991195 0.667369 0.690295
676 1 0.998557 0.762567 0.560968
696 1 0.833933 0.764256 0.582316
766 1 0.929566 0.767413 0.678238
704 1 0.151209 0.912021 0.582035
718 1 0.930488 0.913837 0.508317
703 1 0.228043 0.837945 0.600167
774 1 0.260524 0.919286 0.68062
708 1 0.342039 0.917109 0.588977
809 1 0.657497 0.509494 0.839251
677 1 0.148437 0.663797 0.502101
707 1 0.415625 0.835855 0.586224
781 1 0.48885 0.829199 0.674022
778 1 0.429823 0.911883 0.678859
712 1 0.490877 0.921319 0.581831
659 1 0.41082 0.528113 0.568578
864 1 0.820896 0.925271 0.928853
711 1 0.577701 0.827156 0.593102
782 1 0.575435 0.898907 0.677913
701 1 0.171642 0.84832 0.500668
789 1 0.831913 0.837215 0.672077
716 1 0.660065 0.916599 0.590723
786 1 0.746325 0.922272 0.665404
785 1 0.670028 0.829118 0.661299
795 1 0.0653392 0.504118 0.928075
719 1 0.923049 0.838117 0.587466
720 1 0.840719 0.926623 0.582878
700 1 0.00184739 0.931439 0.591235
790 1 0.921946 0.909596 0.665347
743 1 0.920347 0.502523 0.769728
473 1 0.658458 0.661803 0.994102
457 1 0.977984 0.691907 0.998924
728 1 0.171332 0.591066 0.737285
821 1 0.162994 0.679925 0.834205
794 1 0.0816951 0.586683 0.839038
709 1 0.498611 0.844272 0.503849
461 1 0.173514 0.682686 0.986044
732 1 0.314461 0.584977 0.755586
751 1 0.250098 0.683374 0.754137
730 1 0.431301 0.59052 0.675695
653 1 0.173381 0.515191 0.502635
733 1 0.507948 0.508443 0.657788
736 1 0.501065 0.567739 0.751443
806 1 0.573219 0.589091 0.851135
759 1 0.584496 0.662775 0.747231
721 1 0.011907 0.517191 0.668306
740 1 0.6618 0.58787 0.750277
763 1 0.743692 0.659574 0.750247
742 1 0.913716 0.592045 0.674945
851 1 0.418774 0.830457 0.934977
744 1 0.808748 0.577717 0.748424
724 1 0.993837 0.584047 0.75344
814 1 0.89406 0.581079 0.826912
817 1 0.997111 0.65945 0.829418
801 1 0.328778 0.515596 0.839551
746 1 0.0619708 0.750236 0.664233
747 1 0.0884681 0.65638 0.749162
748 1 0.996488 0.743111 0.76112
771 1 0.071206 0.850308 0.764542
818 1 0.0774444 0.767238 0.833163
845 1 0.159118 0.844087 0.837068
752 1 0.167681 0.75675 0.759709
753 1 0.327416 0.671132 0.677863
750 1 0.244772 0.755894 0.674094
756 1 0.34356 0.740772 0.754678
754 1 0.407887 0.750128 0.661913
755 1 0.418937 0.658892 0.742493
853 1 0.485231 0.832569 0.842842
760 1 0.497216 0.724773 0.752123
830 1 0.570057 0.740111 0.845262
762 1 0.761304 0.745186 0.667879
764 1 0.67132 0.748861 0.74378
834 1 0.754272 0.75907 0.835217
768 1 0.832266 0.75101 0.751446
837 1 0.811951 0.666184 0.847401
833 1 0.673155 0.68273 0.833163
767 1 0.902282 0.660685 0.750142
838 1 0.900183 0.777429 0.823531
791 1 0.897543 0.854251 0.747585
770 1 0.0824805 0.917504 0.663797
773 1 0.15936 0.828689 0.681046
842 1 0.0878872 0.92863 0.850176
776 1 0.167714 0.91323 0.751002
777 1 0.334369 0.825809 0.666148
775 1 0.247658 0.827971 0.760494
780 1 0.334482 0.903101 0.755997
846 1 0.253415 0.919056 0.837634
799 1 0.256482 0.502951 0.915258
779 1 0.403194 0.827895 0.760749
497 1 0.656085 0.820421 0.999923
849 1 0.343041 0.827317 0.852336
850 1 0.414812 0.922158 0.832821
714 1 0.752012 0.918678 0.509763
783 1 0.588158 0.82088 0.752834
784 1 0.500802 0.928173 0.761147
854 1 0.599429 0.923855 0.836789
713 1 0.658374 0.835613 0.508316
381 1 0.827838 0.992473 0.837219
788 1 0.668154 0.920705 0.755973
787 1 0.745125 0.840644 0.754313
858 1 0.739273 0.921558 0.835025
769 1 0.00748669 0.83824 0.661491
772 1 0.985961 0.917941 0.745129
792 1 0.821225 0.936686 0.7286
862 1 0.920259 0.935432 0.840155
852 1 0.34533 0.915587 0.910045
819 1 0.0713043 0.695796 0.930318
855 1 0.582985 0.838559 0.915786
798 1 0.245109 0.584391 0.841736
825 1 0.338405 0.671757 0.85077
291 1 0.0931766 0.986606 0.752801
800 1 0.165055 0.586925 0.918217
804 1 0.343667 0.575086 0.924284
823 1 0.241846 0.662268 0.910971
694 1 0.906862 0.760128 0.501746
802 1 0.42936 0.568736 0.837701
829 1 0.493362 0.661153 0.840465
498 1 0.745501 0.923478 0.997009
827 1 0.417584 0.666191 0.928032
237 1 0.828267 0.999974 0.501227
807 1 0.575865 0.502482 0.928737
808 1 0.484391 0.586343 0.93274
812 1 0.666805 0.573691 0.922349
729 1 0.32205 0.510699 0.670494
831 1 0.565806 0.663734 0.930426
856 1 0.497118 0.916092 0.916037
485 1 0.160844 0.832316 0.995767
810 1 0.744568 0.580842 0.838393
793 1 0.987921 0.535884 0.848296
741 1 0.842494 0.508521 0.666266
665 1 0.658417 0.512845 0.503213
796 1 0.983909 0.61186 0.926462
816 1 0.82469 0.572863 0.91391
301 1 0.50446 0.994421 0.650159
363 1 0.0856106 0.998746 0.933238
824 1 0.178652 0.759931 0.925654
651 1 0.0902153 0.510273 0.582173
820 1 0.98531 0.762196 0.912413
841 1 0.999181 0.855871 0.840032
843 1 0.0679701 0.838762 0.922114
822 1 0.24788 0.747517 0.844968
847 1 0.252023 0.841673 0.921147
828 1 0.332528 0.752583 0.936168
725 1 0.175867 0.504819 0.679988
826 1 0.421317 0.75882 0.856073
710 1 0.580057 0.920114 0.509988
223 1 0.262283 0.991823 0.598663
832 1 0.489082 0.744919 0.950397
836 1 0.660994 0.751067 0.912492
489 1 0.321408 0.837014 0.998274
835 1 0.739139 0.667355 0.930219
860 1 0.662376 0.923551 0.926052
717 1 0.837119 0.845017 0.510194
861 1 0.824264 0.857855 0.840167
839 1 0.900853 0.683449 0.911316
840 1 0.838376 0.774123 0.910324
727 1 0.239032 0.508157 0.770219
671 1 0.924081 0.523823 0.581565
681 1 0.335711 0.676533 0.508167
815 1 0.89935 0.500339 0.911869
295 1 0.259248 0.999997 0.760483
