ITEM: TIMESTEP
2000
ITEM: NUMBER OF ATOMS
864
ITEM: BOX BOUNDS pp pp pp
0.0000000000000000e+00 3.1559999999999999e+01
0.0000000000000000e+00 3.1559999999999999e+01
0.0000000000000000e+00 3.1559999999999999e+01
ITEM: ATOMS id type xs ys zs
27 1 0.0884512 0.166487 0.0729237
4 1 0.00856649 0.0897713 0.0887604
1 1 0.00963374 0.012106 0.00124595
73 1 0.00472353 0.00158599 0.161092
2 1 0.0823501 0.0835138 0.00316941
8 1 0.168978 0.0953895 0.0866174
7 1 0.259848 0.00672825 0.0889858
31 1 0.265899 0.156026 0.0831663
6 1 0.236232 0.0876189 0.00245882
12 1 0.355991 0.0842855 0.0795432
105 1 0.340046 0.153117 0.164143
10 1 0.427985 0.0850618 0.00518515
82 1 0.429777 0.0748752 0.165816
11 1 0.423677 0.00334436 0.0801551
16 1 0.516794 0.0960902 0.0875142
14 1 0.602761 0.0864975 0.00104818
15 1 0.592745 0.00282259 0.0826409
13 1 0.508853 0.00800364 0.000845959
37 1 0.51059 0.15382 0.00910603
20 1 0.676465 0.0767047 0.0748864
113 1 0.666846 0.153797 0.159048
93 1 0.826489 0.00297429 0.161396
18 1 0.754665 0.0683011 0.00950803
45 1 0.831996 0.164749 0.000130249
24 1 0.835016 0.0849212 0.0937444
22 1 0.908619 0.072068 0.00589652
98 1 0.0701109 0.247366 0.151234
125 1 0.15247 0.321577 0.164263
101 1 0.168535 0.173753 0.159739
32 1 0.176152 0.249929 0.0881883
55 1 0.243439 0.327234 0.0847671
57 1 0.332489 0.329005 0.00516796
36 1 0.337231 0.243632 0.0663437
35 1 0.432361 0.172959 0.0935114
59 1 0.416889 0.322424 0.0772262
133 1 0.49888 0.316146 0.159511
61 1 0.498913 0.323565 0.00183737
39 1 0.597666 0.168069 0.0749326
40 1 0.51304 0.237149 0.082213
63 1 0.582616 0.330575 0.0888514
44 1 0.66287 0.251822 0.0695406
43 1 0.749158 0.168938 0.0823414
114 1 0.744546 0.249486 0.157474
137 1 0.667338 0.322109 0.153269
28 1 0.994214 0.26932 0.068175
48 1 0.837423 0.261615 0.0843859
47 1 0.919251 0.173173 0.071792
117 1 0.841516 0.167283 0.159271
97 1 0.990588 0.166809 0.165629
118 1 0.915324 0.259171 0.163578
69 1 0.841895 0.330228 0.00471614
435 1 0.0786386 0.486123 0.0972674
51 1 0.0800278 0.34116 0.0727747
56 1 0.164949 0.410983 0.0852886
122 1 0.0795214 0.406666 0.158809
60 1 0.327405 0.413038 0.0928485
439 1 0.245534 0.49976 0.090434
54 1 0.253439 0.427789 0.00165385
130 1 0.419882 0.412748 0.161647
64 1 0.486371 0.413913 0.0785993
443 1 0.405601 0.493147 0.0855564
68 1 0.664964 0.414294 0.0865773
447 1 0.584312 0.493581 0.0854417
449 1 0.654448 0.497468 0.00428961
62 1 0.591085 0.412498 0.00794748
67 1 0.746037 0.337792 0.0870315
138 1 0.741685 0.408611 0.164231
451 1 0.728607 0.493391 0.0965625
66 1 0.741677 0.430723 0.00241875
121 1 0.999503 0.337202 0.157391
52 1 0.98174 0.423859 0.0728159
71 1 0.908763 0.337364 0.0903309
72 1 0.835327 0.422023 0.0676659
142 1 0.921506 0.422283 0.166047
75 1 0.0864028 0.00475976 0.258003
74 1 0.0702234 0.079927 0.176683
146 1 0.0915568 0.100037 0.321404
145 1 0.00850797 0.0103111 0.326483
77 1 0.165257 0.00410583 0.181891
149 1 0.156757 0.00220966 0.329613
78 1 0.260928 0.0850993 0.174872
80 1 0.16918 0.0895934 0.238553
103 1 0.252161 0.165494 0.25119
150 1 0.24104 0.0790179 0.327518
79 1 0.251949 0.00407482 0.247089
84 1 0.334919 0.083611 0.254216
88 1 0.491974 0.0889223 0.254724
177 1 0.337493 0.166192 0.329436
86 1 0.577738 0.0842664 0.178186
158 1 0.575862 0.0838933 0.326964
87 1 0.583258 0.00134843 0.247549
92 1 0.673652 0.0886939 0.254428
90 1 0.761044 0.0883347 0.189569
162 1 0.758325 0.0724593 0.332596
89 1 0.667176 0.0174045 0.170974
165 1 0.836743 0.00314509 0.327862
76 1 0.995597 0.086298 0.253143
96 1 0.841362 0.0705138 0.249627
94 1 0.928597 0.0747001 0.166825
119 1 0.918493 0.15875 0.243795
99 1 0.0791101 0.181728 0.240719
104 1 0.15424 0.255652 0.243033
123 1 0.060056 0.329594 0.251644
197 1 0.154951 0.329429 0.329749
102 1 0.246078 0.25432 0.168648
108 1 0.332464 0.238984 0.244503
201 1 0.327377 0.326248 0.326424
129 1 0.339493 0.325364 0.167489
106 1 0.405157 0.249897 0.170141
107 1 0.41985 0.167227 0.249541
131 1 0.423594 0.319227 0.249551
178 1 0.415102 0.242099 0.329585
181 1 0.499537 0.170078 0.328527
109 1 0.513592 0.168192 0.17368
110 1 0.590503 0.246644 0.168476
111 1 0.593429 0.169328 0.258672
112 1 0.510746 0.247963 0.248259
116 1 0.659289 0.254673 0.24307
135 1 0.581346 0.326672 0.248084
115 1 0.741451 0.184317 0.238506
139 1 0.741375 0.326398 0.241455
189 1 0.820859 0.17275 0.325121
186 1 0.769169 0.262865 0.3282
213 1 0.858434 0.329106 0.321108
100 1 0.991167 0.255629 0.255054
120 1 0.835788 0.249354 0.239409
190 1 0.914672 0.235288 0.331066
505 1 0.00157315 0.49979 0.173408
124 1 0.0122551 0.437097 0.253758
128 1 0.146873 0.398855 0.25811
581 1 0.158352 0.49136 0.327131
507 1 0.0932048 0.494728 0.241599
127 1 0.243804 0.334881 0.254435
126 1 0.240631 0.397312 0.168628
132 1 0.327359 0.400822 0.245539
511 1 0.235482 0.483834 0.24246
585 1 0.328318 0.490665 0.322862
513 1 0.325895 0.498471 0.170421
509 1 0.169918 0.499694 0.168456
202 1 0.418775 0.419701 0.32817
589 1 0.492879 0.494313 0.324386
519 1 0.583509 0.481687 0.254459
134 1 0.584563 0.408426 0.168689
517 1 0.501596 0.496709 0.177333
136 1 0.501355 0.418415 0.254426
209 1 0.674004 0.334932 0.325371
523 1 0.760312 0.48959 0.261512
593 1 0.669742 0.48398 0.315795
525 1 0.823572 0.463872 0.169632
140 1 0.667908 0.413283 0.240082
141 1 0.835989 0.342948 0.169979
143 1 0.935618 0.341971 0.240459
144 1 0.839958 0.416228 0.253071
217 1 0.00789772 0.000535652 0.498644
147 1 0.0977908 0.0150414 0.423707
171 1 0.0844855 0.163331 0.417646
148 1 0.002869 0.0891794 0.418075
153 1 0.328841 0.0102154 0.342568
152 1 0.178772 0.101819 0.425018
151 1 0.246141 0.0143724 0.418339
154 1 0.423156 0.0859747 0.341226
156 1 0.333736 0.0819375 0.425566
155 1 0.416953 0.017155 0.42458
229 1 0.51229 0.00807206 0.498893
160 1 0.503267 0.0868508 0.419624
183 1 0.599943 0.162107 0.406376
230 1 0.571657 0.0961293 0.496373
159 1 0.58362 0.0052261 0.419661
163 1 0.769618 0.00450779 0.409941
185 1 0.684388 0.158244 0.342676
164 1 0.670316 0.0813321 0.416852
161 1 0.671708 0.00532079 0.342683
167 1 0.918177 0.00546895 0.408298
168 1 0.841839 0.0908144 0.415585
166 1 0.916443 0.0958061 0.341208
169 1 0.00333257 0.167245 0.342743
195 1 0.0646421 0.332841 0.412907
170 1 0.0906048 0.238579 0.337753
176 1 0.145311 0.261396 0.417727
245 1 0.156541 0.180922 0.498268
246 1 0.248059 0.255647 0.487747
173 1 0.170836 0.171698 0.354451
175 1 0.26498 0.169083 0.420987
174 1 0.230478 0.251228 0.342424
180 1 0.32494 0.26159 0.41079
205 1 0.498644 0.313498 0.338065
203 1 0.420909 0.302241 0.42532
179 1 0.412202 0.180505 0.420528
254 1 0.599137 0.233102 0.490973
184 1 0.507759 0.236431 0.415929
207 1 0.609992 0.333024 0.415929
182 1 0.590558 0.248846 0.334731
211 1 0.755556 0.327434 0.399614
187 1 0.758426 0.167288 0.409751
258 1 0.765275 0.243473 0.497084
188 1 0.693346 0.254756 0.420065
193 1 0.98667 0.32374 0.341168
191 1 0.917561 0.168367 0.423864
192 1 0.83943 0.244273 0.411649
215 1 0.92276 0.329529 0.430067
172 1 0.987314 0.247249 0.426435
194 1 0.0779982 0.423599 0.3344
200 1 0.156022 0.408674 0.416559
579 1 0.0864088 0.487262 0.424914
583 1 0.244276 0.476279 0.418017
198 1 0.240506 0.412004 0.339566
199 1 0.250242 0.348491 0.422188
204 1 0.346421 0.419323 0.412281
274 1 0.412651 0.416057 0.494941
273 1 0.339904 0.339949 0.496609
208 1 0.501512 0.391865 0.42072
661 1 0.500061 0.487279 0.481444
206 1 0.57407 0.397755 0.334552
591 1 0.578479 0.491951 0.402325
216 1 0.832187 0.419742 0.405962
282 1 0.768886 0.416802 0.498693
210 1 0.75466 0.407622 0.333345
281 1 0.691284 0.336249 0.498344
212 1 0.66678 0.41662 0.420494
595 1 0.741578 0.491816 0.412367
196 1 0.981268 0.42344 0.419535
286 1 0.910074 0.416611 0.497086
214 1 0.9241 0.423841 0.337466
243 1 0.0818301 0.163242 0.586472
220 1 0.00664563 0.0740699 0.577214
241 1 0.0158385 0.164037 0.502383
218 1 0.0925875 0.0820477 0.506982
224 1 0.17411 0.0841089 0.58702
228 1 0.329782 0.087525 0.589895
223 1 0.253267 0.0112572 0.590271
293 1 0.166918 0.0089987 0.6578
222 1 0.253042 0.101237 0.509273
298 1 0.419898 0.0889059 0.66368
251 1 0.413324 0.161711 0.589769
226 1 0.422359 0.0668377 0.509173
231 1 0.587831 0.00237791 0.581108
232 1 0.508462 0.0737439 0.595825
236 1 0.663386 0.0846673 0.58757
255 1 0.576826 0.15438 0.606772
257 1 0.659221 0.145762 0.511216
306 1 0.750326 0.0892634 0.656074
333 1 0.82943 0.162189 0.662661
234 1 0.761873 0.0653185 0.500469
240 1 0.848386 0.0710841 0.588215
263 1 0.913758 0.160818 0.587053
310 1 0.942748 0.0755588 0.654904
238 1 0.912626 0.0739784 0.501722
267 1 0.0882248 0.331918 0.597983
248 1 0.162742 0.245777 0.589085
244 1 0.000327964 0.251915 0.591727
242 1 0.0869779 0.263268 0.512823
247 1 0.240214 0.171395 0.596654
269 1 0.172322 0.325674 0.50215
271 1 0.264323 0.330244 0.591738
249 1 0.327339 0.182277 0.507401
250 1 0.421813 0.24734 0.51951
252 1 0.344101 0.251364 0.607654
322 1 0.439718 0.241246 0.665239
253 1 0.495622 0.174236 0.504915
256 1 0.512513 0.234039 0.590143
353 1 0.664373 0.318934 0.653835
279 1 0.579933 0.321398 0.581561
277 1 0.51439 0.30215 0.500739
259 1 0.757725 0.168119 0.574188
260 1 0.670516 0.237756 0.575879
330 1 0.752203 0.243487 0.661893
261 1 0.845987 0.167599 0.503982
264 1 0.838749 0.254714 0.583073
334 1 0.911194 0.252811 0.653018
262 1 0.920593 0.256232 0.507937
268 1 0.0146168 0.417444 0.599046
272 1 0.165099 0.415468 0.583844
653 1 0.165854 0.49647 0.507612
266 1 0.0796134 0.402051 0.50538
342 1 0.246166 0.413459 0.660573
270 1 0.251262 0.416744 0.511153
276 1 0.338374 0.411016 0.575193
345 1 0.356588 0.345452 0.664738
275 1 0.437556 0.333712 0.583171
280 1 0.495651 0.418625 0.572768
346 1 0.430972 0.419255 0.650837
350 1 0.593571 0.411212 0.664425
278 1 0.581405 0.410452 0.502041
283 1 0.748888 0.340288 0.587005
284 1 0.678869 0.41844 0.578764
354 1 0.758186 0.425201 0.665064
667 1 0.75379 0.497849 0.585183
737 1 0.667276 0.498511 0.657122
287 1 0.917403 0.346745 0.604115
288 1 0.854832 0.416274 0.587914
265 1 0.999201 0.335915 0.520356
285 1 0.845924 0.335068 0.512663
649 1 0.997881 0.485254 0.507425
669 1 0.837144 0.497279 0.500788
290 1 0.0886771 0.0797932 0.67012
292 1 0.00134581 0.0819942 0.749914
315 1 0.0787579 0.163973 0.747329
362 1 0.0932587 0.0791117 0.825142
389 1 0.16486 0.160852 0.832783
294 1 0.25574 0.0813834 0.677548
296 1 0.180049 0.0827162 0.742511
366 1 0.263074 0.0852432 0.825384
369 1 0.343297 0.00732983 0.827717
300 1 0.35034 0.0757944 0.752187
304 1 0.49701 0.0731792 0.742369
297 1 0.345494 0.0036144 0.668693
393 1 0.341992 0.165949 0.827838
325 1 0.500612 0.163297 0.680748
302 1 0.576758 0.0725978 0.679853
374 1 0.595864 0.0875105 0.830237
308 1 0.669158 0.0773313 0.732163
378 1 0.757122 0.0827769 0.818121
312 1 0.831423 0.0722967 0.731018
381 1 0.839099 0.00130057 0.82787
313 1 0.997571 0.165761 0.680074
335 1 0.902281 0.145404 0.737103
382 1 0.911284 0.0782281 0.831064
317 1 0.165946 0.16908 0.670743
314 1 0.0755178 0.244351 0.677425
339 1 0.0949975 0.330347 0.751205
320 1 0.157553 0.239455 0.758102
319 1 0.260305 0.170312 0.764444
321 1 0.322991 0.16846 0.669214
318 1 0.254819 0.250563 0.677799
324 1 0.335344 0.266441 0.741132
323 1 0.41341 0.173366 0.741559
394 1 0.406616 0.247254 0.823827
397 1 0.493528 0.169899 0.826518
326 1 0.57639 0.253819 0.677392
329 1 0.653967 0.173132 0.674596
328 1 0.501074 0.267261 0.750095
327 1 0.572749 0.167145 0.762124
332 1 0.662217 0.252819 0.757797
401 1 0.675775 0.167978 0.822697
405 1 0.825658 0.166943 0.827332
331 1 0.751128 0.18161 0.742258
355 1 0.738386 0.332397 0.728914
402 1 0.751751 0.258539 0.828092
316 1 0.984422 0.254539 0.747376
336 1 0.836294 0.23779 0.743869
406 1 0.910723 0.237478 0.828301
429 1 0.834076 0.32521 0.814282
385 1 0.9935 0.166798 0.817737
338 1 0.0993248 0.415602 0.674376
340 1 0.0150378 0.411045 0.753849
793 1 0.00757777 0.492667 0.828323
341 1 0.170843 0.336485 0.672277
344 1 0.17537 0.430706 0.758176
343 1 0.258344 0.34762 0.751049
413 1 0.179965 0.334347 0.821434
414 1 0.257909 0.430892 0.828684
347 1 0.424547 0.341032 0.750474
348 1 0.334376 0.41439 0.737356
418 1 0.426221 0.417384 0.830561
349 1 0.516722 0.340129 0.670927
351 1 0.596664 0.342431 0.761502
352 1 0.505854 0.41483 0.750383
733 1 0.513319 0.499436 0.666707
357 1 0.827809 0.336214 0.672757
739 1 0.744847 0.497543 0.740603
356 1 0.669923 0.416639 0.751985
426 1 0.750488 0.395136 0.826524
337 1 0.995996 0.33376 0.678355
358 1 0.924976 0.433507 0.668767
359 1 0.917143 0.342478 0.742076
409 1 0.979032 0.334618 0.828993
360 1 0.839161 0.425037 0.753929
387 1 0.0772719 0.163741 0.914842
364 1 0.00234245 0.0890138 0.898237
5 1 0.162251 0.00723774 0.994571
367 1 0.255247 0.0149305 0.919384
368 1 0.170568 0.0805874 0.90375
372 1 0.331537 0.0888624 0.913376
371 1 0.415393 0.00474278 0.913875
9 1 0.339541 0.00651541 0.999636
370 1 0.423611 0.0865554 0.84024
33 1 0.337757 0.150722 0.998648
395 1 0.433634 0.159411 0.920479
373 1 0.496294 0.0127552 0.840648
375 1 0.594695 0.0115003 0.920679
376 1 0.519813 0.082376 0.927395
399 1 0.597405 0.16638 0.916996
380 1 0.678716 0.0860527 0.917621
384 1 0.826244 0.0805475 0.91176
403 1 0.758051 0.162595 0.917252
25 1 0.99337 0.15241 0.993795
383 1 0.919753 0.00166174 0.925657
407 1 0.922489 0.164514 0.90949
386 1 0.0823387 0.246331 0.834942
392 1 0.161377 0.248184 0.912927
411 1 0.071221 0.332403 0.921325
26 1 0.0712464 0.250945 0.992236
29 1 0.165244 0.178301 0.988881
30 1 0.248376 0.25357 0.989748
390 1 0.252614 0.243611 0.836426
391 1 0.238578 0.167139 0.916964
415 1 0.244784 0.331233 0.910272
34 1 0.426687 0.239783 0.999856
396 1 0.339882 0.236851 0.919409
419 1 0.412954 0.318852 0.921691
400 1 0.499217 0.245227 0.919054
398 1 0.584442 0.25149 0.835459
423 1 0.592122 0.329153 0.929726
421 1 0.505842 0.327059 0.845193
38 1 0.588141 0.240628 0.98861
65 1 0.679289 0.33257 0.992182
42 1 0.756395 0.254541 0.99676
425 1 0.673599 0.326421 0.837071
404 1 0.674994 0.244854 0.906871
41 1 0.675775 0.169732 0.996327
46 1 0.934589 0.253305 0.98395
388 1 0.999546 0.245414 0.903112
408 1 0.834642 0.241534 0.913885
431 1 0.897971 0.332093 0.903188
50 1 0.083843 0.427415 0.999043
412 1 0.0108072 0.412053 0.91017
410 1 0.0817584 0.402582 0.837368
53 1 0.150349 0.338361 0.998638
417 1 0.320993 0.334825 0.837346
799 1 0.269534 0.493075 0.914393
416 1 0.176482 0.414235 0.900369
437 1 0.166768 0.486378 0.989804
797 1 0.180808 0.499852 0.835335
58 1 0.408402 0.409135 0.999675
803 1 0.416751 0.493864 0.907898
420 1 0.347377 0.409392 0.902736
445 1 0.494065 0.485845 0.983562
441 1 0.343898 0.495985 0.991485
422 1 0.587167 0.413214 0.849507
424 1 0.510269 0.403299 0.930235
809 1 0.681523 0.486007 0.835018
428 1 0.676707 0.420449 0.913408
427 1 0.769453 0.339956 0.913036
432 1 0.826467 0.424994 0.913721
49 1 0.995863 0.34044 0.999041
430 1 0.909026 0.416016 0.837009
433 1 0.989732 0.486116 0.985173
70 1 0.908616 0.404907 0.976088
440 1 0.154095 0.567416 0.0672978
459 1 0.0974767 0.666377 0.0906834
436 1 0.00783714 0.569054 0.0852717
434 1 0.0718944 0.566539 0.00092915
463 1 0.252239 0.652472 0.0718276
510 1 0.24739 0.584621 0.154119
444 1 0.33337 0.572964 0.0835515
448 1 0.489957 0.564678 0.0958804
467 1 0.410901 0.659045 0.0775726
442 1 0.424809 0.568045 0.00320941
465 1 0.336521 0.658842 0.00719664
446 1 0.578142 0.576052 0.00261121
471 1 0.569821 0.650251 0.0859141
452 1 0.654184 0.578275 0.0957116
545 1 0.656477 0.659166 0.162298
473 1 0.651428 0.65858 0.0116989
456 1 0.828095 0.592638 0.0796747
475 1 0.739233 0.659741 0.0799622
522 1 0.744892 0.579693 0.154168
450 1 0.741291 0.575576 0.0102944
526 1 0.921284 0.579828 0.165135
453 1 0.847677 0.513753 0.00198134
454 1 0.918546 0.589523 0.00929205
529 1 0.999482 0.654189 0.149432
455 1 0.910748 0.504829 0.0969483
530 1 0.0815431 0.742341 0.163633
460 1 0.00191964 0.759995 0.0893351
533 1 0.180118 0.677065 0.155306
464 1 0.168195 0.754896 0.0737343
534 1 0.250676 0.761272 0.164365
468 1 0.307593 0.752923 0.0790699
538 1 0.399321 0.746419 0.144083
472 1 0.491151 0.741977 0.0917366
565 1 0.494189 0.830351 0.162741
476 1 0.661319 0.747301 0.0835762
470 1 0.576571 0.74356 0.0051669
549 1 0.824898 0.671715 0.149736
480 1 0.828444 0.758594 0.0701194
546 1 0.749095 0.754739 0.15602
569 1 0.670489 0.824379 0.162507
499 1 0.74981 0.830116 0.0762815
497 1 0.666899 0.831339 0.00163502
479 1 0.897109 0.677069 0.0853378
457 1 0.995705 0.669061 0.0120311
503 1 0.922007 0.832614 0.0856671
550 1 0.907263 0.756798 0.15587
478 1 0.92178 0.750469 0.0146404
3 1 0.078781 0.997826 0.0854334
483 1 0.102388 0.840881 0.0691365
557 1 0.16071 0.839752 0.162164
553 1 0.0103446 0.840879 0.158714
487 1 0.255075 0.849777 0.0974403
488 1 0.168581 0.931152 0.0831988
486 1 0.251871 0.920829 0.0156247
561 1 0.342269 0.851518 0.162035
491 1 0.407697 0.835414 0.0715961
492 1 0.339668 0.918542 0.0771112
562 1 0.425708 0.928411 0.159363
496 1 0.495756 0.918857 0.0721594
81 1 0.334667 0.994138 0.160575
85 1 0.51492 0.995201 0.154585
495 1 0.566325 0.836458 0.0780648
500 1 0.660944 0.901798 0.0798682
566 1 0.579029 0.909289 0.158812
494 1 0.577846 0.917608 4.73428e-05
17 1 0.671571 0.987595 0.00922796
21 1 0.825423 0.989312 0.0169616
573 1 0.832638 0.839153 0.154915
570 1 0.747159 0.916477 0.158297
504 1 0.832703 0.901522 0.0728703
19 1 0.747091 0.999423 0.0997103
484 1 0.998107 0.920596 0.0788137
23 1 0.91772 0.995766 0.0980329
502 1 0.914359 0.910252 0.00604717
506 1 0.103829 0.584031 0.17954
508 1 0.00388347 0.593285 0.243398
578 1 0.0899033 0.585354 0.323516
512 1 0.187699 0.583727 0.243265
516 1 0.318736 0.588654 0.256564
605 1 0.169329 0.663007 0.329077
541 1 0.481983 0.661218 0.171305
514 1 0.411405 0.571187 0.174751
586 1 0.407176 0.588254 0.331531
520 1 0.491179 0.587358 0.261079
539 1 0.409222 0.664635 0.255669
515 1 0.413391 0.502145 0.251855
518 1 0.568616 0.577979 0.185481
590 1 0.590032 0.573233 0.318318
543 1 0.571313 0.65963 0.256129
521 1 0.651594 0.504108 0.17513
524 1 0.667939 0.57938 0.248727
547 1 0.751286 0.659403 0.234885
617 1 0.67993 0.660966 0.320777
528 1 0.825155 0.582909 0.23635
594 1 0.745789 0.587169 0.321728
577 1 0.998389 0.512886 0.330474
621 1 0.841406 0.659408 0.318994
527 1 0.919695 0.500646 0.242456
597 1 0.836851 0.507033 0.33283
531 1 0.0791801 0.668633 0.241964
555 1 0.0972924 0.813151 0.250672
625 1 0.012233 0.816629 0.328786
537 1 0.325009 0.666737 0.167188
535 1 0.245767 0.666821 0.250806
536 1 0.177412 0.749186 0.252081
540 1 0.326894 0.735319 0.246447
613 1 0.487026 0.685512 0.328616
544 1 0.480315 0.745743 0.230154
542 1 0.590416 0.737797 0.17251
614 1 0.586972 0.739646 0.333176
548 1 0.669663 0.738385 0.251954
571 1 0.729332 0.833162 0.251111
618 1 0.767736 0.744254 0.309621
551 1 0.911146 0.673043 0.226259
552 1 0.834969 0.748237 0.226912
532 1 0.997971 0.746683 0.224082
575 1 0.91793 0.816314 0.245528
622 1 0.91166 0.746753 0.328763
645 1 0.833741 0.828157 0.306703
601 1 0.993488 0.674242 0.313918
554 1 0.080284 0.924284 0.172255
626 1 0.076921 0.90486 0.332396
560 1 0.162001 0.912961 0.250589
556 1 0.00205103 0.911605 0.240259
558 1 0.259887 0.925031 0.176891
559 1 0.245028 0.836046 0.248356
563 1 0.422791 0.835182 0.248668
633 1 0.33355 0.836544 0.326944
634 1 0.411016 0.932884 0.331939
564 1 0.338481 0.920294 0.255181
83 1 0.41778 0.994986 0.243365
567 1 0.59123 0.840246 0.249583
638 1 0.590122 0.928255 0.333171
568 1 0.506439 0.906313 0.263492
572 1 0.66276 0.924736 0.242997
157 1 0.504028 0.996158 0.32504
91 1 0.746825 0.982309 0.243848
642 1 0.762596 0.907833 0.32643
95 1 0.919694 0.993429 0.234912
574 1 0.921993 0.900718 0.167082
576 1 0.841473 0.927687 0.256032
646 1 0.931106 0.919493 0.32753
603 1 0.072843 0.653487 0.412875
677 1 0.162218 0.659036 0.495817
580 1 0.000725512 0.56954 0.417704
673 1 0.00827615 0.654092 0.495315
582 1 0.239409 0.567415 0.339675
584 1 0.16945 0.578204 0.414823
654 1 0.244567 0.56912 0.487738
607 1 0.251942 0.664273 0.423336
588 1 0.322859 0.577743 0.410816
658 1 0.427049 0.578233 0.4908
587 1 0.415974 0.502994 0.412026
681 1 0.349407 0.658714 0.495383
592 1 0.503866 0.592024 0.395712
662 1 0.586453 0.584761 0.479112
596 1 0.663021 0.584387 0.398866
665 1 0.653052 0.5022 0.488959
666 1 0.741259 0.588557 0.483043
600 1 0.819077 0.594331 0.401267
619 1 0.73721 0.660721 0.406397
599 1 0.908482 0.512813 0.413163
693 1 0.839163 0.663389 0.491985
623 1 0.925305 0.663438 0.413072
598 1 0.92577 0.58501 0.334971
670 1 0.91178 0.588922 0.49577
629 1 0.161377 0.821986 0.348311
602 1 0.0829715 0.740401 0.334687
627 1 0.0798198 0.827628 0.425393
608 1 0.157626 0.729141 0.422197
606 1 0.262913 0.754645 0.33755
612 1 0.32956 0.746946 0.4236
609 1 0.335776 0.667543 0.338366
610 1 0.41054 0.758769 0.335563
709 1 0.493221 0.827855 0.484633
611 1 0.417956 0.676447 0.407295
635 1 0.401791 0.833026 0.419133
682 1 0.422177 0.749298 0.493831
686 1 0.600012 0.754092 0.49422
685 1 0.500008 0.669924 0.495214
637 1 0.520723 0.827686 0.338619
641 1 0.663768 0.82291 0.342917
615 1 0.588532 0.671829 0.414134
616 1 0.503867 0.74497 0.41281
624 1 0.818547 0.743434 0.402132
620 1 0.672166 0.74821 0.420266
643 1 0.755434 0.823634 0.408605
690 1 0.758933 0.741018 0.490758
647 1 0.921782 0.833154 0.397191
694 1 0.905843 0.755486 0.465423
604 1 0.99919 0.750997 0.407219
628 1 0.00398003 0.930735 0.412953
698 1 0.0871397 0.915034 0.485827
630 1 0.250344 0.92435 0.336559
221 1 0.181954 0.997666 0.499506
702 1 0.242889 0.914611 0.484679
632 1 0.170924 0.908869 0.408212
631 1 0.258166 0.83469 0.402527
705 1 0.323623 0.839286 0.494554
636 1 0.332758 0.929074 0.407956
710 1 0.575174 0.914759 0.492927
639 1 0.585604 0.840493 0.414494
640 1 0.501848 0.917883 0.420631
713 1 0.677981 0.840105 0.492931
714 1 0.760826 0.919237 0.478303
644 1 0.683097 0.913896 0.407873
717 1 0.838479 0.839202 0.491135
648 1 0.850575 0.914299 0.401177
718 1 0.934741 0.902142 0.484654
237 1 0.852684 0.974053 0.494254
652 1 0.00529242 0.578265 0.586826
650 1 0.085157 0.574779 0.50246
675 1 0.0667441 0.663237 0.586413
749 1 0.162156 0.666351 0.666158
722 1 0.0850753 0.586639 0.665247
651 1 0.0887576 0.501881 0.592328
656 1 0.173229 0.57538 0.581297
726 1 0.264819 0.579775 0.664834
660 1 0.322522 0.586527 0.576019
679 1 0.247257 0.665382 0.575218
655 1 0.252709 0.501202 0.579096
730 1 0.426049 0.578245 0.659635
683 1 0.42061 0.665553 0.58143
729 1 0.339915 0.50259 0.666131
657 1 0.33882 0.504678 0.503993
659 1 0.425596 0.504636 0.575147
663 1 0.571537 0.502231 0.563558
664 1 0.507484 0.591193 0.577345
734 1 0.598064 0.573063 0.654285
757 1 0.506707 0.656051 0.661099
668 1 0.675667 0.57697 0.573266
738 1 0.761296 0.578613 0.649235
671 1 0.917565 0.508738 0.580691
672 1 0.833854 0.57431 0.58002
695 1 0.917307 0.662349 0.58065
765 1 0.838283 0.655218 0.658792
745 1 0.00140812 0.667151 0.662805
680 1 0.159494 0.742747 0.579725
674 1 0.0760746 0.737873 0.509474
746 1 0.0820896 0.756737 0.663351
697 1 0.0140704 0.821802 0.507176
678 1 0.248858 0.745989 0.503861
703 1 0.242688 0.816076 0.601422
753 1 0.326157 0.671022 0.653282
684 1 0.328714 0.741079 0.570823
777 1 0.329774 0.829946 0.665201
701 1 0.168962 0.82559 0.505015
754 1 0.419101 0.75401 0.664056
707 1 0.407062 0.826414 0.574818
687 1 0.580009 0.668662 0.576762
688 1 0.506262 0.74637 0.579626
711 1 0.58668 0.823354 0.573639
758 1 0.579195 0.742201 0.66248
689 1 0.670664 0.667453 0.504455
692 1 0.676106 0.747809 0.577223
691 1 0.749721 0.672166 0.592663
715 1 0.752117 0.827957 0.587941
676 1 0.991833 0.740616 0.577865
696 1 0.84482 0.752201 0.57206
719 1 0.928698 0.830737 0.566033
699 1 0.0867615 0.841446 0.581257
700 1 0.0129196 0.913992 0.56291
773 1 0.164204 0.837223 0.658424
289 1 0.0180689 0.999437 0.660969
769 1 0.0157879 0.836206 0.651979
219 1 0.0924651 0.998148 0.580281
704 1 0.167662 0.912098 0.575958
774 1 0.256007 0.909435 0.662214
708 1 0.32966 0.909149 0.577071
225 1 0.318661 0.998264 0.503624
227 1 0.423565 0.99431 0.590406
301 1 0.499129 0.993235 0.659561
712 1 0.499494 0.911033 0.575909
781 1 0.49686 0.836924 0.655805
778 1 0.404421 0.908045 0.664225
706 1 0.418976 0.923428 0.501266
782 1 0.579421 0.910146 0.655138
235 1 0.756953 0.996788 0.585509
716 1 0.671668 0.91149 0.573054
233 1 0.66922 0.997301 0.500549
309 1 0.859038 0.991347 0.659297
720 1 0.838792 0.911219 0.586039
790 1 0.923375 0.901517 0.656588
239 1 0.926991 0.986412 0.580135
794 1 0.0826182 0.578609 0.833243
728 1 0.165657 0.585678 0.751632
724 1 0.00146108 0.572491 0.750861
723 1 0.0889966 0.506605 0.748893
721 1 0.012108 0.500363 0.668807
725 1 0.159866 0.511977 0.670563
727 1 0.253515 0.504015 0.742942
751 1 0.244968 0.660015 0.743935
732 1 0.330426 0.575825 0.75134
798 1 0.255812 0.58391 0.831015
755 1 0.419287 0.666516 0.735681
801 1 0.343406 0.503303 0.819084
802 1 0.409066 0.592388 0.825018
731 1 0.41846 0.501238 0.744886
761 1 0.665199 0.655752 0.67805
736 1 0.500695 0.571765 0.748943
759 1 0.571637 0.661233 0.758548
805 1 0.506561 0.500929 0.82819
735 1 0.595922 0.504588 0.75308
740 1 0.678616 0.577417 0.755828
763 1 0.759286 0.658838 0.730167
837 1 0.8191 0.659801 0.83227
744 1 0.832438 0.579738 0.748199
833 1 0.679268 0.663892 0.832909
742 1 0.932906 0.587193 0.669202
743 1 0.915635 0.507613 0.747679
767 1 0.92231 0.664778 0.747937
741 1 0.84269 0.508805 0.667555
747 1 0.0786794 0.674549 0.737959
748 1 0.00441623 0.763261 0.75702
818 1 0.0883578 0.74743 0.830613
752 1 0.161731 0.744025 0.749197
825 1 0.324746 0.677443 0.832174
750 1 0.256244 0.743608 0.679936
775 1 0.240799 0.832395 0.732813
822 1 0.248515 0.754878 0.818518
756 1 0.342846 0.748484 0.742125
779 1 0.417545 0.832156 0.752452
857 1 0.666487 0.819982 0.829424
760 1 0.508009 0.743755 0.737998
764 1 0.662158 0.734963 0.753294
783 1 0.584966 0.825023 0.737662
853 1 0.500304 0.82649 0.826158
830 1 0.581436 0.744645 0.828909
762 1 0.748954 0.741352 0.673896
785 1 0.673874 0.833194 0.669584
787 1 0.748566 0.832227 0.753471
834 1 0.756432 0.753768 0.818037
789 1 0.826198 0.812878 0.66826
766 1 0.922695 0.745136 0.667178
768 1 0.839486 0.735179 0.749081
838 1 0.913484 0.731858 0.832713
861 1 0.842499 0.824317 0.82172
291 1 0.0764629 0.99578 0.760501
771 1 0.0980737 0.839518 0.760116
770 1 0.0942315 0.915627 0.667118
772 1 0.00841112 0.909346 0.736582
776 1 0.158501 0.930633 0.742965
365 1 0.163316 0.989638 0.830227
295 1 0.25053 0.988816 0.738179
780 1 0.329876 0.915458 0.756305
299 1 0.432662 0.988739 0.744877
303 1 0.570183 0.987273 0.762789
784 1 0.50174 0.901981 0.737706
788 1 0.661952 0.905278 0.758496
307 1 0.746768 0.987219 0.750192
786 1 0.763438 0.914735 0.668624
858 1 0.748733 0.902547 0.832171
305 1 0.66668 0.986122 0.671896
311 1 0.916576 0.988629 0.740094
841 1 0.996847 0.845719 0.82586
791 1 0.915588 0.833435 0.745999
792 1 0.836087 0.914794 0.749663
862 1 0.910744 0.911287 0.826784
361 1 0.995374 0.988046 0.820729
796 1 0.00398942 0.568088 0.91759
795 1 0.0903217 0.500431 0.913084
819 1 0.0799134 0.656869 0.927196
438 1 0.257766 0.573021 0.997822
800 1 0.167278 0.58018 0.916709
804 1 0.330438 0.582893 0.923111
823 1 0.251048 0.666044 0.91755
461 1 0.172266 0.663131 0.997436
827 1 0.417821 0.663344 0.909397
808 1 0.492063 0.584278 0.908859
469 1 0.49316 0.663992 0.993868
806 1 0.590114 0.566572 0.835283
831 1 0.596294 0.649707 0.903807
812 1 0.662392 0.5696 0.929623
807 1 0.579267 0.500299 0.916757
811 1 0.750575 0.505826 0.918483
810 1 0.747433 0.581363 0.842173
816 1 0.828254 0.585358 0.91972
477 1 0.828231 0.656005 0.995566
813 1 0.827884 0.512484 0.837184
839 1 0.924525 0.662173 0.935159
815 1 0.918389 0.500918 0.904471
817 1 0.997359 0.664332 0.843913
814 1 0.90587 0.604212 0.834603
458 1 0.0955309 0.735822 0.99813
843 1 0.0877446 0.829899 0.91027
824 1 0.163241 0.752833 0.912957
489 1 0.325244 0.829697 0.999355
847 1 0.256493 0.828331 0.906947
462 1 0.242527 0.747045 0.999103
821 1 0.176577 0.670045 0.836182
828 1 0.324746 0.745551 0.927111
849 1 0.336903 0.82759 0.838136
851 1 0.405806 0.823973 0.924275
466 1 0.409823 0.741103 0.992869
493 1 0.490198 0.82036 0.995263
826 1 0.418487 0.748276 0.841793
829 1 0.49978 0.667339 0.837844
855 1 0.575342 0.824173 0.901008
832 1 0.503238 0.740933 0.915534
836 1 0.662719 0.747278 0.914131
474 1 0.73345 0.743336 0.999458
835 1 0.750638 0.67629 0.920123
859 1 0.746188 0.818687 0.920995
840 1 0.838052 0.747238 0.913674
863 1 0.915474 0.828126 0.920335
820 1 0.992786 0.750996 0.939523
363 1 0.0824607 0.995511 0.910551
842 1 0.0752814 0.913865 0.836738
482 1 0.081822 0.927872 0.989263
481 1 0.0122601 0.837549 0.998298
485 1 0.179014 0.839888 0.994051
848 1 0.172391 0.911587 0.922303
846 1 0.267176 0.941971 0.83843
845 1 0.186592 0.850877 0.836241
850 1 0.431347 0.906353 0.843899
852 1 0.338394 0.924109 0.912371
490 1 0.420321 0.932074 0.997698
860 1 0.652572 0.904355 0.912849
856 1 0.502577 0.927878 0.921424
854 1 0.572138 0.910711 0.837721
377 1 0.670178 0.995393 0.835576
379 1 0.760777 0.992677 0.923131
501 1 0.830561 0.837265 0.990506
498 1 0.74566 0.911276 0.990495
864 1 0.839874 0.916043 0.916368
844 1 0.994608 0.918396 0.911449
