ITEM: TIMESTEP
14750
ITEM: NUMBER OF ATOMS
864
ITEM: BOX BOUNDS pp pp pp
0.0000000000000000e+00 3.1559999999999999e+01
0.0000000000000000e+00 3.1559999999999999e+01
0.0000000000000000e+00 3.1559999999999999e+01
ITEM: ATOMS id type xs ys zs
8 1 0.167442 0.0935517 0.088745
69 1 0.823083 0.353253 0.00436235
3 1 0.0779984 0.00758184 0.0911012
34 1 0.402876 0.257971 0.00708568
253 1 0.495345 0.171885 0.497726
78 1 0.234382 0.0937628 0.175265
249 1 0.321795 0.175902 0.489325
87 1 0.569137 0.00366996 0.248968
12 1 0.332539 0.090434 0.0939364
16 1 0.500778 0.0912812 0.0783114
213 1 0.829643 0.32194 0.343299
105 1 0.317205 0.182324 0.176221
277 1 0.501334 0.34217 0.495376
81 1 0.324272 0.0131196 0.173249
20 1 0.670734 0.0895149 0.0843607
19 1 0.741696 0.0165205 0.0920301
14 1 0.580352 0.0951471 0.00663449
24 1 0.826778 0.0895526 0.0926038
11 1 0.407648 0.0172323 0.0941462
9 1 0.333416 0.00881425 0.00267915
4 1 0.991948 0.0902384 0.0842608
159 1 0.582884 0.000854697 0.422479
22 1 0.91413 0.0782036 0.0166447
527 1 0.906637 0.496907 0.276272
27 1 0.0796117 0.174072 0.0756389
98 1 0.0711376 0.251395 0.175296
145 1 0.0015077 0.00117712 0.323626
451 1 0.741638 0.489148 0.104988
95 1 0.91051 0.0172981 0.259054
30 1 0.267624 0.278334 0.00376194
75 1 0.0814231 0.0136081 0.246088
32 1 0.176242 0.256442 0.0741976
31 1 0.241023 0.181013 0.0976801
55 1 0.244529 0.340871 0.0865814
35 1 0.405643 0.177552 0.0812628
36 1 0.323794 0.25629 0.0942496
41 1 0.657245 0.196788 0.011813
73 1 0.997521 0.0104747 0.164828
39 1 0.574883 0.16711 0.0819387
54 1 0.255812 0.427507 0.00881489
40 1 0.495008 0.246142 0.0993044
43 1 0.750683 0.163316 0.0963188
44 1 0.64844 0.263704 0.0964072
58 1 0.426641 0.430285 0.0220547
47 1 0.902247 0.162117 0.0939291
28 1 0.00269707 0.262194 0.0867575
48 1 0.825925 0.248307 0.100661
234 1 0.746505 0.0854416 0.491404
49 1 0.00565922 0.345466 0.0218112
51 1 0.101024 0.349201 0.0935458
216 1 0.831125 0.43149 0.425346
56 1 0.173686 0.434839 0.085004
62 1 0.579108 0.415618 0.0120099
60 1 0.33182 0.413317 0.112342
77 1 0.163762 0.010856 0.165918
242 1 0.0852607 0.245936 0.499206
85 1 0.501912 0.00524457 0.157812
59 1 0.427514 0.334313 0.103181
61 1 0.491426 0.327607 0.0183715
63 1 0.574148 0.328033 0.0837551
66 1 0.743252 0.419068 0.0181463
64 1 0.502352 0.412634 0.0962647
133 1 0.506333 0.342858 0.185478
29 1 0.172266 0.182562 0.00435696
68 1 0.650749 0.424763 0.108887
67 1 0.740054 0.334229 0.100522
65 1 0.665499 0.342292 0.0115734
52 1 0.00234859 0.424073 0.098059
72 1 0.829668 0.426916 0.1097
71 1 0.895659 0.334575 0.102786
142 1 0.915831 0.427605 0.19099
74 1 0.0829033 0.0922396 0.161926
99 1 0.0795813 0.16903 0.250064
93 1 0.827077 0.0212008 0.190069
250 1 0.422993 0.262662 0.493248
80 1 0.148828 0.0884327 0.259718
84 1 0.322906 0.092453 0.252913
1 1 0.995387 0.00516141 0.000546752
82 1 0.402473 0.0983886 0.177165
57 1 0.347585 0.348623 0.0181147
86 1 0.566877 0.0844702 0.162387
88 1 0.489701 0.0739628 0.251294
158 1 0.591798 0.0778072 0.346171
90 1 0.73423 0.0814247 0.182553
92 1 0.660222 0.074613 0.258892
278 1 0.567556 0.435443 0.484462
281 1 0.652387 0.345927 0.485216
96 1 0.825048 0.0971457 0.274115
94 1 0.912558 0.0859138 0.17171
76 1 0.998631 0.0853049 0.249538
215 1 0.911954 0.331212 0.426392
166 1 0.916535 0.0832981 0.347535
100 1 0.996376 0.24446 0.256032
104 1 0.151112 0.252586 0.26264
101 1 0.15923 0.177577 0.170861
102 1 0.239242 0.261197 0.171321
103 1 0.229634 0.175876 0.252598
174 1 0.233872 0.261585 0.339976
108 1 0.329665 0.251284 0.256642
106 1 0.40552 0.260408 0.170068
107 1 0.397171 0.170559 0.255043
112 1 0.490606 0.253594 0.262226
177 1 0.320481 0.172897 0.331372
109 1 0.487601 0.158909 0.178588
110 1 0.576026 0.243274 0.1909
111 1 0.56877 0.149242 0.24968
181 1 0.501018 0.146147 0.328696
182 1 0.581612 0.24921 0.342415
114 1 0.735951 0.234811 0.181791
113 1 0.646389 0.164766 0.167442
116 1 0.669893 0.23776 0.26592
115 1 0.736226 0.161788 0.249435
185 1 0.658138 0.156584 0.341707
117 1 0.834621 0.16362 0.179768
97 1 0.0034627 0.168584 0.171998
120 1 0.824959 0.24161 0.261952
118 1 0.9145 0.241065 0.190776
119 1 0.917809 0.164489 0.268349
125 1 0.154342 0.324093 0.182704
122 1 0.0747737 0.419082 0.175344
123 1 0.0733245 0.335733 0.27584
124 1 0.988671 0.41248 0.268212
128 1 0.154514 0.41636 0.244709
126 1 0.247737 0.410769 0.187944
127 1 0.23315 0.329671 0.262586
131 1 0.400691 0.349729 0.286197
129 1 0.323802 0.337499 0.198274
132 1 0.324658 0.439452 0.262225
130 1 0.415776 0.424537 0.20607
136 1 0.493823 0.428161 0.266979
42 1 0.736808 0.253937 0.00515374
134 1 0.579819 0.428578 0.192494
135 1 0.571177 0.344293 0.261631
140 1 0.670822 0.42612 0.26866
137 1 0.658671 0.314611 0.190238
141 1 0.815463 0.338146 0.172313
210 1 0.757635 0.408373 0.343306
139 1 0.756761 0.336384 0.26227
138 1 0.731276 0.413473 0.184595
121 1 0.986875 0.349482 0.175811
193 1 0.995039 0.311689 0.342481
143 1 0.896938 0.336321 0.258166
144 1 0.831663 0.420428 0.252153
50 1 0.101703 0.413152 0.00027914
211 1 0.752815 0.330208 0.420731
146 1 0.0759413 0.0766237 0.347455
152 1 0.144282 0.0751408 0.423848
171 1 0.0796984 0.167642 0.427755
6 1 0.245859 0.0953974 0.00481043
153 1 0.329488 0.0156265 0.327224
150 1 0.238439 0.0959488 0.337867
151 1 0.239938 0.019937 0.409149
10 1 0.418658 0.0900748 0.00697804
53 1 0.174896 0.338833 0.00702701
154 1 0.415021 0.0756323 0.332452
156 1 0.341133 0.0829439 0.419744
5 1 0.163802 0.0172127 0.00920179
79 1 0.232609 0.0146908 0.252035
160 1 0.490194 0.0716361 0.416479
164 1 0.661568 0.0725212 0.427013
162 1 0.742927 0.0906771 0.350004
2 1 0.0742891 0.089129 0.00769195
168 1 0.845191 0.0909425 0.421868
187 1 0.755477 0.168889 0.4288
33 1 0.320586 0.177933 0.00912494
70 1 0.917275 0.405511 0.0257355
148 1 0.00729211 0.0786321 0.433617
214 1 0.914786 0.424731 0.359231
170 1 0.0679751 0.246276 0.342965
173 1 0.149683 0.16605 0.353096
176 1 0.162685 0.252514 0.428558
15 1 0.586098 0.0199618 0.0827501
175 1 0.240792 0.176244 0.411901
199 1 0.237639 0.333046 0.430888
178 1 0.403472 0.243954 0.332644
179 1 0.419644 0.163862 0.413115
180 1 0.332269 0.252433 0.426772
7 1 0.25066 0.00706403 0.0795904
184 1 0.499904 0.252404 0.414467
183 1 0.582235 0.163518 0.424651
207 1 0.578664 0.35068 0.404673
46 1 0.917657 0.247152 0.0246792
188 1 0.650297 0.25293 0.430053
186 1 0.749553 0.242101 0.34447
192 1 0.833138 0.245283 0.434251
189 1 0.840513 0.166146 0.351683
169 1 0.00126087 0.151389 0.343364
190 1 0.913882 0.248909 0.340609
38 1 0.567589 0.246973 0.0110044
172 1 0.995458 0.24623 0.426678
191 1 0.930961 0.163265 0.41938
194 1 0.0983799 0.43741 0.325968
196 1 0.0337084 0.423825 0.417136
45 1 0.822808 0.197293 0.000354272
197 1 0.154428 0.335528 0.355777
195 1 0.0779263 0.328397 0.424195
200 1 0.156163 0.420034 0.436856
433 1 0.99177 0.487343 0.0142696
201 1 0.309278 0.341304 0.356314
198 1 0.243148 0.421464 0.333451
202 1 0.386155 0.432531 0.35495
203 1 0.40084 0.336985 0.413275
204 1 0.313254 0.414684 0.438491
206 1 0.580137 0.429037 0.336285
212 1 0.668218 0.425538 0.404024
208 1 0.486431 0.424409 0.404381
205 1 0.49268 0.331916 0.334506
209 1 0.671423 0.328374 0.340133
167 1 0.917047 0.0028509 0.426846
165 1 0.820313 0.00961543 0.340682
505 1 0.993051 0.496117 0.178511
441 1 0.344394 0.492317 0.0141377
37 1 0.497245 0.173364 0.00717143
25 1 0.995562 0.17437 0.00653481
157 1 0.493082 0.000275283 0.333721
583 1 0.24997 0.499843 0.417328
449 1 0.662364 0.499753 0.0151217
455 1 0.905168 0.499929 0.0842735
218 1 0.0833901 0.0850177 0.506001
239 1 0.900096 0.00101813 0.589852
241 1 0.00576062 0.169824 0.508893
224 1 0.149738 0.084345 0.597898
223 1 0.246957 0.0159726 0.595438
729 1 0.341216 0.49891 0.678026
228 1 0.336338 0.0917697 0.590566
230 1 0.570393 0.0924854 0.501689
222 1 0.237843 0.0945826 0.50838
226 1 0.403781 0.0794777 0.5065
432 1 0.82451 0.414876 0.916606
232 1 0.491132 0.0953388 0.589574
251 1 0.412399 0.178616 0.583107
245 1 0.147596 0.171866 0.516531
266 1 0.0832584 0.429242 0.513677
307 1 0.746459 0.0114807 0.757338
302 1 0.588198 0.0954679 0.65524
367 1 0.245536 0.00542745 0.922418
236 1 0.666196 0.0948709 0.574051
273 1 0.3085 0.323028 0.509656
240 1 0.835431 0.0880326 0.584269
220 1 0.998489 0.0825123 0.589578
313 1 0.995223 0.154048 0.681449
795 1 0.0778959 0.491832 0.934458
243 1 0.0690974 0.169698 0.592932
267 1 0.081168 0.343305 0.592322
258 1 0.745819 0.25807 0.501994
303 1 0.583629 0.00516693 0.755568
247 1 0.235359 0.164143 0.592014
248 1 0.149055 0.261159 0.591146
252 1 0.31928 0.241924 0.57954
246 1 0.231455 0.240826 0.512835
261 1 0.843979 0.170554 0.507109
322 1 0.420273 0.253399 0.668654
255 1 0.577461 0.176508 0.570044
256 1 0.49025 0.262343 0.578444
279 1 0.576018 0.347038 0.579354
286 1 0.91397 0.414735 0.500185
259 1 0.743014 0.178911 0.576962
260 1 0.651505 0.270028 0.576347
264 1 0.833668 0.249152 0.58213
283 1 0.738416 0.336847 0.570009
330 1 0.7375 0.269168 0.664322
353 1 0.654208 0.349802 0.656421
428 1 0.655913 0.424804 0.919969
244 1 0.00417029 0.263379 0.57613
263 1 0.923726 0.167561 0.600571
287 1 0.896439 0.337051 0.588533
334 1 0.913949 0.266812 0.670394
272 1 0.166847 0.426395 0.591903
663 1 0.592526 0.488383 0.586887
269 1 0.15834 0.340887 0.511586
375 1 0.582365 0.0127883 0.921318
271 1 0.234963 0.325859 0.592266
725 1 0.167653 0.494251 0.675338
276 1 0.324812 0.405322 0.578275
342 1 0.248182 0.420463 0.662868
299 1 0.430058 0.00543957 0.758157
427 1 0.748936 0.339893 0.93975
383 1 0.900286 0.00714061 0.914752
275 1 0.419728 0.339442 0.584872
412 1 0.000884791 0.408294 0.932908
270 1 0.240519 0.419554 0.507679
346 1 0.41237 0.418965 0.667891
257 1 0.655761 0.164147 0.501882
18 1 0.751881 0.108818 0.991033
280 1 0.505152 0.432218 0.578285
349 1 0.491888 0.33094 0.667056
350 1 0.573116 0.416888 0.667219
262 1 0.923151 0.246284 0.507538
409 1 0.00264272 0.34059 0.841229
371 1 0.421087 0.00722984 0.925093
284 1 0.669004 0.416328 0.578156
354 1 0.738268 0.433013 0.666194
26 1 0.0807316 0.262266 0.991962
268 1 0.986912 0.415276 0.586305
288 1 0.829722 0.411019 0.572911
337 1 0.99589 0.330107 0.674673
671 1 0.911272 0.495349 0.599731
231 1 0.58264 0.00160364 0.590112
291 1 0.0784391 0.0151049 0.764867
290 1 0.0750556 0.0813255 0.666174
296 1 0.165925 0.0966312 0.758278
292 1 0.995257 0.0943179 0.763409
294 1 0.245379 0.0886007 0.676477
300 1 0.324755 0.107606 0.746171
321 1 0.317134 0.173894 0.655213
298 1 0.419995 0.0882969 0.672415
304 1 0.514229 0.0988056 0.776299
325 1 0.496259 0.175234 0.67329
301 1 0.502572 0.0209438 0.676737
308 1 0.661738 0.0877311 0.736622
327 1 0.574847 0.174652 0.750692
374 1 0.598888 0.111877 0.838238
227 1 0.426783 0.0037517 0.584595
731 1 0.414785 0.49446 0.759353
306 1 0.736897 0.0972663 0.648865
312 1 0.819313 0.0917963 0.745406
809 1 0.654541 0.4967 0.824501
793 1 0.993627 0.499707 0.836823
310 1 0.916068 0.0902214 0.68458
311 1 0.907863 0.00166417 0.751482
314 1 0.0755912 0.255025 0.669908
315 1 0.07342 0.161584 0.762963
320 1 0.165309 0.242033 0.75663
341 1 0.177006 0.332738 0.680267
317 1 0.170754 0.168258 0.679223
319 1 0.249173 0.18036 0.765558
318 1 0.243505 0.246963 0.669986
389 1 0.161222 0.176241 0.842565
390 1 0.264202 0.249259 0.842029
324 1 0.338637 0.245706 0.745883
323 1 0.430006 0.156049 0.760335
328 1 0.495179 0.263148 0.763002
417 1 0.329907 0.342573 0.840252
397 1 0.498159 0.169309 0.855386
326 1 0.572791 0.268097 0.671812
332 1 0.658678 0.277153 0.746407
425 1 0.654844 0.338167 0.841849
329 1 0.657581 0.190586 0.657929
331 1 0.745674 0.187037 0.750404
333 1 0.831781 0.173329 0.657457
336 1 0.825162 0.257042 0.74017
335 1 0.903516 0.180752 0.768733
316 1 0.983272 0.247373 0.763469
799 1 0.250116 0.497626 0.920817
339 1 0.0712473 0.329913 0.745085
338 1 0.0827321 0.424712 0.688363
429 1 0.839736 0.339932 0.825354
219 1 0.0756182 0.00325292 0.590953
343 1 0.258264 0.339362 0.763918
344 1 0.178021 0.422112 0.758405
345 1 0.335232 0.33213 0.664052
348 1 0.327653 0.413973 0.750913
418 1 0.407455 0.413165 0.839995
347 1 0.406766 0.349989 0.757673
352 1 0.502254 0.42787 0.746113
426 1 0.740616 0.425118 0.848787
423 1 0.558169 0.342448 0.933282
351 1 0.576646 0.34057 0.751017
356 1 0.648354 0.421577 0.761038
422 1 0.564529 0.414984 0.844704
421 1 0.490147 0.351035 0.831757
355 1 0.733277 0.357783 0.748995
430 1 0.91817 0.42253 0.852792
359 1 0.920301 0.342634 0.755312
357 1 0.827498 0.335892 0.667692
358 1 0.906847 0.420449 0.674752
340 1 0.997874 0.436907 0.752774
360 1 0.827743 0.43435 0.743848
361 1 0.982508 0.00588053 0.841701
362 1 0.0653959 0.0889217 0.851789
363 1 0.0676993 0.00748671 0.923511
365 1 0.156626 0.00150487 0.839552
368 1 0.151169 0.100564 0.924392
366 1 0.239053 0.0877859 0.852757
372 1 0.328586 0.0852458 0.921261
21 1 0.834348 0.00236217 0.997648
265 1 0.9935 0.344806 0.50146
295 1 0.252583 0.0148111 0.760448
370 1 0.422987 0.0926527 0.861339
659 1 0.407097 0.495765 0.585637
369 1 0.334955 0.0329447 0.828904
376 1 0.506531 0.0835371 0.92826
380 1 0.660235 0.104517 0.916466
377 1 0.668933 0.0209868 0.842218
381 1 0.829413 0.0133339 0.838251
379 1 0.747824 0.0240043 0.913899
378 1 0.742388 0.105478 0.838207
403 1 0.73943 0.185023 0.905148
384 1 0.834412 0.0873354 0.919957
13 1 0.495108 0.000342369 0.999041
364 1 0.979686 0.0823245 0.921115
382 1 0.908108 0.0965128 0.82709
387 1 0.0645562 0.178425 0.915544
385 1 0.987708 0.169236 0.849374
386 1 0.0688471 0.251959 0.841315
388 1 0.980912 0.256568 0.935646
411 1 0.0969598 0.336005 0.916231
391 1 0.247276 0.164803 0.917265
392 1 0.187702 0.260362 0.923419
396 1 0.339994 0.268964 0.91917
274 1 0.403226 0.422015 0.506732
393 1 0.340958 0.154379 0.840937
419 1 0.429377 0.355699 0.928543
395 1 0.399727 0.168328 0.931068
394 1 0.399762 0.250178 0.83565
297 1 0.33506 0.0218336 0.68031
401 1 0.662116 0.200167 0.835358
399 1 0.579374 0.177254 0.93144
400 1 0.467038 0.252017 0.924113
398 1 0.572267 0.269045 0.843108
404 1 0.66394 0.276462 0.930061
221 1 0.162659 0.0116292 0.519972
229 1 0.501908 0.0125073 0.515219
402 1 0.758241 0.278622 0.840239
405 1 0.836711 0.187208 0.852125
408 1 0.829906 0.270035 0.921179
431 1 0.916011 0.342469 0.937466
407 1 0.904904 0.185722 0.934117
406 1 0.915791 0.269796 0.841409
413 1 0.16948 0.333063 0.840611
416 1 0.175576 0.418349 0.91582
410 1 0.0854898 0.438081 0.817615
309 1 0.814156 0.00606995 0.669465
17 1 0.675299 0.0153074 0.997733
414 1 0.251369 0.427723 0.838897
420 1 0.339167 0.42202 0.929806
415 1 0.26094 0.353094 0.91628
651 1 0.0851947 0.493139 0.599193
285 1 0.833878 0.329084 0.503944
424 1 0.49743 0.43455 0.936739
217 1 0.985218 0.00472256 0.516739
801 1 0.337445 0.499637 0.832734
254 1 0.571002 0.248947 0.502494
815 1 0.913429 0.475867 0.940179
373 1 0.509133 0.00811529 0.838555
238 1 0.922671 0.0849793 0.503023
282 1 0.739635 0.424367 0.501303
436 1 0.987631 0.58449 0.0760894
507 1 0.081664 0.505471 0.254694
506 1 0.0823139 0.586617 0.169268
709 1 0.489781 0.830846 0.493931
599 1 0.909833 0.504785 0.429655
440 1 0.159653 0.600621 0.0923517
450 1 0.753274 0.582034 0.0139564
537 1 0.310388 0.666312 0.164541
585 1 0.323764 0.518833 0.335328
444 1 0.324011 0.582856 0.0859204
448 1 0.505833 0.593882 0.0945044
467 1 0.381943 0.679169 0.0786108
445 1 0.50016 0.506693 0.0175477
442 1 0.405313 0.586608 0.0132057
647 1 0.919969 0.84441 0.422284
452 1 0.669399 0.591138 0.0797555
511 1 0.250748 0.512272 0.248975
83 1 0.415264 0.999161 0.240447
473 1 0.66762 0.672508 0.00818701
456 1 0.839636 0.581294 0.0903977
589 1 0.489333 0.514428 0.346992
522 1 0.749785 0.585116 0.162784
702 1 0.22868 0.930351 0.490357
479 1 0.930108 0.6812 0.0878438
673 1 0.00665822 0.668518 0.496695
447 1 0.575685 0.507949 0.0896543
526 1 0.927156 0.59514 0.167045
459 1 0.0734267 0.665411 0.0935679
644 1 0.662811 0.907516 0.419932
463 1 0.247487 0.66143 0.0733901
464 1 0.163332 0.767461 0.0753112
468 1 0.298835 0.768139 0.0833391
648 1 0.84726 0.929276 0.420285
561 1 0.319341 0.84592 0.159448
472 1 0.4816 0.73705 0.0837974
490 1 0.415801 0.924459 0.0087883
632 1 0.16224 0.919872 0.41443
477 1 0.848094 0.664566 0.00555747
471 1 0.578352 0.681074 0.100213
91 1 0.743062 0.993072 0.255951
476 1 0.667686 0.757184 0.0974491
495 1 0.593272 0.835466 0.102535
661 1 0.493665 0.512367 0.499467
475 1 0.747649 0.664394 0.086192
480 1 0.827174 0.753706 0.0787517
497 1 0.652496 0.839961 0.00795551
499 1 0.742379 0.840624 0.0864662
460 1 0.0115359 0.762915 0.084078
550 1 0.918981 0.759959 0.166641
483 1 0.083386 0.844447 0.0851996
581 1 0.167079 0.516983 0.328514
484 1 0.00254435 0.92541 0.0786253
498 1 0.749958 0.924731 0.016829
486 1 0.241871 0.932593 0.00146575
481 1 0.986983 0.829224 0.00253537
488 1 0.154422 0.935534 0.0740826
487 1 0.233222 0.85773 0.0802185
438 1 0.241386 0.586822 0.00651986
492 1 0.333816 0.941531 0.0922444
491 1 0.408534 0.821917 0.0738631
496 1 0.49677 0.918423 0.0738458
478 1 0.904065 0.759472 0.00326746
500 1 0.674557 0.928393 0.0904318
519 1 0.582444 0.514504 0.268288
474 1 0.749239 0.753092 0.00730884
457 1 0.99252 0.660137 0.00176226
147 1 0.0732448 0.99686 0.435828
504 1 0.843003 0.919215 0.0993396
570 1 0.752897 0.924231 0.167595
573 1 0.83358 0.837033 0.173044
437 1 0.165687 0.516943 0.0202956
639 1 0.565868 0.844996 0.412147
503 1 0.927209 0.833932 0.085311
574 1 0.91789 0.927753 0.188465
531 1 0.0687836 0.683856 0.252833
587 1 0.406387 0.512633 0.424873
646 1 0.918557 0.924575 0.338455
593 1 0.682818 0.504669 0.338225
512 1 0.155967 0.59485 0.252149
510 1 0.236732 0.592758 0.167911
516 1 0.321027 0.594761 0.259418
643 1 0.756376 0.838676 0.41839
514 1 0.42194 0.602599 0.163567
515 1 0.400069 0.518582 0.263233
517 1 0.499816 0.521232 0.19308
520 1 0.490826 0.599709 0.27392
518 1 0.580632 0.589298 0.170417
524 1 0.670779 0.586207 0.256305
521 1 0.668633 0.51564 0.171535
528 1 0.847628 0.587744 0.255992
547 1 0.764298 0.664811 0.235096
665 1 0.657631 0.527253 0.493706
435 1 0.0817186 0.516284 0.0849173
454 1 0.911252 0.569615 0.00555642
508 1 0.996256 0.583518 0.254041
551 1 0.918603 0.665251 0.250606
489 1 0.321233 0.850959 0.0097664
482 1 0.065371 0.932588 0.00107987
529 1 0.00133447 0.675537 0.172567
530 1 0.0864351 0.771951 0.165064
532 1 0.994853 0.762913 0.236004
536 1 0.165424 0.737465 0.257946
534 1 0.240732 0.766096 0.180355
535 1 0.249663 0.672673 0.254636
533 1 0.165851 0.685415 0.152341
540 1 0.324269 0.752948 0.254886
539 1 0.402332 0.673869 0.256479
538 1 0.393322 0.743495 0.163392
544 1 0.48472 0.759272 0.249829
542 1 0.580676 0.759911 0.175313
545 1 0.665437 0.673943 0.170764
541 1 0.492456 0.675257 0.18018
543 1 0.581354 0.682368 0.257423
548 1 0.671468 0.764422 0.24218
637 1 0.490805 0.850447 0.322416
641 1 0.654051 0.826345 0.346352
549 1 0.836444 0.681964 0.158045
546 1 0.758145 0.754448 0.164836
618 1 0.737866 0.76421 0.331265
569 1 0.675916 0.84921 0.174793
571 1 0.73528 0.848045 0.259271
552 1 0.83315 0.762009 0.250972
553 1 0.000187443 0.851422 0.166756
557 1 0.158389 0.846239 0.1885
555 1 0.0863259 0.839795 0.251922
554 1 0.0824877 0.924281 0.166512
560 1 0.158694 0.936662 0.245092
634 1 0.399607 0.921167 0.329492
559 1 0.249764 0.847512 0.258222
558 1 0.250435 0.923787 0.187621
564 1 0.345472 0.926402 0.24579
513 1 0.332076 0.507041 0.172111
562 1 0.407445 0.900701 0.157281
565 1 0.49575 0.828903 0.167571
563 1 0.40588 0.835218 0.234446
568 1 0.492282 0.91483 0.240969
509 1 0.163694 0.507653 0.175144
638 1 0.581598 0.914227 0.326812
566 1 0.575471 0.9242 0.155336
567 1 0.576185 0.839321 0.238953
572 1 0.647795 0.930162 0.242465
642 1 0.750104 0.913843 0.336674
443 1 0.415341 0.506714 0.101016
575 1 0.908698 0.848305 0.260316
556 1 0.00776446 0.921818 0.257777
645 1 0.829783 0.829437 0.343763
576 1 0.82866 0.931898 0.259962
625 1 0.000917826 0.826826 0.326421
640 1 0.498252 0.929893 0.420397
578 1 0.0773627 0.591316 0.343573
584 1 0.160668 0.585864 0.419593
502 1 0.91515 0.918497 0.0108975
470 1 0.582049 0.757915 0.0227383
582 1 0.245724 0.600707 0.329978
588 1 0.319126 0.593568 0.416955
453 1 0.819105 0.504565 0.0163696
586 1 0.409781 0.59628 0.356209
525 1 0.837517 0.514301 0.173307
630 1 0.260511 0.937666 0.342885
592 1 0.495497 0.593075 0.42737
590 1 0.57988 0.600641 0.333034
617 1 0.667666 0.688957 0.336483
596 1 0.669697 0.601072 0.40581
493 1 0.496876 0.83305 0.0200695
594 1 0.763595 0.608471 0.329474
600 1 0.834216 0.60555 0.424686
619 1 0.749721 0.675983 0.417913
686 1 0.571676 0.748283 0.495004
580 1 0.00355656 0.588686 0.427623
598 1 0.930784 0.589201 0.358112
155 1 0.403768 0.986357 0.423966
605 1 0.158317 0.672738 0.34923
603 1 0.0911887 0.671606 0.422594
602 1 0.0881357 0.752867 0.34268
608 1 0.163668 0.75645 0.437368
609 1 0.328454 0.683954 0.350424
607 1 0.243763 0.687021 0.428035
606 1 0.254058 0.761186 0.336947
612 1 0.339606 0.768706 0.425651
631 1 0.24518 0.830208 0.431587
613 1 0.484118 0.681839 0.340841
611 1 0.407413 0.662932 0.434032
610 1 0.412809 0.770424 0.332918
616 1 0.478163 0.757623 0.419384
628 1 0.996785 0.923048 0.418659
635 1 0.414956 0.856263 0.411718
614 1 0.579593 0.75489 0.335047
615 1 0.571318 0.665575 0.435741
621 1 0.842991 0.676489 0.338355
620 1 0.655964 0.759183 0.425663
624 1 0.830773 0.756638 0.417178
439 1 0.255606 0.502916 0.0962233
601 1 0.998749 0.675643 0.353266
604 1 0.996348 0.754275 0.430697
622 1 0.913973 0.758261 0.339215
623 1 0.925006 0.675053 0.427175
626 1 0.0749709 0.921842 0.337826
629 1 0.168751 0.844402 0.339827
627 1 0.0859524 0.84746 0.420519
597 1 0.819753 0.50413 0.343263
633 1 0.329852 0.842581 0.329802
636 1 0.323132 0.912218 0.435181
501 1 0.836268 0.84083 0.00716327
591 1 0.577203 0.508289 0.408692
523 1 0.764119 0.505776 0.252442
577 1 0.00356547 0.506921 0.352826
446 1 0.584084 0.593536 0.0135699
595 1 0.747756 0.520602 0.429741
579 1 0.0942483 0.505527 0.429524
494 1 0.575573 0.916126 0.00104747
434 1 0.0775916 0.594597 0.00980238
149 1 0.158213 0.997847 0.33812
654 1 0.238652 0.595039 0.495285
461 1 0.16543 0.660323 0.000770626
161 1 0.660751 0.983502 0.342353
23 1 0.920067 0.991592 0.0922196
163 1 0.743657 0.986636 0.418944
89 1 0.651895 0.997487 0.162548
656 1 0.179753 0.589376 0.598527
657 1 0.325977 0.507707 0.508885
469 1 0.51298 0.660445 0.991658
305 1 0.675263 0.999883 0.657524
735 1 0.572843 0.517294 0.761779
660 1 0.340658 0.576611 0.596014
679 1 0.253068 0.671474 0.583353
235 1 0.744203 0.994785 0.576627
737 1 0.655401 0.502485 0.666139
710 1 0.576326 0.929058 0.508841
730 1 0.414873 0.59467 0.6829
862 1 0.914022 0.933653 0.845454
664 1 0.490364 0.596569 0.587935
668 1 0.674482 0.58629 0.589702
706 1 0.42815 0.91574 0.506535
650 1 0.0918086 0.585586 0.515049
672 1 0.820179 0.592835 0.59197
741 1 0.81608 0.505489 0.652981
658 1 0.407984 0.572665 0.517579
652 1 0.994174 0.598718 0.581632
701 1 0.1684 0.846151 0.51144
813 1 0.81885 0.5216 0.853284
743 1 0.90566 0.509951 0.755188
675 1 0.0982333 0.669042 0.590976
680 1 0.172596 0.781337 0.595108
677 1 0.167031 0.675919 0.509535
674 1 0.0906338 0.77 0.51561
684 1 0.333707 0.768131 0.606871
777 1 0.335343 0.855765 0.679772
705 1 0.338368 0.843223 0.515784
678 1 0.253937 0.768963 0.520465
683 1 0.40604 0.67077 0.593205
688 1 0.499399 0.752631 0.585201
707 1 0.411218 0.840835 0.600765
667 1 0.74243 0.502764 0.569845
687 1 0.582881 0.678099 0.591471
692 1 0.670823 0.758803 0.598099
757 1 0.487745 0.674721 0.674213
466 1 0.416886 0.753771 0.995118
714 1 0.7537 0.9064 0.503293
682 1 0.40855 0.758658 0.503718
691 1 0.747916 0.668375 0.594732
696 1 0.833971 0.754372 0.594868
715 1 0.740675 0.83537 0.593404
765 1 0.817209 0.667114 0.674127
721 1 0.996941 0.502207 0.65265
694 1 0.917458 0.743675 0.51504
676 1 0.0090997 0.755315 0.58039
695 1 0.908707 0.666888 0.598231
811 1 0.735275 0.50331 0.917232
699 1 0.0820936 0.849427 0.589649
685 1 0.475108 0.678936 0.519294
704 1 0.152032 0.924317 0.620588
700 1 0.993312 0.909167 0.579178
689 1 0.670649 0.665107 0.509945
703 1 0.25557 0.862518 0.588273
708 1 0.332986 0.925891 0.596745
727 1 0.253992 0.505726 0.752401
712 1 0.506505 0.909373 0.597026
698 1 0.0921007 0.922889 0.51297
690 1 0.73894 0.739947 0.505995
711 1 0.593628 0.839864 0.583401
716 1 0.67124 0.916053 0.583402
720 1 0.824654 0.919166 0.581277
739 1 0.744209 0.505188 0.758521
485 1 0.15554 0.852408 0.985337
719 1 0.909535 0.829763 0.598631
790 1 0.903181 0.912096 0.673946
722 1 0.0957797 0.59076 0.670286
749 1 0.175936 0.675077 0.668985
728 1 0.170457 0.588668 0.755445
747 1 0.0801891 0.673735 0.74813
724 1 0.995149 0.582936 0.75715
726 1 0.260373 0.589023 0.676519
732 1 0.34065 0.582818 0.769122
753 1 0.345075 0.684951 0.701827
751 1 0.258781 0.669095 0.74939
669 1 0.829799 0.500522 0.510903
802 1 0.419964 0.582053 0.837588
859 1 0.761551 0.828164 0.929168
736 1 0.504253 0.588989 0.743394
734 1 0.587419 0.586742 0.64526
740 1 0.652568 0.587127 0.744317
761 1 0.66481 0.669185 0.663486
861 1 0.823644 0.840942 0.838544
670 1 0.917195 0.586333 0.508219
738 1 0.742002 0.583091 0.669568
713 1 0.67543 0.83046 0.516049
742 1 0.917383 0.585146 0.666509
744 1 0.822357 0.579807 0.749529
746 1 0.0890197 0.750553 0.682534
752 1 0.176048 0.751919 0.764094
818 1 0.0827947 0.751804 0.839247
750 1 0.250185 0.774259 0.677856
756 1 0.352043 0.75696 0.766724
775 1 0.258346 0.85911 0.75649
754 1 0.426456 0.764191 0.670713
755 1 0.426864 0.667196 0.767026
760 1 0.493276 0.755847 0.751048
779 1 0.420117 0.837519 0.75374
759 1 0.584987 0.681079 0.742765
758 1 0.585689 0.755819 0.659976
764 1 0.670327 0.761567 0.749535
762 1 0.74965 0.755971 0.674576
763 1 0.740732 0.661641 0.753322
745 1 0.00384202 0.664167 0.678203
748 1 0.997087 0.744927 0.747841
766 1 0.92724 0.738602 0.669681
767 1 0.908126 0.663249 0.746804
768 1 0.829352 0.756513 0.755514
773 1 0.156706 0.842749 0.695038
770 1 0.0598762 0.936332 0.68861
771 1 0.0593371 0.838193 0.761986
776 1 0.167795 0.916045 0.772329
717 1 0.832749 0.822927 0.513235
774 1 0.246742 0.941446 0.684714
780 1 0.340648 0.932664 0.755632
778 1 0.407165 0.924954 0.673166
781 1 0.510646 0.836038 0.675349
784 1 0.504325 0.926165 0.750086
655 1 0.256784 0.505879 0.591995
857 1 0.669699 0.843707 0.84646
782 1 0.585143 0.917832 0.668756
783 1 0.581824 0.832737 0.750844
788 1 0.66053 0.924003 0.756833
786 1 0.741712 0.917067 0.679995
785 1 0.668567 0.838514 0.678739
787 1 0.746779 0.848558 0.756249
789 1 0.825568 0.840799 0.671175
769 1 0.988862 0.842026 0.676892
791 1 0.909512 0.839934 0.752263
772 1 0.976911 0.925906 0.750447
792 1 0.828011 0.916864 0.767806
794 1 0.0726652 0.594512 0.839059
796 1 0.986569 0.568408 0.91838
800 1 0.149207 0.580627 0.927625
723 1 0.0852031 0.520979 0.751122
293 1 0.155251 0.999358 0.698454
798 1 0.24188 0.593298 0.842188
804 1 0.339622 0.585567 0.9295
808 1 0.495793 0.588538 0.926336
825 1 0.333851 0.678081 0.860121
806 1 0.588736 0.58788 0.848905
812 1 0.661151 0.581367 0.934419
831 1 0.597981 0.667648 0.925622
864 1 0.838014 0.914703 0.921733
653 1 0.169063 0.508747 0.504389
810 1 0.727269 0.586208 0.84306
816 1 0.839631 0.589346 0.934282
814 1 0.90893 0.592893 0.830813
817 1 0.984288 0.655638 0.826294
839 1 0.916153 0.670706 0.918311
462 1 0.239241 0.774969 0.994742
819 1 0.0787171 0.661798 0.911989
821 1 0.168466 0.671821 0.844053
820 1 0.98438 0.743962 0.906945
662 1 0.574244 0.58789 0.503388
822 1 0.26391 0.758012 0.830079
824 1 0.15921 0.757285 0.926336
823 1 0.238691 0.675472 0.918525
828 1 0.337068 0.77886 0.911758
829 1 0.508887 0.671294 0.849741
827 1 0.431872 0.679094 0.925695
826 1 0.424059 0.755713 0.847957
853 1 0.504031 0.834092 0.838657
833 1 0.65408 0.669791 0.830788
832 1 0.510887 0.75157 0.929227
830 1 0.586609 0.759793 0.860891
836 1 0.657979 0.760964 0.943122
835 1 0.743006 0.655042 0.916637
837 1 0.822232 0.661519 0.839523
797 1 0.169665 0.512815 0.836799
834 1 0.743314 0.764404 0.832185
840 1 0.819551 0.747364 0.934867
681 1 0.328989 0.665 0.508583
838 1 0.911869 0.761784 0.827163
841 1 0.993286 0.838667 0.838624
844 1 0.997553 0.906836 0.920075
843 1 0.0790196 0.832384 0.917278
842 1 0.0674174 0.934703 0.840109
848 1 0.157196 0.922551 0.910675
845 1 0.168821 0.831359 0.837161
846 1 0.254105 0.929263 0.844235
849 1 0.338732 0.847733 0.82905
697 1 0.00561089 0.830638 0.513626
847 1 0.238212 0.837289 0.907619
465 1 0.31037 0.68827 0.99695
851 1 0.430081 0.834789 0.934106
850 1 0.430098 0.921797 0.834068
856 1 0.493781 0.923029 0.91244
852 1 0.331453 0.91897 0.923762
863 1 0.904172 0.833667 0.924611
854 1 0.591833 0.927601 0.831609
855 1 0.567289 0.84162 0.933706
860 1 0.677858 0.921107 0.923912
289 1 0.980441 0.995669 0.656393
858 1 0.75395 0.930164 0.841912
718 1 0.912032 0.92339 0.504065
733 1 0.500266 0.512551 0.663548
666 1 0.765983 0.599455 0.501078
803 1 0.411909 0.501826 0.927724
233 1 0.668511 0.996865 0.501498
649 1 0.996694 0.501674 0.510961
237 1 0.827275 0.996674 0.502745
693 1 0.836754 0.679901 0.504329
807 1 0.58723 0.510932 0.932765
805 1 0.494343 0.500407 0.837991
458 1 0.0679166 0.752913 0.974329
225 1 0.312661 0.991481 0.510807
