ITEM: TIMESTEP
10500
ITEM: NUMBER OF ATOMS
864
ITEM: BOX BOUNDS pp pp pp
0.0000000000000000e+00 3.1559999999999999e+01
0.0000000000000000e+00 3.1559999999999999e+01
0.0000000000000000e+00 3.1559999999999999e+01
ITEM: ATOMS id type xs ys zs
4 1 0.998825 0.092491 0.0817526
451 1 0.767057 0.498824 0.0917048
8 1 0.179398 0.0856622 0.0966556
208 1 0.496406 0.415365 0.410468
285 1 0.838123 0.334582 0.497681
105 1 0.330057 0.17582 0.165841
286 1 0.918377 0.425572 0.490315
12 1 0.33676 0.0873852 0.0790649
16 1 0.495754 0.105234 0.0970132
75 1 0.0694557 0.0113719 0.255954
91 1 0.751643 0.0122501 0.240646
86 1 0.582738 0.0823135 0.167049
216 1 0.840292 0.429136 0.407733
14 1 0.585216 0.0775233 0.00372613
15 1 0.56264 0.00994349 0.0948967
7 1 0.265117 0.00860196 0.104572
20 1 0.665798 0.0823697 0.0871097
24 1 0.821488 0.0743802 0.0805751
270 1 0.257848 0.408584 0.498751
43 1 0.746112 0.168159 0.079504
61 1 0.495466 0.32793 0.0109673
11 1 0.413963 0.000468412 0.0806294
62 1 0.581512 0.404006 0.00701289
196 1 0.0120832 0.414177 0.405367
27 1 0.09234 0.165543 0.0904637
32 1 0.173262 0.250513 0.0818695
28 1 0.997203 0.261534 0.0847135
97 1 0.996454 0.160188 0.174185
6 1 0.255864 0.0908458 0.00513319
13 1 0.499726 0.00630357 0.000431552
31 1 0.260846 0.184512 0.0910253
36 1 0.340094 0.273294 0.0960523
38 1 0.579287 0.258137 0.0162422
161 1 0.670573 0.0101511 0.332697
35 1 0.41727 0.166041 0.0739135
159 1 0.582074 0.011082 0.413978
57 1 0.353043 0.341663 0.00302522
147 1 0.0879217 0.0171099 0.405303
40 1 0.511882 0.241926 0.0920089
39 1 0.592522 0.159234 0.0812213
110 1 0.588749 0.246722 0.18507
109 1 0.500078 0.180493 0.179584
661 1 0.508736 0.494002 0.492029
44 1 0.661838 0.254711 0.0895014
153 1 0.323024 0.0201613 0.340754
67 1 0.743828 0.340922 0.0866465
137 1 0.660197 0.341409 0.178107
70 1 0.912407 0.419703 0.0033423
47 1 0.924036 0.1695 0.0807464
48 1 0.831679 0.252448 0.0961623
51 1 0.0780739 0.335777 0.0805606
122 1 0.0766555 0.43342 0.168607
55 1 0.253878 0.331793 0.0947398
56 1 0.170391 0.437383 0.0864059
60 1 0.336398 0.414412 0.107879
59 1 0.416554 0.339159 0.101678
64 1 0.512572 0.427349 0.0839037
58 1 0.427818 0.425116 0.0106984
42 1 0.759791 0.254501 0.0149931
63 1 0.592631 0.355762 0.0968167
254 1 0.582441 0.260293 0.498097
30 1 0.264002 0.257294 0.0127435
33 1 0.339802 0.169014 0.00089739
212 1 0.67569 0.418065 0.411882
69 1 0.828339 0.337695 0.00790242
68 1 0.662258 0.435089 0.090835
266 1 0.0975724 0.424328 0.497735
52 1 0.993878 0.416169 0.0670892
71 1 0.919608 0.336239 0.079804
72 1 0.837103 0.413045 0.0835171
262 1 0.913922 0.246038 0.497615
74 1 0.0823488 0.090829 0.172761
80 1 0.162234 0.088409 0.259627
76 1 0.978728 0.0893955 0.251454
169 1 0.990109 0.186756 0.330657
78 1 0.259437 0.089611 0.172217
84 1 0.334455 0.087611 0.250567
282 1 0.758646 0.41712 0.483663
177 1 0.322797 0.172132 0.334532
151 1 0.239549 0.0139199 0.420109
65 1 0.669147 0.335192 0.00872182
82 1 0.408305 0.0959886 0.167883
107 1 0.426013 0.17457 0.255463
181 1 0.51838 0.169306 0.345488
265 1 0.00272785 0.350866 0.486821
523 1 0.74228 0.490733 0.257839
88 1 0.488142 0.0823054 0.263533
92 1 0.678061 0.0885959 0.251875
158 1 0.585528 0.0818101 0.336799
89 1 0.65571 0.00868977 0.174863
250 1 0.423208 0.270243 0.492887
22 1 0.918901 0.0826809 0.0049842
90 1 0.746284 0.0814655 0.153086
115 1 0.752867 0.161392 0.2512
649 1 0.00168117 0.492897 0.491265
193 1 0.986497 0.344513 0.318341
96 1 0.851963 0.0822012 0.238882
117 1 0.832712 0.164719 0.164334
94 1 0.910851 0.0817653 0.148154
119 1 0.908758 0.18029 0.245495
26 1 0.0844084 0.246179 0.00645459
98 1 0.0745399 0.253823 0.159929
99 1 0.0756615 0.172037 0.254594
101 1 0.166133 0.174321 0.174649
104 1 0.168266 0.251023 0.243209
103 1 0.247166 0.166744 0.24358
102 1 0.255298 0.254043 0.168084
108 1 0.328269 0.251751 0.258019
106 1 0.417502 0.261442 0.180817
112 1 0.509442 0.241793 0.27053
113 1 0.675174 0.170195 0.175142
111 1 0.589612 0.158642 0.259818
116 1 0.676471 0.240746 0.260868
205 1 0.505243 0.328035 0.33661
114 1 0.743821 0.245862 0.159746
120 1 0.836546 0.254771 0.240493
139 1 0.753613 0.326624 0.247105
186 1 0.751669 0.240077 0.33582
121 1 0.997826 0.348711 0.159972
118 1 0.920717 0.265424 0.158469
141 1 0.830091 0.339685 0.161464
100 1 0.991995 0.25314 0.245665
190 1 0.92266 0.264545 0.336994
123 1 0.0711885 0.340726 0.251025
124 1 0.997812 0.441255 0.263126
194 1 0.0906825 0.416967 0.328834
129 1 0.331871 0.333155 0.189658
125 1 0.161705 0.328845 0.157519
127 1 0.252908 0.325971 0.25186
128 1 0.162517 0.403409 0.243561
126 1 0.246789 0.4151 0.169881
132 1 0.324776 0.430024 0.257628
18 1 0.741006 0.0815708 0.00779579
130 1 0.412533 0.413503 0.175921
131 1 0.425842 0.339298 0.266028
133 1 0.520279 0.338726 0.171702
136 1 0.497607 0.436232 0.24844
202 1 0.411137 0.430396 0.327774
207 1 0.584894 0.353933 0.411273
135 1 0.591107 0.330999 0.264687
134 1 0.595064 0.423068 0.18484
140 1 0.675989 0.415422 0.256254
206 1 0.588678 0.424036 0.321131
138 1 0.744295 0.411346 0.166158
144 1 0.830842 0.426022 0.250053
213 1 0.828102 0.332401 0.330921
210 1 0.752949 0.421421 0.335516
2 1 0.090957 0.0867515 0.00468266
142 1 0.906414 0.41654 0.165124
143 1 0.902426 0.326489 0.249483
214 1 0.908732 0.431213 0.326821
155 1 0.414737 0.0163141 0.41582
3 1 0.0784038 0.0158228 0.0793276
146 1 0.065116 0.0935504 0.330364
145 1 0.995232 0.0195566 0.342488
152 1 0.162242 0.104707 0.407322
37 1 0.498707 0.163804 0.00247262
149 1 0.163486 0.00241209 0.331886
150 1 0.245372 0.0945131 0.339834
85 1 0.494739 0.0118946 0.180988
5 1 0.165022 0.00296874 0.00113072
154 1 0.407672 0.0895126 0.336493
66 1 0.742222 0.42659 0.00193286
156 1 0.333499 0.0991994 0.4222
160 1 0.501024 0.0754841 0.418443
179 1 0.417234 0.159391 0.42675
29 1 0.174255 0.162146 0.0104382
53 1 0.180079 0.345296 0.0120671
164 1 0.666217 0.084574 0.430317
278 1 0.593168 0.425457 0.48418
189 1 0.844301 0.181048 0.336586
162 1 0.754981 0.0872084 0.325103
185 1 0.663966 0.153418 0.344588
187 1 0.765397 0.164427 0.410009
163 1 0.75916 0.00435761 0.40943
225 1 0.33141 0.0173367 0.498621
148 1 0.00724222 0.0955227 0.423146
168 1 0.836641 0.0815927 0.414544
166 1 0.921093 0.100591 0.336776
258 1 0.759513 0.246413 0.493026
171 1 0.0826054 0.173307 0.411535
173 1 0.162932 0.183076 0.332972
170 1 0.0847078 0.248716 0.328972
195 1 0.0926552 0.340195 0.415885
79 1 0.2374 0.00613386 0.252178
45 1 0.820788 0.164262 0.00726954
176 1 0.170146 0.251378 0.430968
174 1 0.239886 0.259643 0.339239
175 1 0.257219 0.174593 0.423665
201 1 0.328209 0.328626 0.330998
180 1 0.33389 0.258195 0.40835
178 1 0.417106 0.247669 0.349199
184 1 0.504649 0.25163 0.42166
203 1 0.408575 0.340803 0.40679
209 1 0.679234 0.322039 0.350133
182 1 0.586149 0.248714 0.354009
183 1 0.57159 0.155807 0.432807
93 1 0.829547 0.00487784 0.16897
87 1 0.582194 0.00302065 0.253015
211 1 0.752434 0.333347 0.42189
188 1 0.67648 0.248569 0.428995
192 1 0.841588 0.254941 0.419786
191 1 0.912999 0.168425 0.423562
215 1 0.912206 0.343775 0.406336
172 1 0.0101875 0.257046 0.426465
197 1 0.155152 0.330323 0.328341
200 1 0.180664 0.40043 0.408312
204 1 0.318895 0.41464 0.405493
199 1 0.251418 0.319158 0.425373
198 1 0.249496 0.434049 0.333934
657 1 0.327449 0.494807 0.476137
439 1 0.250811 0.499642 0.0808803
224 1 0.164793 0.110985 0.584672
220 1 0.014776 0.0908354 0.591712
269 1 0.167717 0.337279 0.5101
219 1 0.0853562 0.0201608 0.582098
294 1 0.241919 0.102732 0.675137
803 1 0.426226 0.497892 0.918603
228 1 0.327615 0.0894799 0.576452
232 1 0.514342 0.0854492 0.591654
246 1 0.249956 0.250648 0.511254
721 1 0.00399968 0.497165 0.670398
233 1 0.673938 0.000720071 0.512812
226 1 0.430071 0.0735092 0.504023
236 1 0.659759 0.0780264 0.586911
240 1 0.833628 0.0931418 0.590573
737 1 0.662337 0.490598 0.662435
289 1 0.00864258 0.00901209 0.676483
217 1 0.00839309 0.0196151 0.501993
238 1 0.911462 0.0870846 0.509379
245 1 0.167649 0.175315 0.50493
239 1 0.934539 0.0184425 0.583325
237 1 0.832279 0.0095703 0.517605
243 1 0.0854494 0.175596 0.601092
248 1 0.168332 0.261892 0.578715
242 1 0.0804927 0.256785 0.506632
247 1 0.25625 0.168261 0.597769
271 1 0.244337 0.33832 0.589082
252 1 0.337604 0.267885 0.583128
321 1 0.334798 0.173208 0.677354
10 1 0.420335 0.0880405 0.992907
291 1 0.0861524 0.0206936 0.753882
251 1 0.418727 0.161402 0.588516
275 1 0.418435 0.348307 0.586113
256 1 0.492249 0.253645 0.57473
322 1 0.41921 0.255593 0.659775
349 1 0.502783 0.339889 0.672019
223 1 0.233316 0.0263818 0.585242
255 1 0.594917 0.16774 0.575876
257 1 0.670163 0.165901 0.511579
260 1 0.671819 0.258889 0.586046
259 1 0.758799 0.173792 0.579495
264 1 0.847109 0.248231 0.580905
307 1 0.746355 0.00835496 0.740945
261 1 0.833003 0.167105 0.500909
244 1 0.000854185 0.27667 0.586262
263 1 0.932202 0.167304 0.584454
313 1 0.993902 0.174724 0.670276
234 1 0.753928 0.0973594 0.500924
267 1 0.0882467 0.3424 0.574141
363 1 0.0852666 0.0133819 0.92689
338 1 0.0801872 0.421422 0.653116
379 1 0.73583 0.00205059 0.908263
795 1 0.075264 0.498022 0.90895
367 1 0.252649 0.00137297 0.913461
34 1 0.428912 0.23899 0.989932
272 1 0.165229 0.434447 0.585825
309 1 0.830215 0.0170803 0.667916
276 1 0.332237 0.413619 0.581419
280 1 0.506721 0.427854 0.591995
50 1 0.0812296 0.424384 0.998744
279 1 0.585429 0.348714 0.570178
284 1 0.670838 0.417242 0.570598
663 1 0.581421 0.499978 0.574371
283 1 0.757076 0.333759 0.587332
218 1 0.0939241 0.105392 0.50678
288 1 0.822767 0.422631 0.567656
426 1 0.745645 0.428284 0.823543
287 1 0.908611 0.338138 0.595322
268 1 0.994574 0.424857 0.577761
253 1 0.507306 0.156958 0.507226
290 1 0.0936588 0.0956338 0.675888
292 1 0.991226 0.0943548 0.748381
362 1 0.0718407 0.0913039 0.847863
296 1 0.15699 0.0930424 0.763586
300 1 0.341889 0.0732774 0.75334
727 1 0.254539 0.486531 0.757404
295 1 0.246236 0.00659493 0.751681
274 1 0.410542 0.42441 0.501312
293 1 0.159543 0.0159469 0.675636
221 1 0.172649 0.0246958 0.502927
21 1 0.842622 0.00508508 0.995709
298 1 0.432484 0.0728079 0.664041
231 1 0.589113 0.000667044 0.595741
277 1 0.497077 0.353102 0.506532
365 1 0.159085 0.0170187 0.838647
304 1 0.502034 0.0844968 0.762925
302 1 0.574973 0.0726986 0.681605
308 1 0.669635 0.082759 0.747364
329 1 0.668743 0.184626 0.661161
306 1 0.736558 0.0928529 0.67097
331 1 0.745782 0.169883 0.75196
377 1 0.662074 0.00544949 0.832038
311 1 0.9097 0.0259339 0.739529
312 1 0.820836 0.0851063 0.752265
310 1 0.921287 0.093258 0.659949
335 1 0.907305 0.184631 0.755867
314 1 0.0820019 0.264425 0.659449
315 1 0.0736169 0.186076 0.757705
317 1 0.177807 0.182927 0.667174
320 1 0.169021 0.241786 0.760111
319 1 0.263557 0.171358 0.756812
318 1 0.254627 0.247537 0.681039
389 1 0.174418 0.158087 0.844549
323 1 0.413694 0.165855 0.756424
324 1 0.347323 0.247757 0.755315
347 1 0.41298 0.335656 0.750771
325 1 0.49045 0.157382 0.669212
326 1 0.581839 0.259123 0.658838
328 1 0.496538 0.255541 0.7409
327 1 0.567214 0.176238 0.738912
332 1 0.662891 0.26044 0.75026
330 1 0.752405 0.254413 0.653879
333 1 0.832115 0.170309 0.667883
334 1 0.913041 0.247669 0.67141
336 1 0.8267 0.257358 0.749253
316 1 0.998048 0.261539 0.780241
406 1 0.900161 0.276525 0.843689
381 1 0.818335 0.00955116 0.8336
339 1 0.0810056 0.330618 0.753209
341 1 0.165444 0.335571 0.669741
343 1 0.243449 0.332002 0.734832
344 1 0.166846 0.416737 0.732138
342 1 0.2521 0.418608 0.653325
813 1 0.829809 0.487616 0.834606
345 1 0.346522 0.328916 0.670191
348 1 0.325674 0.402414 0.746624
346 1 0.412664 0.412186 0.669173
418 1 0.426265 0.427729 0.83382
352 1 0.498161 0.41575 0.743716
350 1 0.589509 0.412319 0.66811
351 1 0.580978 0.338014 0.738263
1 1 0.00226712 0.00302977 0.989004
805 1 0.525088 0.49297 0.830639
353 1 0.663613 0.333974 0.661564
354 1 0.744558 0.409871 0.661756
355 1 0.750575 0.33578 0.741849
356 1 0.664982 0.406263 0.747573
357 1 0.843615 0.332321 0.671015
360 1 0.835826 0.419434 0.73959
337 1 0.992516 0.330684 0.67596
359 1 0.910302 0.343478 0.756338
340 1 0.975802 0.43768 0.748502
358 1 0.91105 0.439021 0.660452
409 1 0.999426 0.346728 0.835507
412 1 0.00388564 0.416581 0.930934
249 1 0.35084 0.176235 0.503639
364 1 0.981192 0.0886623 0.916116
368 1 0.169691 0.0940529 0.919305
366 1 0.263382 0.0829375 0.837486
372 1 0.3328 0.0763296 0.922427
430 1 0.915351 0.420959 0.844949
230 1 0.579706 0.0743386 0.509879
370 1 0.411978 0.0863736 0.829053
376 1 0.508113 0.084067 0.918265
374 1 0.582662 0.089102 0.832019
399 1 0.578106 0.17063 0.917043
431 1 0.9259 0.337999 0.927601
380 1 0.668086 0.0917001 0.917941
378 1 0.738891 0.0914957 0.835103
401 1 0.650527 0.167984 0.812248
403 1 0.744444 0.180687 0.91334
405 1 0.830783 0.160479 0.83768
235 1 0.745874 0.0142993 0.59662
384 1 0.799538 0.0885171 0.919613
382 1 0.908867 0.0873957 0.834286
222 1 0.25995 0.103561 0.503073
241 1 0.00703461 0.176149 0.505577
385 1 0.983974 0.163477 0.83248
387 1 0.0834843 0.174798 0.921732
386 1 0.104231 0.254868 0.843205
393 1 0.331081 0.174791 0.831423
392 1 0.179037 0.254987 0.922633
390 1 0.258099 0.262782 0.840608
391 1 0.260688 0.171591 0.933885
396 1 0.35391 0.24761 0.91776
395 1 0.415009 0.165237 0.907898
397 1 0.494235 0.172064 0.835353
394 1 0.419644 0.257283 0.82763
400 1 0.494837 0.254052 0.901044
425 1 0.681798 0.337676 0.830658
421 1 0.510463 0.339767 0.83334
398 1 0.582787 0.255435 0.830382
402 1 0.762272 0.26195 0.829707
404 1 0.690134 0.262962 0.921202
408 1 0.832668 0.258977 0.921926
429 1 0.826173 0.350302 0.834179
407 1 0.897294 0.165123 0.923106
388 1 0.00354043 0.261878 0.902536
25 1 0.985601 0.17686 0.996846
411 1 0.0853323 0.33961 0.915673
410 1 0.0841521 0.421108 0.836456
416 1 0.155222 0.423471 0.922232
414 1 0.253261 0.416334 0.863497
413 1 0.168291 0.344054 0.823996
41 1 0.65734 0.181641 0.992561
420 1 0.345346 0.417707 0.924071
417 1 0.348647 0.34133 0.846606
415 1 0.270204 0.330121 0.929114
419 1 0.427059 0.330652 0.910141
422 1 0.596366 0.404927 0.828405
423 1 0.599725 0.334356 0.921429
424 1 0.500257 0.414061 0.931399
428 1 0.672357 0.412931 0.905306
427 1 0.751376 0.343261 0.93021
432 1 0.840375 0.418195 0.922368
273 1 0.327082 0.334289 0.504358
373 1 0.514199 0.00253069 0.830718
797 1 0.167022 0.479484 0.817273
369 1 0.343575 0.00490141 0.835687
46 1 0.912061 0.255223 0.996445
731 1 0.403444 0.491501 0.744654
371 1 0.423664 0.0126614 0.911992
49 1 0.0155518 0.332379 0.993028
807 1 0.580347 0.492726 0.933901
723 1 0.0764914 0.497369 0.752503
735 1 0.599284 0.488522 0.743635
297 1 0.316803 0.0135576 0.667047
811 1 0.746833 0.492401 0.915312
54 1 0.268501 0.428115 0.988656
281 1 0.677656 0.333723 0.505362
17 1 0.663257 0.00924154 0.999982
440 1 0.168343 0.58728 0.0783061
506 1 0.0770596 0.585685 0.170669
435 1 0.0748743 0.500901 0.0796176
678 1 0.256108 0.7372 0.491515
444 1 0.329788 0.59112 0.0979133
73 1 0.997616 0.999967 0.172907
694 1 0.903048 0.747214 0.498708
517 1 0.518531 0.515688 0.174482
448 1 0.492834 0.58902 0.0992227
442 1 0.413162 0.596803 0.0251892
445 1 0.499609 0.515791 0.0192001
452 1 0.686127 0.580276 0.0876713
449 1 0.669228 0.507415 0.0102837
446 1 0.570121 0.588492 0.00483461
521 1 0.657776 0.506437 0.170475
519 1 0.581076 0.521223 0.254059
522 1 0.753159 0.580221 0.178124
455 1 0.933631 0.503964 0.078821
456 1 0.82363 0.60094 0.0792338
436 1 0.0082935 0.596955 0.0943305
526 1 0.92126 0.587241 0.162842
459 1 0.0733554 0.676133 0.0954965
529 1 0.989719 0.678233 0.18201
464 1 0.166594 0.749489 0.0811101
460 1 0.985044 0.749205 0.0874231
470 1 0.574329 0.747125 0.0261868
533 1 0.153582 0.675714 0.17781
628 1 0.0147676 0.943565 0.424581
463 1 0.246617 0.667398 0.0968154
468 1 0.322306 0.758686 0.0843695
487 1 0.232928 0.834909 0.103035
454 1 0.920754 0.5893 0.00681112
465 1 0.334475 0.673645 0.00672792
501 1 0.836438 0.847605 0.0128836
469 1 0.491593 0.672407 0.00402887
467 1 0.41134 0.681376 0.0941678
472 1 0.494896 0.752344 0.0990928
538 1 0.42036 0.761476 0.180429
466 1 0.402081 0.757445 0.0153926
527 1 0.917448 0.509013 0.252895
471 1 0.585318 0.661467 0.0829468
476 1 0.673034 0.762253 0.0807758
495 1 0.576419 0.83779 0.0946124
475 1 0.74104 0.678261 0.0794838
443 1 0.421744 0.512096 0.113563
499 1 0.750405 0.83304 0.0696192
646 1 0.927525 0.918037 0.335031
480 1 0.842909 0.758607 0.0924752
479 1 0.923009 0.666807 0.0863493
505 1 0.989575 0.500458 0.175964
549 1 0.841608 0.672631 0.162159
165 1 0.845973 0.998547 0.345923
483 1 0.101375 0.835197 0.0969019
484 1 0.00822918 0.929887 0.0900543
554 1 0.0867526 0.923607 0.170635
553 1 0.0181059 0.838715 0.163933
458 1 0.066451 0.753046 0.00778205
488 1 0.169487 0.928371 0.0858692
492 1 0.335401 0.907305 0.0851971
558 1 0.24984 0.930715 0.177159
677 1 0.163555 0.679665 0.492473
491 1 0.414713 0.828616 0.098853
647 1 0.925939 0.846558 0.443058
562 1 0.421394 0.927878 0.170618
496 1 0.495907 0.913773 0.0918623
500 1 0.661975 0.92577 0.0971625
494 1 0.581132 0.93365 0.0180156
83 1 0.399785 0.99226 0.258832
645 1 0.846284 0.844339 0.36014
504 1 0.826467 0.924679 0.080902
473 1 0.675286 0.651073 0.00149004
570 1 0.74703 0.926454 0.171045
583 1 0.231945 0.51224 0.421836
503 1 0.923639 0.844416 0.0947083
513 1 0.32891 0.503339 0.176289
512 1 0.171297 0.59509 0.269459
648 1 0.842274 0.925301 0.437805
95 1 0.919083 0.999449 0.261512
510 1 0.259096 0.586786 0.176511
585 1 0.329965 0.5077 0.348005
514 1 0.410143 0.600172 0.185781
589 1 0.502492 0.504749 0.325726
516 1 0.330531 0.583551 0.250516
520 1 0.501849 0.585739 0.25772
515 1 0.408198 0.509501 0.245586
518 1 0.588903 0.599669 0.162632
524 1 0.651999 0.595918 0.256677
590 1 0.586535 0.594709 0.333386
167 1 0.92365 0.999403 0.431586
547 1 0.7524 0.677972 0.259389
594 1 0.75647 0.582147 0.321503
621 1 0.840713 0.657286 0.329706
577 1 0.00943718 0.510535 0.337806
508 1 0.995526 0.588277 0.245228
528 1 0.841313 0.596089 0.243638
581 1 0.167773 0.50848 0.336842
530 1 0.0764008 0.752446 0.174957
531 1 0.0768113 0.673715 0.262341
532 1 0.000144967 0.75813 0.272524
605 1 0.165355 0.676876 0.340114
602 1 0.0729927 0.752722 0.36679
534 1 0.23937 0.75031 0.164739
535 1 0.241338 0.676201 0.259608
537 1 0.330468 0.680528 0.168912
536 1 0.167865 0.759617 0.247259
540 1 0.331336 0.759249 0.258887
541 1 0.500664 0.66769 0.164086
539 1 0.4078 0.682794 0.251895
544 1 0.51033 0.758678 0.239225
545 1 0.677622 0.678391 0.172045
543 1 0.577823 0.672477 0.236028
542 1 0.593949 0.750687 0.154362
548 1 0.675792 0.762375 0.252835
617 1 0.669443 0.677375 0.338583
546 1 0.757488 0.750406 0.1724
571 1 0.760049 0.834389 0.254514
618 1 0.742941 0.762714 0.340092
550 1 0.912721 0.761509 0.169234
552 1 0.841337 0.753105 0.259842
551 1 0.919053 0.682144 0.261108
622 1 0.915351 0.753569 0.350554
593 1 0.672035 0.509418 0.340685
555 1 0.0947401 0.830806 0.259965
557 1 0.169154 0.849972 0.182255
556 1 0.0113868 0.922801 0.250313
561 1 0.343823 0.83352 0.175871
559 1 0.255385 0.844495 0.260991
560 1 0.162 0.931346 0.25273
630 1 0.241006 0.913208 0.348773
563 1 0.422396 0.848467 0.259235
564 1 0.326139 0.921521 0.27666
565 1 0.490715 0.845108 0.177379
568 1 0.503504 0.922839 0.251367
634 1 0.412476 0.920367 0.344729
566 1 0.575126 0.926203 0.175229
567 1 0.584769 0.833547 0.244144
641 1 0.674526 0.858896 0.346365
569 1 0.666093 0.837045 0.168009
573 1 0.808734 0.837771 0.160924
572 1 0.666285 0.917624 0.252944
576 1 0.837022 0.93047 0.247579
575 1 0.922623 0.83792 0.261657
574 1 0.911211 0.917467 0.174377
625 1 0.00819472 0.847478 0.333034
438 1 0.258594 0.57984 0.0101147
453 1 0.851964 0.507793 0.0077902
578 1 0.0738822 0.60037 0.337489
603 1 0.0761999 0.670513 0.432695
584 1 0.153557 0.588836 0.403139
591 1 0.589173 0.50297 0.413496
580 1 0.99141 0.585742 0.414875
493 1 0.485428 0.824917 0.0283922
582 1 0.253562 0.585048 0.330518
588 1 0.322876 0.591091 0.427838
665 1 0.683367 0.514952 0.493365
482 1 0.0851546 0.926828 0.00956535
685 1 0.486305 0.66228 0.481598
586 1 0.406633 0.592988 0.324056
525 1 0.838079 0.506607 0.180416
23 1 0.914305 0.996078 0.0835558
592 1 0.501455 0.574119 0.420558
615 1 0.592584 0.656621 0.425788
597 1 0.837504 0.515418 0.331792
596 1 0.685998 0.58773 0.417363
600 1 0.840899 0.585437 0.411799
595 1 0.757332 0.510439 0.415037
643 1 0.748173 0.837393 0.425176
599 1 0.924874 0.50409 0.414172
670 1 0.921945 0.573627 0.492098
598 1 0.924139 0.587123 0.331317
601 1 0.99589 0.668552 0.341845
607 1 0.240847 0.657931 0.415756
609 1 0.32728 0.665326 0.34457
606 1 0.243728 0.759386 0.341079
608 1 0.164306 0.767671 0.425649
612 1 0.333543 0.764158 0.420667
511 1 0.243705 0.50887 0.243234
587 1 0.414569 0.503402 0.398076
613 1 0.525582 0.675358 0.336484
610 1 0.416594 0.761043 0.333438
611 1 0.423389 0.66848 0.399083
616 1 0.51108 0.762004 0.41162
157 1 0.496894 0.999176 0.33691
614 1 0.589506 0.75549 0.3248
639 1 0.594178 0.838718 0.412516
619 1 0.749571 0.663714 0.416907
507 1 0.0919424 0.512648 0.251325
620 1 0.674213 0.755707 0.408535
441 1 0.353689 0.508463 0.0199888
81 1 0.333289 0.998079 0.179558
623 1 0.917898 0.665718 0.434724
624 1 0.823231 0.749792 0.419675
604 1 0.997024 0.748413 0.443295
709 1 0.516104 0.836251 0.499454
477 1 0.8312 0.667757 0.00224889
626 1 0.0825143 0.92896 0.335997
629 1 0.168875 0.84313 0.344549
627 1 0.0801097 0.838151 0.432741
631 1 0.235442 0.841044 0.430457
632 1 0.171777 0.933696 0.430685
490 1 0.418169 0.906987 0.0110929
497 1 0.649376 0.840477 0.0142725
447 1 0.578586 0.517184 0.0932236
637 1 0.513483 0.838634 0.336038
633 1 0.33271 0.833883 0.339874
636 1 0.329702 0.922222 0.416212
635 1 0.436764 0.835208 0.414571
486 1 0.244969 0.914742 0.0047273
509 1 0.164871 0.511705 0.15983
638 1 0.587328 0.928452 0.329896
640 1 0.503406 0.921791 0.421144
642 1 0.768747 0.922243 0.337844
644 1 0.664942 0.943798 0.42119
681 1 0.343896 0.683746 0.490871
658 1 0.410086 0.575716 0.487043
481 1 0.985984 0.845814 0.00633051
19 1 0.745628 0.999709 0.0943535
579 1 0.0883204 0.506566 0.419364
478 1 0.911809 0.745853 0.0046734
9 1 0.320104 0.998259 0.0100275
77 1 0.152787 0.996419 0.150587
722 1 0.0747669 0.577266 0.683663
689 1 0.665304 0.665255 0.504406
656 1 0.174882 0.589349 0.603214
679 1 0.256353 0.664594 0.58285
726 1 0.252879 0.590737 0.672931
749 1 0.157702 0.669796 0.687402
753 1 0.349046 0.668817 0.673782
859 1 0.749851 0.83594 0.934859
705 1 0.344021 0.833704 0.506224
660 1 0.320369 0.57428 0.578347
664 1 0.486447 0.580341 0.564365
375 1 0.588692 0.999163 0.918377
299 1 0.422487 0.998565 0.749285
667 1 0.740591 0.500947 0.577336
687 1 0.581368 0.662822 0.574126
701 1 0.165357 0.842081 0.518592
668 1 0.668294 0.584564 0.574682
738 1 0.739275 0.582116 0.668422
761 1 0.64912 0.660456 0.658184
669 1 0.834341 0.513877 0.501083
672 1 0.825976 0.584644 0.588651
652 1 0.00157354 0.590317 0.597073
693 1 0.821594 0.671314 0.511242
801 1 0.348157 0.503085 0.837128
675 1 0.0844597 0.667632 0.587622
699 1 0.0933313 0.849151 0.601068
676 1 0.983055 0.753733 0.568292
746 1 0.0801015 0.75372 0.649215
674 1 0.0841353 0.754664 0.512728
680 1 0.166007 0.748923 0.588125
717 1 0.821908 0.834344 0.503529
684 1 0.329807 0.745532 0.57932
683 1 0.405203 0.659302 0.579158
707 1 0.428845 0.815858 0.610822
754 1 0.426601 0.728625 0.669189
757 1 0.504073 0.6562 0.6475
855 1 0.577941 0.837443 0.943672
688 1 0.508622 0.744955 0.584031
692 1 0.664046 0.742136 0.584126
691 1 0.741331 0.673952 0.597244
696 1 0.820898 0.754919 0.604662
793 1 0.00298426 0.504634 0.831884
765 1 0.822105 0.665357 0.670152
762 1 0.746141 0.741492 0.683665
695 1 0.902396 0.669216 0.589921
766 1 0.917426 0.760651 0.66359
770 1 0.101825 0.930053 0.66985
698 1 0.0980651 0.941113 0.505621
702 1 0.263572 0.923896 0.505802
703 1 0.256831 0.834765 0.586893
725 1 0.168147 0.513127 0.679962
704 1 0.182499 0.935771 0.574532
229 1 0.498465 0.994493 0.514479
708 1 0.329892 0.911992 0.592664
777 1 0.336465 0.81616 0.677827
666 1 0.764229 0.588712 0.503697
659 1 0.401237 0.505571 0.5778
711 1 0.595083 0.825985 0.584403
712 1 0.502808 0.905865 0.579142
716 1 0.674954 0.923335 0.592921
715 1 0.746412 0.844324 0.582496
786 1 0.757174 0.911956 0.663337
485 1 0.16873 0.830956 0.99188
450 1 0.756989 0.575567 0.989063
305 1 0.66773 0.991771 0.67488
719 1 0.903018 0.831277 0.578459
720 1 0.840706 0.921926 0.586421
700 1 0.0081532 0.929068 0.60619
383 1 0.911875 0.985371 0.909256
728 1 0.170958 0.576818 0.771297
745 1 0.998258 0.663131 0.66142
747 1 0.0745027 0.657997 0.761191
732 1 0.329825 0.577134 0.759497
671 1 0.910042 0.507828 0.572997
730 1 0.402762 0.57681 0.655504
736 1 0.500626 0.577438 0.742188
825 1 0.33806 0.662922 0.84129
734 1 0.572011 0.571245 0.655319
759 1 0.570673 0.673915 0.759806
740 1 0.654971 0.582667 0.73206
651 1 0.0804498 0.505585 0.577617
710 1 0.585136 0.931546 0.506715
763 1 0.745451 0.671499 0.753521
744 1 0.827754 0.600753 0.75595
724 1 0.991688 0.603063 0.762148
742 1 0.909637 0.574281 0.667568
814 1 0.910401 0.588743 0.837196
301 1 0.507428 0.992881 0.670903
739 1 0.741827 0.502031 0.751197
752 1 0.183275 0.747261 0.754244
771 1 0.099551 0.832738 0.728622
817 1 0.997393 0.677059 0.846104
750 1 0.249366 0.736608 0.662391
751 1 0.253286 0.660242 0.760741
773 1 0.185457 0.834174 0.670575
775 1 0.260556 0.835166 0.756077
821 1 0.165052 0.671543 0.830104
755 1 0.425359 0.655068 0.754585
756 1 0.340904 0.753967 0.760962
760 1 0.501127 0.741672 0.740543
779 1 0.433066 0.825544 0.745169
758 1 0.592188 0.754201 0.67466
781 1 0.517673 0.832787 0.66934
785 1 0.67129 0.833558 0.6729
764 1 0.65839 0.752863 0.759984
768 1 0.823571 0.753683 0.760963
837 1 0.826772 0.663173 0.843206
767 1 0.908308 0.675175 0.752429
748 1 0.0159593 0.748999 0.730027
841 1 0.0164613 0.830994 0.814017
791 1 0.93329 0.839441 0.756559
838 1 0.917446 0.745073 0.818831
303 1 0.587798 0.983732 0.748638
776 1 0.176075 0.925007 0.755833
774 1 0.248394 0.917378 0.66484
854 1 0.570876 0.909475 0.849959
845 1 0.173365 0.82977 0.822577
780 1 0.325298 0.92891 0.752536
846 1 0.251567 0.919748 0.832755
778 1 0.415842 0.927207 0.671543
850 1 0.418689 0.916656 0.8348
784 1 0.507145 0.914325 0.748526
462 1 0.253369 0.765913 0.993609
782 1 0.586916 0.915012 0.661849
783 1 0.582561 0.831649 0.762525
857 1 0.656684 0.837038 0.84717
858 1 0.756122 0.91905 0.82987
437 1 0.166383 0.508767 0.994363
789 1 0.848535 0.842672 0.670559
788 1 0.665113 0.907323 0.764508
787 1 0.748512 0.843826 0.75068
718 1 0.922476 0.930257 0.525127
769 1 0.992058 0.833755 0.652148
790 1 0.919991 0.927428 0.67048
772 1 0.0248435 0.924846 0.747319
792 1 0.826846 0.922445 0.740046
227 1 0.408738 0.995514 0.592563
697 1 0.00795578 0.858697 0.520813
673 1 0.985598 0.656373 0.50694
794 1 0.0803452 0.582865 0.842898
800 1 0.165542 0.57637 0.906871
650 1 0.0930261 0.5911 0.503705
434 1 0.0932468 0.587444 0.986972
819 1 0.0866985 0.680738 0.922994
489 1 0.332747 0.856741 0.989944
686 1 0.595248 0.7548 0.50009
851 1 0.417939 0.818889 0.929576
798 1 0.258646 0.579536 0.852145
804 1 0.356967 0.582904 0.926087
653 1 0.166864 0.502921 0.507096
809 1 0.670367 0.501641 0.83157
802 1 0.420036 0.579934 0.834642
808 1 0.510601 0.575626 0.912247
827 1 0.413945 0.668811 0.924659
829 1 0.498221 0.655135 0.840487
860 1 0.669963 0.909664 0.932722
806 1 0.603886 0.580111 0.833547
654 1 0.245893 0.586351 0.508324
812 1 0.664196 0.583058 0.915673
433 1 0.993982 0.513414 0.992163
862 1 0.924505 0.933709 0.822155
810 1 0.746748 0.582926 0.81849
816 1 0.82929 0.580996 0.910347
655 1 0.237279 0.506637 0.587368
815 1 0.913709 0.500013 0.921882
729 1 0.331365 0.506434 0.667356
796 1 0.999036 0.585918 0.916124
457 1 0.999875 0.670357 0.988693
818 1 0.092732 0.756926 0.814577
843 1 0.0755997 0.825674 0.913702
823 1 0.251714 0.658654 0.92882
824 1 0.164577 0.750352 0.904349
822 1 0.25521 0.748126 0.833313
828 1 0.332033 0.751849 0.923564
826 1 0.433285 0.744538 0.848176
832 1 0.507321 0.745026 0.935622
833 1 0.662383 0.680362 0.842889
853 1 0.50247 0.825366 0.832475
830 1 0.580891 0.75509 0.862118
831 1 0.580393 0.657038 0.923695
861 1 0.849291 0.841074 0.831427
835 1 0.754649 0.660278 0.920175
834 1 0.749695 0.772307 0.826756
840 1 0.836498 0.762592 0.919914
836 1 0.669944 0.761493 0.914479
502 1 0.915544 0.924668 0.995461
864 1 0.828742 0.905204 0.919038
839 1 0.912976 0.674375 0.920891
820 1 0.988324 0.76076 0.917394
863 1 0.917247 0.83966 0.908393
706 1 0.416319 0.915806 0.509249
844 1 0.995463 0.909335 0.908188
474 1 0.757036 0.751825 0.999935
690 1 0.73853 0.753331 0.51152
842 1 0.0970289 0.923341 0.844192
848 1 0.184192 0.902562 0.921105
847 1 0.256637 0.830741 0.913301
849 1 0.334224 0.831208 0.837127
852 1 0.33819 0.921175 0.911286
662 1 0.585016 0.581184 0.504709
799 1 0.257764 0.511331 0.923417
856 1 0.484883 0.923908 0.930503
743 1 0.898794 0.52036 0.755938
733 1 0.484248 0.512443 0.656092
714 1 0.749827 0.935235 0.514537
498 1 0.755223 0.929964 0.997016
741 1 0.820643 0.507031 0.665025
682 1 0.42716 0.765096 0.508382
361 1 0.00338978 0.999207 0.842779
461 1 0.165124 0.663867 0.995705
713 1 0.663476 0.858054 0.501917
