ITEM: TIMESTEP
6500
ITEM: NUMBER OF ATOMS
864
ITEM: BOX BOUNDS pp pp pp
0.0000000000000000e+00 3.1559999999999999e+01
0.0000000000000000e+00 3.1559999999999999e+01
0.0000000000000000e+00 3.1559999999999999e+01
ITEM: ATOMS id type xs ys zs
8 1 0.161205 0.0906352 0.0850893
157 1 0.507592 0.00623426 0.3254
74 1 0.0838759 0.0821885 0.160743
230 1 0.581577 0.0828839 0.496065
31 1 0.265932 0.155722 0.082799
585 1 0.33347 0.49294 0.316617
101 1 0.182164 0.157699 0.164056
12 1 0.344116 0.0817317 0.0907545
35 1 0.415398 0.173988 0.0811234
82 1 0.40357 0.0829905 0.166575
16 1 0.493893 0.0881281 0.0730762
86 1 0.584303 0.0818338 0.152118
113 1 0.650867 0.158242 0.167155
39 1 0.575716 0.162422 0.0686454
20 1 0.662069 0.0819676 0.0808534
90 1 0.746811 0.0851538 0.157183
24 1 0.832582 0.0869943 0.0848707
226 1 0.415518 0.0759902 0.488107
215 1 0.904032 0.331936 0.418218
4 1 0.0149353 0.0768654 0.0751854
47 1 0.927993 0.158189 0.0868648
94 1 0.915236 0.0848179 0.163423
261 1 0.820695 0.174703 0.479832
27 1 0.086731 0.16683 0.0825887
97 1 0.999751 0.155944 0.165636
51 1 0.0795821 0.330344 0.0813364
98 1 0.0777395 0.245984 0.162803
587 1 0.412651 0.49699 0.403336
32 1 0.16531 0.249979 0.0999302
129 1 0.338215 0.343104 0.161665
125 1 0.167885 0.332984 0.153248
55 1 0.260265 0.328573 0.0728186
25 1 0.00872013 0.175611 0.00321084
36 1 0.338595 0.253814 0.0682649
105 1 0.336864 0.184859 0.17025
59 1 0.416133 0.330024 0.0684447
40 1 0.506812 0.250046 0.0853687
44 1 0.661692 0.245174 0.0690128
43 1 0.743392 0.166361 0.0754406
117 1 0.823456 0.172107 0.156889
114 1 0.735674 0.242873 0.159761
67 1 0.750103 0.327386 0.0668256
48 1 0.834829 0.246077 0.0726499
28 1 0.00743592 0.24641 0.0853199
433 1 0.0110647 0.498845 0.00406519
93 1 0.825961 0.00509149 0.152004
56 1 0.178063 0.416879 0.078976
270 1 0.245223 0.405486 0.479942
126 1 0.238391 0.411372 0.170116
653 1 0.160231 0.489382 0.494515
266 1 0.0760691 0.41307 0.488159
60 1 0.325091 0.410865 0.0866338
64 1 0.509786 0.422047 0.0853985
130 1 0.421754 0.41622 0.153792
63 1 0.596667 0.341468 0.0698601
137 1 0.661123 0.329587 0.159296
68 1 0.669729 0.420386 0.0835301
29 1 0.18842 0.168284 0.00904232
455 1 0.920642 0.486536 0.0683085
72 1 0.834419 0.417553 0.0763218
141 1 0.820864 0.328074 0.147635
286 1 0.911724 0.423547 0.483928
138 1 0.744082 0.42191 0.159969
237 1 0.833123 0.00122357 0.497736
71 1 0.911365 0.330397 0.0806886
52 1 0.00566081 0.422902 0.0753781
142 1 0.899598 0.405155 0.164512
507 1 0.0806555 0.498817 0.247396
265 1 0.00694143 0.31761 0.493835
146 1 0.0861126 0.0917401 0.313001
173 1 0.165153 0.163424 0.320939
149 1 0.168545 0.0160283 0.32916
78 1 0.258572 0.0861705 0.165646
80 1 0.172888 0.0819702 0.233956
103 1 0.249112 0.165043 0.255162
150 1 0.25974 0.0681867 0.33546
84 1 0.320277 0.0841721 0.247654
107 1 0.413297 0.170884 0.244522
154 1 0.415623 0.0898367 0.325323
88 1 0.502756 0.0799387 0.248328
111 1 0.575681 0.160495 0.246
92 1 0.660684 0.0966774 0.249246
109 1 0.495293 0.160757 0.154605
158 1 0.586645 0.0844449 0.326292
38 1 0.575955 0.251865 0.0106365
595 1 0.734874 0.490756 0.414024
115 1 0.753621 0.16772 0.235994
96 1 0.828228 0.0865754 0.24892
185 1 0.668427 0.177434 0.322956
162 1 0.740872 0.0896172 0.332579
437 1 0.174495 0.498934 0.00202811
76 1 0.9958 0.0775888 0.237818
89 1 0.674891 0.0113166 0.175105
166 1 0.918869 0.0783986 0.32303
119 1 0.918233 0.173063 0.252459
435 1 0.0901412 0.494654 0.0793418
99 1 0.0826684 0.167594 0.233896
170 1 0.0856789 0.243184 0.336683
104 1 0.1708 0.233439 0.234336
123 1 0.0766557 0.341122 0.23809
197 1 0.163265 0.319983 0.312842
102 1 0.249336 0.253347 0.163919
108 1 0.343117 0.265447 0.243845
127 1 0.262224 0.337711 0.252764
174 1 0.252662 0.24787 0.318456
106 1 0.419712 0.249257 0.156567
131 1 0.418967 0.349714 0.241163
112 1 0.493732 0.257607 0.245873
110 1 0.578898 0.245508 0.165845
205 1 0.497492 0.328715 0.328441
182 1 0.574198 0.257291 0.327815
189 1 0.833169 0.169709 0.316996
116 1 0.65277 0.243474 0.243177
139 1 0.736825 0.340978 0.244906
186 1 0.735894 0.268085 0.324527
118 1 0.915915 0.238548 0.152242
120 1 0.819506 0.25328 0.239627
100 1 0.999496 0.261558 0.255601
193 1 0.984421 0.330016 0.337357
122 1 0.106287 0.427058 0.173441
194 1 0.0864604 0.411257 0.33181
285 1 0.832492 0.347804 0.489695
241 1 0.0113083 0.181434 0.489589
505 1 0.994601 0.497874 0.169391
128 1 0.173506 0.423019 0.265503
201 1 0.339517 0.333152 0.336778
132 1 0.331194 0.417985 0.2399
198 1 0.254816 0.412355 0.329881
133 1 0.511306 0.328347 0.169637
136 1 0.499975 0.422852 0.239783
134 1 0.59362 0.410685 0.15867
135 1 0.594652 0.329871 0.241696
250 1 0.421598 0.236029 0.485728
140 1 0.66578 0.41722 0.234711
209 1 0.647687 0.340098 0.334548
144 1 0.835087 0.4173 0.255855
527 1 0.91205 0.498684 0.275111
143 1 0.91316 0.327087 0.236588
121 1 0.99253 0.342228 0.159811
214 1 0.914604 0.406276 0.335901
124 1 0.00230066 0.417284 0.246264
213 1 0.833522 0.334828 0.334335
277 1 0.502943 0.332932 0.496477
23 1 0.910194 0.00815704 0.0715498
171 1 0.084581 0.163047 0.406726
258 1 0.75418 0.265644 0.49893
26 1 0.094048 0.238824 0.00247521
152 1 0.160488 0.0802579 0.4187
175 1 0.245782 0.152644 0.400188
145 1 0.0192417 0.0189899 0.333117
49 1 0.99776 0.32302 0.00920881
523 1 0.744948 0.497176 0.237395
155 1 0.419386 0.00377799 0.41122
156 1 0.332476 0.081854 0.415739
179 1 0.424124 0.164007 0.40032
181 1 0.507939 0.174452 0.326387
177 1 0.33689 0.159082 0.334331
274 1 0.423236 0.425595 0.496223
160 1 0.501956 0.0824831 0.405429
164 1 0.660107 0.0881836 0.416431
577 1 0.997186 0.495469 0.339453
9 1 0.328109 0.00101173 0.00310902
593 1 0.650545 0.484854 0.338534
10 1 0.408054 0.075218 0.00153353
168 1 0.826272 0.0811001 0.418714
148 1 0.00132994 0.0911177 0.413062
254 1 0.58408 0.250349 0.499684
449 1 0.672677 0.495495 0.00784003
583 1 0.251582 0.496375 0.405029
176 1 0.173493 0.239037 0.398339
195 1 0.0949999 0.33278 0.413401
253 1 0.508651 0.151156 0.485098
3 1 0.0903358 0.00138926 0.0675244
180 1 0.334666 0.243076 0.406971
199 1 0.237324 0.323506 0.403135
95 1 0.902263 0.00440608 0.241631
178 1 0.420042 0.250442 0.326989
184 1 0.501009 0.249929 0.412411
75 1 0.0826483 0.00412902 0.247832
183 1 0.582795 0.154972 0.413499
188 1 0.6646 0.257593 0.419028
187 1 0.745164 0.164821 0.410468
81 1 0.331932 0.00287286 0.162059
192 1 0.808737 0.249865 0.406414
169 1 0.00145909 0.159509 0.316308
191 1 0.913933 0.154623 0.428897
172 1 0.998086 0.246784 0.3976
190 1 0.905055 0.251415 0.331633
262 1 0.911326 0.241811 0.488993
222 1 0.245659 0.0930312 0.487113
196 1 0.00655245 0.400197 0.403456
83 1 0.413219 0.00281236 0.232394
19 1 0.749175 0.0166724 0.076014
200 1 0.173124 0.425122 0.403024
204 1 0.332616 0.40404 0.427508
208 1 0.491317 0.422295 0.405746
649 1 0.998067 0.487145 0.495219
167 1 0.918308 0.0137559 0.414782
203 1 0.424418 0.332741 0.40344
202 1 0.410903 0.421713 0.327369
212 1 0.661725 0.409544 0.420737
525 1 0.83562 0.494787 0.167339
206 1 0.569638 0.407135 0.327784
257 1 0.657708 0.167542 0.486269
207 1 0.580829 0.327817 0.4204
211 1 0.743273 0.338292 0.420117
216 1 0.825985 0.418042 0.406866
246 1 0.241849 0.240461 0.486897
210 1 0.740599 0.422538 0.318937
273 1 0.338071 0.315703 0.490637
233 1 0.663345 0.0015824 0.497133
249 1 0.333985 0.16388 0.496207
161 1 0.666954 0.00846735 0.33696
58 1 0.407691 0.420233 0.0092405
165 1 0.835865 0.00658568 0.33197
22 1 0.927903 0.0929626 0.000798116
159 1 0.576058 0.00586624 0.411278
79 1 0.244527 0.00836687 0.242425
242 1 0.0965175 0.248546 0.49924
579 1 0.0756094 0.489421 0.411158
511 1 0.26052 0.494318 0.23752
597 1 0.824652 0.499272 0.333813
661 1 0.497551 0.492403 0.487053
151 1 0.25041 0.00174159 0.427681
147 1 0.088328 0.00395805 0.428479
11 1 0.414571 0.00514613 0.0886624
87 1 0.58027 0.00131093 0.243535
519 1 0.586869 0.498956 0.258026
62 1 0.581909 0.423809 0.000412058
153 1 0.332162 0.00395109 0.332292
269 1 0.17368 0.323977 0.486458
224 1 0.163289 0.0780166 0.582981
239 1 0.90182 0.00217797 0.5871
220 1 0.00710508 0.0851276 0.587962
290 1 0.0771357 0.0747444 0.671117
294 1 0.250745 0.0761727 0.670589
793 1 0.00267404 0.490037 0.834166
799 1 0.264233 0.497711 0.912808
228 1 0.32768 0.0800516 0.560246
232 1 0.490693 0.0690859 0.585638
805 1 0.492672 0.498674 0.836508
70 1 0.908125 0.415538 0.991626
302 1 0.581032 0.0883744 0.664547
255 1 0.574365 0.153476 0.57832
236 1 0.663386 0.085651 0.578984
259 1 0.738202 0.175548 0.583555
295 1 0.247064 0.00540357 0.746446
245 1 0.163356 0.16067 0.514401
240 1 0.832718 0.0899458 0.587368
311 1 0.918244 0.0184599 0.740793
305 1 0.669979 0.0056943 0.654862
243 1 0.074386 0.165854 0.60671
248 1 0.159723 0.247161 0.58208
34 1 0.417699 0.249478 0.988168
313 1 0.993679 0.165615 0.659861
247 1 0.242604 0.153166 0.580373
743 1 0.930707 0.496334 0.755465
271 1 0.24926 0.313316 0.581726
252 1 0.344127 0.237864 0.576833
321 1 0.329811 0.163526 0.658154
251 1 0.420091 0.159201 0.581872
322 1 0.410198 0.266515 0.664354
325 1 0.495018 0.173496 0.669082
256 1 0.497535 0.255688 0.583008
326 1 0.580941 0.246325 0.668568
260 1 0.656565 0.24714 0.588769
238 1 0.909752 0.0776547 0.505397
329 1 0.656194 0.172752 0.662448
283 1 0.749765 0.337976 0.579883
264 1 0.833357 0.267403 0.57004
353 1 0.662077 0.324283 0.68049
65 1 0.675437 0.351285 0.998349
6 1 0.246128 0.0834956 0.993772
263 1 0.928892 0.178531 0.580088
244 1 0.00262821 0.253452 0.582882
367 1 0.263438 0.000917265 0.920274
267 1 0.0716415 0.325537 0.571335
337 1 0.997069 0.334311 0.686814
272 1 0.160138 0.409732 0.568998
53 1 0.162653 0.328574 0.997246
278 1 0.580397 0.410005 0.50898
345 1 0.330036 0.342317 0.650015
276 1 0.334351 0.422689 0.564936
30 1 0.258667 0.259249 0.987301
297 1 0.339383 0.00636044 0.655378
2 1 0.101687 0.0949728 0.99808
275 1 0.405388 0.334522 0.570781
426 1 0.745965 0.423275 0.836204
346 1 0.408835 0.419694 0.662758
667 1 0.74824 0.492612 0.592174
349 1 0.499456 0.335049 0.670561
279 1 0.575768 0.334262 0.58787
280 1 0.497886 0.417187 0.576341
350 1 0.585468 0.411164 0.682504
284 1 0.661324 0.411003 0.590594
301 1 0.500634 0.00304135 0.676386
354 1 0.753017 0.417135 0.664293
288 1 0.858909 0.413362 0.586886
234 1 0.755906 0.0807248 0.506235
287 1 0.918226 0.330007 0.57387
268 1 0.996251 0.417023 0.579829
379 1 0.728997 0.0120935 0.922549
358 1 0.933091 0.417114 0.666761
735 1 0.575797 0.491135 0.762379
296 1 0.165168 0.0891897 0.753988
292 1 0.00219038 0.0971294 0.745402
362 1 0.085793 0.0752698 0.825605
14 1 0.578069 0.0683645 0.991958
731 1 0.41029 0.49453 0.740015
366 1 0.258324 0.100011 0.829016
298 1 0.413781 0.0796149 0.664261
300 1 0.333233 0.0826727 0.742011
370 1 0.415038 0.10206 0.83867
46 1 0.918856 0.243757 0.992239
428 1 0.672163 0.423491 0.920562
304 1 0.48932 0.0968955 0.758783
397 1 0.506059 0.169131 0.83919
308 1 0.668351 0.0955283 0.742139
374 1 0.5813 0.0952037 0.822832
306 1 0.748943 0.0805536 0.656692
423 1 0.582411 0.34728 0.926403
331 1 0.746961 0.179938 0.734526
333 1 0.834347 0.182504 0.647632
310 1 0.911739 0.0923181 0.659717
312 1 0.82227 0.0929176 0.740474
335 1 0.916634 0.163495 0.73515
382 1 0.912715 0.0836617 0.821672
405 1 0.837736 0.164043 0.845794
317 1 0.170976 0.156839 0.66404
315 1 0.0746929 0.170373 0.734629
314 1 0.0753321 0.263991 0.670211
339 1 0.0864699 0.335662 0.753038
320 1 0.175185 0.248513 0.739486
316 1 0.978637 0.247555 0.752225
319 1 0.251726 0.169617 0.741915
318 1 0.252798 0.249655 0.65921
343 1 0.256402 0.341334 0.735213
389 1 0.168877 0.171247 0.83417
393 1 0.347707 0.184042 0.825767
323 1 0.415461 0.171445 0.73324
324 1 0.325055 0.250333 0.738025
347 1 0.405284 0.333158 0.743833
327 1 0.576493 0.169501 0.739749
328 1 0.490418 0.260969 0.758681
332 1 0.663425 0.248592 0.761608
425 1 0.663221 0.335643 0.841863
401 1 0.655311 0.17883 0.843444
398 1 0.583201 0.250746 0.840776
421 1 0.498269 0.334269 0.836792
330 1 0.754693 0.267285 0.671832
336 1 0.838631 0.255126 0.761128
402 1 0.734215 0.242198 0.831898
334 1 0.902199 0.257914 0.659681
357 1 0.833958 0.351495 0.670961
406 1 0.911802 0.24938 0.845133
338 1 0.0860006 0.413926 0.653237
410 1 0.0964956 0.414109 0.833245
341 1 0.160125 0.336067 0.668337
344 1 0.160691 0.423254 0.737771
342 1 0.252354 0.421615 0.659666
348 1 0.325772 0.430301 0.744266
18 1 0.754284 0.0974845 0.993823
418 1 0.425569 0.403064 0.8332
809 1 0.667943 0.494764 0.830457
381 1 0.836092 0.00599655 0.806619
352 1 0.498891 0.414378 0.745186
351 1 0.58306 0.324029 0.758012
356 1 0.671337 0.412909 0.749233
37 1 0.487912 0.157095 0.988361
221 1 0.163402 0.00162073 0.505243
422 1 0.584554 0.41135 0.829723
355 1 0.768397 0.338407 0.761358
723 1 0.0806799 0.497037 0.746861
359 1 0.917036 0.342369 0.75464
340 1 0.0160287 0.41619 0.745776
424 1 0.505699 0.423719 0.91645
429 1 0.840229 0.336657 0.840775
360 1 0.849501 0.429183 0.761562
430 1 0.923054 0.419591 0.842166
669 1 0.830189 0.49059 0.501122
368 1 0.162198 0.0900209 0.921978
364 1 0.994004 0.0822643 0.916752
387 1 0.0835914 0.168122 0.901539
50 1 0.0937575 0.419478 0.988685
363 1 0.0814498 0.0142896 0.92178
45 1 0.840879 0.174757 0.999301
372 1 0.330668 0.0825581 0.921715
391 1 0.254097 0.171961 0.912287
725 1 0.168258 0.495379 0.658991
281 1 0.659642 0.328704 0.50174
69 1 0.8279 0.332833 0.988277
419 1 0.421495 0.327454 0.916097
371 1 0.417663 0.00263056 0.914464
376 1 0.502863 0.0684873 0.907856
399 1 0.568953 0.164945 0.920539
380 1 0.658413 0.0819249 0.908237
651 1 0.0951945 0.492086 0.57502
727 1 0.249161 0.499806 0.738585
21 1 0.829974 0.0194594 0.994067
378 1 0.740255 0.104806 0.818186
57 1 0.331212 0.33182 0.99963
54 1 0.249729 0.427885 0.998211
384 1 0.842746 0.0801697 0.904792
432 1 0.832208 0.443813 0.901687
386 1 0.0935572 0.254484 0.821822
388 1 0.00701252 0.245367 0.922068
392 1 0.16126 0.246884 0.911996
365 1 0.182698 0.0219596 0.833374
739 1 0.751695 0.499069 0.74469
413 1 0.180568 0.335606 0.809056
390 1 0.243633 0.253763 0.820892
417 1 0.326405 0.350865 0.841122
61 1 0.505151 0.336411 0.992711
395 1 0.411576 0.169094 0.918155
394 1 0.42118 0.252494 0.835219
396 1 0.345384 0.254577 0.906237
737 1 0.671535 0.492529 0.672958
309 1 0.827092 0.00140043 0.665012
400 1 0.50866 0.262995 0.930164
227 1 0.410915 0.0116326 0.575644
404 1 0.659856 0.258734 0.935285
403 1 0.733077 0.169023 0.903073
408 1 0.810701 0.2484 0.908627
427 1 0.752352 0.345658 0.91103
42 1 0.753961 0.248157 0.998713
385 1 0.995878 0.180116 0.827182
407 1 0.929127 0.165386 0.921888
431 1 0.915036 0.326096 0.921873
409 1 0.99872 0.332573 0.833356
411 1 0.0774009 0.329749 0.92683
412 1 0.00391568 0.427761 0.915873
733 1 0.494546 0.49552 0.663886
414 1 0.247835 0.420131 0.823933
415 1 0.239521 0.335952 0.89634
416 1 0.170565 0.431788 0.917722
420 1 0.331748 0.419275 0.929962
815 1 0.926677 0.498212 0.925296
218 1 0.0791581 0.0910214 0.50263
303 1 0.585344 0.015591 0.748827
41 1 0.659543 0.160059 0.997079
5 1 0.169114 0.0110953 0.989268
665 1 0.649798 0.496982 0.507386
223 1 0.246719 0.000626014 0.585864
66 1 0.765506 0.423977 0.994019
377 1 0.67325 0.0029057 0.8183
33 1 0.331926 0.169327 0.995823
282 1 0.761217 0.410861 0.508125
440 1 0.179695 0.58333 0.0734945
436 1 0.0163531 0.596189 0.0813635
444 1 0.338028 0.585354 0.0712062
533 1 0.169894 0.677422 0.163336
636 1 0.344448 0.917631 0.418384
510 1 0.242275 0.586054 0.172166
628 1 0.0127497 0.93456 0.41573
91 1 0.780002 0.991779 0.247409
448 1 0.496316 0.587902 0.0677757
467 1 0.412294 0.6734 0.0732089
541 1 0.482713 0.66897 0.164415
648 1 0.834672 0.917738 0.397528
474 1 0.747901 0.734658 0.00300231
452 1 0.662938 0.58524 0.0973601
518 1 0.583013 0.60048 0.170644
513 1 0.325482 0.517857 0.159053
522 1 0.75604 0.604727 0.188535
475 1 0.745273 0.658687 0.0916012
686 1 0.569566 0.777016 0.493427
451 1 0.742241 0.51585 0.0959613
456 1 0.835505 0.57682 0.0876566
581 1 0.171852 0.502573 0.33845
509 1 0.167742 0.500816 0.157146
459 1 0.100778 0.67636 0.084709
530 1 0.0925007 0.760115 0.157377
460 1 0.997393 0.758832 0.0835472
553 1 0.9913 0.840607 0.173784
591 1 0.570206 0.516441 0.408799
464 1 0.167749 0.753541 0.0719769
463 1 0.249397 0.678698 0.0683022
537 1 0.332407 0.660584 0.16106
487 1 0.242869 0.8284 0.0738409
468 1 0.33244 0.761051 0.0707916
472 1 0.506692 0.759575 0.0841606
471 1 0.584207 0.669646 0.0769685
476 1 0.668394 0.741119 0.0871851
495 1 0.599649 0.84296 0.0819482
470 1 0.593615 0.757506 0.0162737
549 1 0.843233 0.666501 0.162761
497 1 0.672408 0.818374 0.00554187
499 1 0.744671 0.833305 0.0732473
573 1 0.849156 0.84996 0.156288
569 1 0.667608 0.843692 0.179721
546 1 0.761686 0.772069 0.164298
710 1 0.586467 0.921814 0.476263
479 1 0.912088 0.665341 0.0820017
480 1 0.831391 0.754329 0.0876058
550 1 0.915426 0.752786 0.16611
483 1 0.0933754 0.833748 0.079492
484 1 0.992804 0.924265 0.0773826
447 1 0.580696 0.503699 0.0776665
632 1 0.162248 0.924597 0.41937
557 1 0.181386 0.822467 0.158071
488 1 0.169331 0.912071 0.0826854
558 1 0.251573 0.920006 0.168064
718 1 0.907911 0.923605 0.483175
492 1 0.327407 0.911989 0.0763177
491 1 0.412088 0.839114 0.0750531
517 1 0.494481 0.507378 0.165094
561 1 0.330563 0.835119 0.158689
705 1 0.334458 0.829887 0.482535
644 1 0.685577 0.913522 0.416132
496 1 0.492285 0.907466 0.0752057
500 1 0.673299 0.930167 0.101307
566 1 0.585239 0.918552 0.169004
77 1 0.160345 0.99954 0.159235
589 1 0.483934 0.506571 0.315566
570 1 0.75213 0.908508 0.183294
498 1 0.736137 0.920027 0.00686659
693 1 0.826552 0.658827 0.494763
503 1 0.920103 0.850594 0.0793578
504 1 0.825335 0.928119 0.0827249
574 1 0.923912 0.919138 0.173453
625 1 0.0186759 0.836509 0.334609
506 1 0.0964694 0.595409 0.15209
529 1 0.00588744 0.687276 0.163797
709 1 0.485502 0.853372 0.489977
508 1 0.995377 0.583476 0.256456
601 1 0.995289 0.674994 0.34896
512 1 0.168257 0.604188 0.244431
582 1 0.244258 0.58744 0.336669
678 1 0.245909 0.754983 0.48229
521 1 0.653104 0.504129 0.169796
514 1 0.420776 0.590121 0.158356
515 1 0.40253 0.513516 0.228785
516 1 0.322458 0.597953 0.24843
666 1 0.737511 0.567087 0.491497
545 1 0.667357 0.669021 0.164594
163 1 0.755728 0.997448 0.412346
520 1 0.495584 0.584738 0.237556
524 1 0.653722 0.574439 0.247977
647 1 0.916194 0.838029 0.420746
594 1 0.728021 0.568945 0.330669
547 1 0.769325 0.699294 0.245787
617 1 0.665923 0.669141 0.318858
673 1 0.98827 0.659885 0.485173
526 1 0.920798 0.582079 0.181941
528 1 0.835948 0.568001 0.250776
598 1 0.925631 0.592752 0.344721
531 1 0.0795629 0.672816 0.243322
532 1 0.99382 0.748721 0.253167
534 1 0.256378 0.743751 0.154125
535 1 0.250174 0.678407 0.265639
536 1 0.161743 0.750554 0.241514
540 1 0.332426 0.763605 0.242266
538 1 0.400849 0.745612 0.164146
539 1 0.408092 0.663613 0.256459
610 1 0.420821 0.753116 0.329985
563 1 0.414857 0.843536 0.241059
544 1 0.496404 0.754747 0.237922
543 1 0.576235 0.669574 0.25301
542 1 0.585258 0.747437 0.149067
567 1 0.584123 0.842933 0.25709
614 1 0.579058 0.750851 0.322581
548 1 0.668599 0.756791 0.259249
618 1 0.741044 0.757228 0.34
552 1 0.855285 0.770259 0.254507
571 1 0.748348 0.826974 0.25938
641 1 0.673991 0.845088 0.339424
551 1 0.914397 0.668028 0.260722
575 1 0.926694 0.848491 0.284089
621 1 0.806223 0.658509 0.334286
622 1 0.916928 0.766542 0.342324
554 1 0.0858344 0.910378 0.161616
555 1 0.0845274 0.850968 0.254553
560 1 0.162986 0.928941 0.238488
556 1 0.00400866 0.931965 0.264767
626 1 0.0921346 0.922889 0.33175
635 1 0.414012 0.831925 0.406434
559 1 0.256067 0.838007 0.237681
630 1 0.246315 0.926601 0.337119
501 1 0.824886 0.841684 0.00721835
562 1 0.410228 0.916298 0.160603
225 1 0.334575 0.990751 0.487353
564 1 0.330168 0.921275 0.251821
713 1 0.653398 0.841223 0.492867
634 1 0.401701 0.915534 0.333765
565 1 0.49222 0.838749 0.158783
568 1 0.495593 0.921567 0.242782
638 1 0.5851 0.930218 0.331111
637 1 0.500727 0.840384 0.321592
694 1 0.903012 0.760183 0.489547
645 1 0.825355 0.829966 0.346526
572 1 0.671253 0.938302 0.250422
642 1 0.751522 0.917807 0.321614
473 1 0.669537 0.662737 0.0164784
646 1 0.925377 0.935792 0.336663
576 1 0.837443 0.903066 0.263689
714 1 0.760257 0.917945 0.489817
490 1 0.407624 0.932176 0.00501847
681 1 0.325202 0.666257 0.498451
578 1 0.0982486 0.582906 0.317259
580 1 0.00651996 0.57841 0.411862
605 1 0.163487 0.676923 0.331126
609 1 0.330722 0.673799 0.335817
584 1 0.164881 0.573189 0.410639
607 1 0.256176 0.669019 0.409971
650 1 0.0828362 0.581608 0.484925
439 1 0.253125 0.503284 0.0771301
502 1 0.90113 0.922912 0.00910652
588 1 0.338741 0.58126 0.414225
586 1 0.419738 0.591053 0.341161
592 1 0.499189 0.585994 0.412174
478 1 0.913005 0.753658 0.00721266
73 1 0.0171216 0.998751 0.156873
7 1 0.249113 0.994694 0.0751693
590 1 0.568094 0.574614 0.324484
596 1 0.659471 0.574476 0.415494
457 1 0.984598 0.677336 0.00326783
453 1 0.840269 0.504842 0.0130535
599 1 0.917738 0.506568 0.416788
657 1 0.345529 0.502729 0.492985
639 1 0.589655 0.833254 0.400404
600 1 0.809489 0.569455 0.412821
623 1 0.909797 0.676063 0.412377
443 1 0.41191 0.512769 0.0747661
602 1 0.0846502 0.747328 0.324306
603 1 0.0813625 0.658294 0.405495
701 1 0.161472 0.839752 0.491495
606 1 0.243614 0.752923 0.331598
434 1 0.0843221 0.574515 0.00644798
608 1 0.1562 0.757499 0.415471
631 1 0.246548 0.844438 0.411514
469 1 0.489057 0.689012 0.00313014
633 1 0.333506 0.826247 0.3276
611 1 0.417371 0.661071 0.427817
612 1 0.339177 0.743038 0.418109
616 1 0.503661 0.747673 0.420588
677 1 0.161592 0.658409 0.491751
613 1 0.494412 0.665171 0.321776
615 1 0.577085 0.659807 0.401127
690 1 0.723156 0.740309 0.49583
643 1 0.756291 0.82121 0.428333
619 1 0.732609 0.665298 0.425908
620 1 0.64689 0.746306 0.422015
624 1 0.831438 0.737353 0.419555
654 1 0.254296 0.58928 0.483776
454 1 0.918559 0.586374 0.0046823
640 1 0.497249 0.930216 0.401766
604 1 0.995396 0.759889 0.421872
627 1 0.0810186 0.836379 0.42608
85 1 0.499396 0.995878 0.164126
629 1 0.163541 0.832974 0.327165
1 1 0.00370347 0.991668 0.00381664
15 1 0.580314 0.98706 0.0736389
17 1 0.665157 0.99953 0.00821852
689 1 0.625456 0.67775 0.491414
674 1 0.0704139 0.73336 0.491709
722 1 0.0831227 0.579613 0.653967
652 1 0.00309073 0.583267 0.564849
749 1 0.17109 0.656433 0.653726
797 1 0.173718 0.513841 0.831872
656 1 0.172041 0.585513 0.576279
859 1 0.740545 0.838616 0.925681
726 1 0.253906 0.581463 0.654481
660 1 0.3302 0.587554 0.581379
730 1 0.423873 0.585239 0.666607
664 1 0.510294 0.579634 0.585075
683 1 0.419521 0.67627 0.607221
477 1 0.841471 0.667496 0.993772
229 1 0.501134 0.997772 0.502547
717 1 0.835287 0.837237 0.512526
734 1 0.580184 0.567405 0.677519
757 1 0.502669 0.658579 0.669943
219 1 0.0721906 0.996219 0.569036
668 1 0.663578 0.570168 0.594749
738 1 0.753166 0.579685 0.658688
466 1 0.405144 0.754843 0.991355
672 1 0.835857 0.585112 0.586303
742 1 0.928597 0.579646 0.655148
675 1 0.0825957 0.656358 0.57477
745 1 0.00518621 0.667484 0.669208
746 1 0.07466 0.748492 0.668476
769 1 0.98808 0.822986 0.659101
679 1 0.259732 0.661533 0.578898
680 1 0.157666 0.738664 0.56946
684 1 0.333566 0.738391 0.584555
685 1 0.490465 0.668492 0.513472
754 1 0.403819 0.783355 0.670711
777 1 0.317255 0.833632 0.643144
753 1 0.330721 0.665151 0.669322
442 1 0.41193 0.595676 0.988133
688 1 0.50873 0.755506 0.580605
687 1 0.581657 0.675267 0.581472
863 1 0.903093 0.834399 0.933046
758 1 0.578593 0.751105 0.662526
462 1 0.243382 0.753098 0.990038
692 1 0.66411 0.74197 0.581276
691 1 0.734992 0.654306 0.567423
762 1 0.756487 0.749688 0.665015
715 1 0.745224 0.821734 0.577239
761 1 0.678593 0.66222 0.666105
789 1 0.83094 0.819924 0.659897
446 1 0.600983 0.58037 0.99441
676 1 0.00433517 0.736615 0.587678
696 1 0.818212 0.734893 0.572706
695 1 0.91346 0.66613 0.592948
766 1 0.904865 0.744824 0.66544
719 1 0.905653 0.817675 0.590917
699 1 0.0880957 0.814033 0.57537
770 1 0.0855276 0.903643 0.654136
703 1 0.231994 0.821337 0.574553
704 1 0.166194 0.917861 0.585246
773 1 0.158292 0.824511 0.666199
774 1 0.235627 0.92043 0.659671
803 1 0.411657 0.501278 0.912538
707 1 0.403871 0.849739 0.570884
708 1 0.322602 0.913769 0.580522
781 1 0.503689 0.840906 0.666032
13 1 0.500542 0.984709 0.996785
778 1 0.398808 0.907093 0.669841
857 1 0.667169 0.819831 0.8326
702 1 0.240878 0.914808 0.502291
712 1 0.485202 0.927158 0.59963
711 1 0.572712 0.845877 0.58395
782 1 0.584924 0.915167 0.66238
231 1 0.57817 0.99974 0.578776
291 1 0.0658318 0.98803 0.736721
716 1 0.674453 0.909898 0.566766
786 1 0.746276 0.903624 0.650335
720 1 0.833136 0.91879 0.579104
700 1 0.98226 0.907757 0.58809
790 1 0.908554 0.912365 0.666925
659 1 0.421113 0.505504 0.58158
729 1 0.33893 0.503786 0.644143
728 1 0.173566 0.577761 0.732155
795 1 0.0832684 0.512463 0.909934
732 1 0.342064 0.577818 0.732053
751 1 0.237293 0.664954 0.74522
821 1 0.165163 0.66813 0.823245
798 1 0.262744 0.594456 0.825071
736 1 0.50834 0.572735 0.757042
755 1 0.42567 0.683866 0.740209
802 1 0.41765 0.5976 0.8213
825 1 0.336224 0.663248 0.81961
829 1 0.493484 0.685527 0.823759
853 1 0.499664 0.843398 0.826094
806 1 0.593633 0.592299 0.83832
373 1 0.497508 0.997513 0.826695
740 1 0.654233 0.574317 0.750354
744 1 0.829726 0.588766 0.736079
810 1 0.743989 0.576156 0.821776
763 1 0.726305 0.66831 0.759103
765 1 0.816912 0.661762 0.662388
724 1 0.990699 0.581305 0.742168
814 1 0.916805 0.593325 0.822331
671 1 0.92625 0.503157 0.575425
747 1 0.0901432 0.664361 0.740678
748 1 0.989318 0.748681 0.739519
771 1 0.0697705 0.846996 0.749505
818 1 0.0755947 0.745712 0.81505
845 1 0.159476 0.837787 0.83054
752 1 0.162478 0.76748 0.753596
750 1 0.231929 0.740428 0.664026
822 1 0.251826 0.773392 0.82535
756 1 0.318267 0.747784 0.740273
779 1 0.406381 0.843093 0.753596
826 1 0.392863 0.757399 0.819226
760 1 0.488974 0.765579 0.753059
759 1 0.580254 0.684725 0.7501
783 1 0.581354 0.830025 0.759998
830 1 0.588862 0.738655 0.841945
764 1 0.682306 0.763029 0.738265
834 1 0.754688 0.74752 0.834349
768 1 0.82902 0.72581 0.753934
785 1 0.657084 0.839263 0.651729
767 1 0.912949 0.664368 0.738669
837 1 0.830613 0.662425 0.84006
817 1 0.00194448 0.668022 0.832714
838 1 0.902125 0.759166 0.833622
791 1 0.905748 0.825985 0.743526
861 1 0.828117 0.833805 0.85237
842 1 0.0790098 0.930901 0.835038
776 1 0.167437 0.925852 0.748805
772 1 0.987013 0.920601 0.732786
775 1 0.246047 0.83673 0.742332
481 1 0.997687 0.840653 0.995561
299 1 0.417895 0.995634 0.740207
780 1 0.316567 0.917355 0.737884
784 1 0.50921 0.921311 0.751233
788 1 0.682505 0.902959 0.749314
787 1 0.769164 0.822742 0.744758
458 1 0.0724757 0.753877 0.998124
235 1 0.740216 0.988193 0.575027
663 1 0.578752 0.500651 0.591462
658 1 0.423457 0.583758 0.501358
792 1 0.826274 0.905949 0.736722
862 1 0.911209 0.911798 0.850955
697 1 0.996989 0.825594 0.515288
794 1 0.072735 0.576088 0.824085
813 1 0.830135 0.51677 0.822895
800 1 0.173024 0.586412 0.898442
804 1 0.339065 0.590853 0.902383
858 1 0.765848 0.922418 0.834339
383 1 0.915032 0.990605 0.917549
808 1 0.501307 0.585655 0.90227
369 1 0.335165 0.995127 0.82198
812 1 0.675065 0.590681 0.916764
807 1 0.601941 0.504442 0.912417
445 1 0.511689 0.513821 0.98648
682 1 0.417097 0.761162 0.505563
864 1 0.827303 0.921174 0.935237
655 1 0.246594 0.502304 0.571777
493 1 0.498685 0.825568 0.995041
741 1 0.849802 0.501991 0.672953
796 1 0.998448 0.585649 0.937799
816 1 0.839131 0.562441 0.928862
839 1 0.910454 0.667449 0.904756
450 1 0.754874 0.597158 0.997383
819 1 0.0831234 0.672093 0.916484
823 1 0.253741 0.685378 0.884042
824 1 0.174162 0.761542 0.898665
847 1 0.258631 0.851233 0.902216
828 1 0.336273 0.761834 0.902582
438 1 0.249887 0.579708 0.992342
307 1 0.748607 0.987577 0.734623
465 1 0.324665 0.67121 0.974278
361 1 0.981982 0.998902 0.834258
827 1 0.411354 0.688354 0.905584
832 1 0.491992 0.769549 0.908186
831 1 0.570862 0.664187 0.917821
836 1 0.669162 0.749476 0.922337
833 1 0.665298 0.674644 0.843299
835 1 0.754861 0.657445 0.908383
854 1 0.578923 0.911783 0.834164
820 1 0.997283 0.755336 0.918038
841 1 0.98668 0.828674 0.827545
840 1 0.824093 0.743369 0.90909
844 1 0.997434 0.912066 0.919092
375 1 0.58229 0.993637 0.90816
485 1 0.162124 0.833554 0.991041
848 1 0.163699 0.939373 0.907999
843 1 0.0858205 0.845169 0.908673
662 1 0.579413 0.580667 0.502606
846 1 0.259481 0.927369 0.823567
670 1 0.903406 0.582957 0.503101
811 1 0.7348 0.506902 0.921053
441 1 0.336634 0.502572 0.997381
852 1 0.344085 0.928731 0.915466
494 1 0.595845 0.904567 0.996957
856 1 0.499967 0.914464 0.915334
851 1 0.404786 0.840719 0.923509
849 1 0.328252 0.844291 0.824891
850 1 0.411719 0.913591 0.843362
461 1 0.158945 0.660667 0.991964
855 1 0.580897 0.834925 0.917834
801 1 0.345769 0.512591 0.824744
860 1 0.668208 0.908728 0.900183
482 1 0.092372 0.919049 0.995129
698 1 0.0779872 0.903261 0.506226
486 1 0.247373 0.918257 0.986386
721 1 0.00708484 0.503081 0.658097
217 1 0.983917 0.999419 0.501828
293 1 0.151927 0.996483 0.665134
289 1 0.990928 0.998053 0.653989
489 1 0.322658 0.841543 0.99573
706 1 0.411535 0.921585 0.503559
