ITEM: TIMESTEP
7250
ITEM: NUMBER OF ATOMS
864
ITEM: BOX BOUNDS pp pp pp
0.0000000000000000e+00 3.1559999999999999e+01
0.0000000000000000e+00 3.1559999999999999e+01
0.0000000000000000e+00 3.1559999999999999e+01
ITEM: ATOMS id type xs ys zs
146 1 0.0595863 0.0831096 0.162651
8 1 0.146873 0.0744351 0.0712938
27 1 0.058512 0.164404 0.0694166
3 1 0.0892652 0.988951 0.0759677
149 1 0.151404 0.0135535 0.175017
7 1 0.258614 0.00518515 0.0706582
12 1 0.344944 0.0887039 0.0513915
177 1 0.343996 0.173987 0.159855
16 1 0.510499 0.0881099 0.0714852
11 1 0.42714 0.000356457 0.0713936
154 1 0.422162 0.0926079 0.143128
158 1 0.585034 0.102607 0.160439
39 1 0.593105 0.16766 0.0733024
14 1 0.597142 0.0704747 0.00779308
20 1 0.666462 0.0828064 0.0940729
24 1 0.824972 0.0721436 0.0777103
162 1 0.735528 0.0872522 0.169523
161 1 0.667168 -0.0157115 0.166246
19 1 0.746805 -0.000404843 0.0781203
17 1 0.686527 0.992562 0.989269
4 1 0.999381 0.0559309 0.0657694
166 1 0.9309 0.0805231 0.165349
169 1 0.00931837 0.177115 0.165152
21 1 0.832042 -0.00452007 0.985054
170 1 0.0729742 0.257905 0.155976
32 1 0.171832 0.252913 0.0715203
173 1 0.130062 0.164154 0.15152
197 1 0.162652 0.324075 0.154865
26 1 0.0893151 0.257189 0.997721
31 1 0.229584 0.159521 0.0738258
174 1 0.251679 0.251839 0.156591
55 1 0.247139 0.327232 0.0702769
30 1 0.248997 0.250924 0.997308
35 1 0.41841 0.176794 0.0728448
36 1 0.33512 0.247137 0.0737144
40 1 0.495745 0.250459 0.0740751
178 1 0.421661 0.257891 0.15976
185 1 0.64859 0.179833 0.169015
181 1 0.505118 0.171022 0.153613
182 1 0.581237 0.257736 0.143605
44 1 0.659935 0.264724 0.0737953
43 1 0.740349 0.161992 0.0761962
48 1 0.837646 0.247864 0.0845002
67 1 0.745468 0.349463 0.0748675
45 1 0.826906 0.16002 1.01448
28 1 -9.79989e-05 0.257689 0.0819412
189 1 0.846213 0.147918 0.147691
213 1 0.836143 0.340351 0.161841
47 1 0.942597 0.150632 0.0702226
190 1 0.920156 0.245391 0.165245
193 1 0.000812858 0.336717 0.153309
51 1 0.094152 0.34593 0.0649615
194 1 0.0910568 0.411122 0.154205
50 1 0.0874695 0.422675 -0.00662757
53 1 0.167841 0.327296 0.997766
56 1 0.172024 0.417239 0.0840974
198 1 0.246798 0.394694 0.164004
60 1 0.330638 0.404557 0.0899291
54 1 0.253916 0.411248 0.997778
201 1 0.332861 0.3228 0.169134
59 1 0.408047 0.338007 0.0796504
202 1 0.414034 0.406041 0.182772
205 1 0.504277 0.343482 0.15846
57 1 0.33349 0.326891 0.977084
63 1 0.575958 0.346736 0.0639914
64 1 0.495379 0.419635 0.0771283
68 1 0.664924 0.415776 0.0857123
206 1 0.582545 0.416216 0.156145
210 1 0.750022 0.413579 0.179413
72 1 0.838695 0.42477 0.0865957
71 1 0.914723 0.346237 0.094571
52 1 1.00533 0.426036 0.0835452
214 1 0.919847 0.422149 0.166273
237 1 0.844535 0.507547 0.170665
217 1 0.00402194 0.499434 0.178575
75 1 0.0885788 0.503557 0.0745878
218 1 0.0768579 0.590957 0.165716
76 1 1.00021 0.574437 0.0800776
99 1 0.0660775 0.666318 0.0853999
221 1 0.153669 0.511208 0.162701
80 1 0.155499 0.586509 0.0928658
79 1 0.248556 0.479263 0.0820641
222 1 0.251743 0.572506 0.147655
78 1 0.230347 0.595849 0.990567
225 1 0.340541 0.486525 0.157118
84 1 0.334277 0.576025 0.0746969
83 1 0.412478 0.485785 0.0710052
226 1 0.411005 0.595562 0.174667
88 1 0.49857 0.580815 0.0898039
229 1 0.476367 0.492113 0.149584
87 1 0.574808 0.491664 0.0819365
230 1 0.580446 0.577426 0.1697
233 1 0.667414 0.486676 0.177956
92 1 0.665699 0.579341 0.0837084
91 1 0.748675 0.481344 0.0891087
234 1 0.747533 0.578844 0.145298
90 1 0.758467 0.581193 0.990778
95 1 0.91729 0.509198 0.0750926
96 1 0.826574 0.572051 0.0779408
119 1 0.932602 0.667603 0.091699
238 1 0.932653 0.579624 0.169685
98 1 0.081704 0.745393 0.00839914
104 1 0.173476 0.747356 0.0809091
123 1 0.0854632 0.840318 0.0805208
241 1 1.0019 0.680788 0.173296
125 1 0.168889 0.827265 0.979502
103 1 0.25935 0.662757 0.0797875
127 1 0.251255 0.837215 0.0962738
108 1 0.329854 0.740204 0.0896621
269 1 0.164766 0.838802 0.16869
107 1 0.428023 0.670479 0.078475
253 1 0.499918 0.661425 0.162842
112 1 0.508402 0.740881 0.0776329
111 1 0.583986 0.651865 0.0776604
135 1 0.590909 0.821764 0.0687628
254 1 0.587955 0.760908 0.164219
109 1 0.494157 0.661138 0.982503
115 1 0.754843 0.670172 0.0761322
116 1 0.670851 0.748659 0.0804878
258 1 0.753191 0.737208 0.161845
139 1 0.751177 0.831027 0.0820554
114 1 0.752952 0.749269 0.999148
261 1 0.844213 0.675845 0.163668
120 1 0.831717 0.760191 0.0995441
100 1 0.989945 0.757599 0.0788452
262 1 0.91535 0.765123 0.176913
265 1 -0.00294751 0.83664 0.159689
143 1 0.915901 0.839128 0.0778241
128 1 0.174564 0.924117 0.0745709
1 1 -0.0133852 0.990069 0.975083
266 1 0.0941154 0.916139 0.160455
270 1 0.234902 0.930193 0.162657
132 1 0.323834 0.917087 0.0788236
153 1 0.34265 -0.00486368 0.160943
129 1 0.315918 0.832472 -0.00777119
131 1 0.397838 0.8254 0.0609677
274 1 0.416546 0.904735 0.126609
157 1 0.489221 0.997816 0.147321
136 1 0.502178 0.915542 0.0703935
15 1 0.582562 -6.05545e-05 0.097717
278 1 0.58455 0.901853 0.148002
140 1 0.672483 0.909403 0.0634073
13 1 0.518581 1.00106 0.99756
138 1 0.761746 0.909519 0.990534
165 1 0.827982 0.00726511 0.159352
23 1 0.901079 -0.0090149 0.0812723
285 1 0.835594 0.839239 0.179876
124 1 1.01126 0.921262 0.0774236
144 1 0.831023 0.909866 0.0913868
286 1 0.918286 0.923817 0.160722
145 1 -0.0015332 0.978336 0.169853
142 1 0.933819 0.910166 -0.0138888
290 1 0.0843045 0.0873936 0.334663
147 1 0.0930227 0.00445735 0.262119
148 1 0.990193 0.10822 0.251438
317 1 0.166097 0.161586 0.33594
150 1 0.262245 0.0827024 0.15691
152 1 0.169776 0.0816957 0.260519
294 1 0.26068 0.0921759 0.322456
156 1 0.348698 0.0862263 0.243516
298 1 0.427963 0.0739526 0.3168
160 1 0.497794 0.084106 0.229193
325 1 0.497349 0.163856 0.328956
183 1 0.569071 0.170591 0.250067
329 1 0.671813 0.179118 0.328049
164 1 0.658979 0.08628 0.246362
163 1 0.745416 0.0130512 0.237384
187 1 0.757778 0.170275 0.242391
333 1 0.83047 0.174803 0.32344
309 1 0.843462 0.00594673 0.318628
168 1 0.845854 0.0993634 0.256997
191 1 0.916645 0.184911 0.254364
310 1 0.918943 0.0971805 0.334302
171 1 0.080069 0.160498 0.248311
341 1 0.171336 0.326312 0.326825
195 1 0.084697 0.325027 0.241329
175 1 0.256126 0.167949 0.228322
176 1 0.181487 0.238481 0.244546
318 1 0.247856 0.236827 0.338112
321 1 0.334386 0.166817 0.33419
180 1 0.329558 0.251128 0.248553
179 1 0.416474 0.167354 0.247711
322 1 0.416906 0.250566 0.332915
184 1 0.489707 0.253774 0.235245
209 1 0.659198 0.345557 0.170627
326 1 0.58327 0.253871 0.340077
188 1 0.671359 0.247351 0.249963
186 1 0.750521 0.257112 0.145251
192 1 0.834686 0.249247 0.228923
330 1 0.756394 0.256307 0.322083
172 1 -0.00621952 0.259636 0.245732
357 1 0.841008 0.339596 0.323568
313 1 0.00748693 0.174324 0.336677
215 1 0.924921 0.336405 0.248132
334 1 0.922747 0.241543 0.334679
338 1 0.0935358 0.424565 0.327896
200 1 0.175367 0.419309 0.239099
199 1 0.240536 0.323887 0.24423
345 1 0.32644 0.334417 0.332862
342 1 0.252851 0.424302 0.32755
203 1 0.417505 0.333266 0.260417
204 1 0.321486 0.406582 0.241236
346 1 0.398103 0.42028 0.326293
208 1 0.518958 0.424261 0.250606
227 1 0.407974 0.505284 0.250925
207 1 0.575707 0.310248 0.245832
350 1 0.59337 0.422194 0.36067
373 1 0.498843 0.498532 0.320408
211 1 0.748683 0.32401 0.244125
212 1 0.65054 0.405228 0.266103
354 1 0.757464 0.409918 0.320641
235 1 0.748419 0.507642 0.243852
216 1 0.834163 0.428807 0.24156
196 1 -0.000367523 0.405792 0.259081
358 1 0.925031 0.420865 0.341962
381 1 0.825991 0.49845 0.33831
365 1 0.174495 0.503688 0.31748
219 1 0.0959937 0.516194 0.242016
224 1 0.175967 0.594104 0.237431
362 1 0.0958606 0.590838 0.324241
220 1 0.010509 0.577271 0.253905
223 1 0.248875 0.49416 0.223636
247 1 0.263921 0.659956 0.25146
228 1 0.331057 0.579725 0.248194
366 1 0.248992 0.578303 0.316721
370 1 0.415226 0.590383 0.348432
231 1 0.59498 0.507155 0.263206
232 1 0.500705 0.592703 0.245123
374 1 0.592015 0.586846 0.329742
257 1 0.672867 0.661992 0.156113
377 1 0.67707 0.49477 0.337135
236 1 0.664905 0.586196 0.243119
401 1 0.663065 0.67078 0.325959
378 1 0.755911 0.587636 0.331226
361 1 1.01401 0.50227 0.333234
240 1 0.832072 0.58725 0.231728
239 1 0.921065 0.513745 0.25961
382 1 0.912985 0.572693 0.346742
263 1 0.912671 0.676323 0.256063
242 1 0.0813904 0.744412 0.163811
245 1 0.183818 0.671702 0.158105
243 1 0.079483 0.671127 0.247886
248 1 0.162174 0.753577 0.243287
267 1 0.0786492 0.827605 0.248439
273 1 0.34781 0.836721 0.160286
246 1 0.252462 0.76431 0.166438
249 1 0.333293 0.659887 0.158693
250 1 0.424988 0.754049 0.158956
251 1 0.43527 0.677046 0.2588
252 1 0.337934 0.761791 0.242873
275 1 0.428166 0.841612 0.241776
255 1 0.590631 0.665769 0.23643
256 1 0.50694 0.752757 0.241697
398 1 0.596676 0.755528 0.318462
260 1 0.684643 0.752967 0.240833
397 1 0.522787 0.666092 0.327361
279 1 0.587632 0.837068 0.240108
421 1 0.510573 0.833324 0.313758
281 1 0.674484 0.827539 0.166823
259 1 0.752458 0.654309 0.250521
264 1 0.837188 0.750275 0.258829
429 1 0.821196 0.851447 0.330654
425 1 0.668077 0.830943 0.336657
405 1 0.833275 0.668555 0.341212
244 1 1.00412 0.752378 0.255242
385 1 0.995808 0.662887 0.326947
406 1 0.921698 0.742653 0.340609
293 1 0.189982 0.988705 0.314956
272 1 0.163582 0.914694 0.240573
268 1 0.00886396 0.913815 0.25938
271 1 0.260663 0.851244 0.231145
151 1 0.265048 -0.00382284 0.24266
413 1 0.173449 0.842212 0.322324
414 1 0.267121 0.921436 0.328774
276 1 0.341414 0.915048 0.231731
417 1 0.327119 0.83233 0.322456
155 1 0.434355 1.00711 0.242166
280 1 0.5094 0.924114 0.240429
297 1 0.336558 0.00100046 0.328302
418 1 0.431083 0.915474 0.315312
277 1 0.503767 0.84414 0.148224
159 1 0.59188 -0.00251116 0.249054
301 1 0.507369 -0.00690229 0.33217
422 1 0.590266 0.912682 0.343237
284 1 0.679477 0.918635 0.252677
305 1 0.665418 0.00466166 0.332667
282 1 0.751912 0.920897 0.167991
283 1 0.750941 0.831234 0.242798
426 1 0.742053 0.921624 0.346126
167 1 0.918601 1.00333 0.238253
287 1 0.929166 0.829109 0.265701
288 1 0.830768 0.926727 0.236317
430 1 0.919719 0.929979 0.321392
289 1 0.00545137 0.00892567 0.340699
292 1 0.00700925 0.0879028 0.416749
315 1 0.0969893 0.170821 0.426641
291 1 0.112319 0.0123173 0.415797
457 1 -0.00315289 0.172872 0.490268
437 1 0.173136 0.994246 0.500525
461 1 0.178323 0.168101 0.507933
296 1 0.179725 0.0850905 0.422524
438 1 0.264423 0.0814103 0.487285
319 1 0.263975 0.17393 0.419893
441 1 0.346865 1.00764 0.493984
300 1 0.357142 0.0817671 0.415829
304 1 0.496958 0.0925187 0.41342
442 1 0.437112 0.0770977 0.498527
465 1 0.349048 0.153011 0.509827
302 1 0.573957 0.0757159 0.324717
469 1 0.488697 0.16123 0.496126
446 1 0.572528 0.0790347 0.498379
445 1 0.493824 0.982738 0.50684
306 1 0.735825 0.0886863 0.32311
308 1 0.661305 0.0919993 0.416562
450 1 0.754604 0.0852682 0.497281
473 1 0.66637 0.162935 0.5103
331 1 0.758607 0.177543 0.398703
453 1 0.835283 -0.00877284 0.487353
312 1 0.828068 0.0832009 0.414674
433 1 0.021049 1.01643 0.489121
314 1 0.0903624 0.248315 0.330353
337 1 0.0157202 0.337547 0.331927
316 1 0.0139884 0.249703 0.417823
481 1 0.0120604 0.339882 0.486372
458 1 0.0921169 0.253841 0.503871
320 1 0.185556 0.251878 0.428207
462 1 0.274287 0.242443 0.51091
324 1 0.341792 0.247771 0.409074
323 1 0.419086 0.175909 0.408367
466 1 0.400647 0.246472 0.497432
353 1 0.676661 0.33105 0.348601
327 1 0.575325 0.161029 0.426108
328 1 0.506853 0.244363 0.424561
332 1 0.670912 0.244785 0.417164
474 1 0.757904 0.253945 0.489226
335 1 0.92288 0.169054 0.415389
336 1 0.843134 0.244735 0.405556
477 1 0.82669 0.176132 0.491093
478 1 0.918211 0.245925 0.492793
359 1 0.934789 0.322347 0.405293
339 1 0.0957046 0.318623 0.412672
482 1 0.0795902 0.422738 0.487412
363 1 0.0888843 0.50638 0.405204
344 1 0.165467 0.428364 0.409954
505 1 0.999313 0.482832 0.48562
343 1 0.249299 0.338071 0.408748
486 1 0.260545 0.416845 0.499655
485 1 0.161027 0.336356 0.499299
348 1 0.333362 0.422465 0.410048
509 1 0.163601 0.508484 0.491499
347 1 0.402087 0.335006 0.415294
493 1 0.485365 0.33404 0.499596
371 1 0.408764 0.502878 0.422687
490 1 0.40733 0.423909 0.503392
517 1 0.502296 0.504704 0.488186
349 1 0.492029 0.334571 0.331787
351 1 0.587031 0.324603 0.416247
352 1 0.496893 0.41476 0.409955
356 1 0.690824 0.41676 0.410659
355 1 0.760608 0.318706 0.416408
521 1 0.656597 0.483395 0.480552
379 1 0.752614 0.506293 0.427635
340 1 0.0112802 0.418244 0.405199
360 1 0.833635 0.401284 0.415228
501 1 0.849845 0.31942 0.497896
502 1 0.911607 0.403133 0.485015
525 1 0.828908 0.513392 0.502131
368 1 0.168713 0.598585 0.405793
506 1 0.0880029 0.583826 0.500108
367 1 0.244049 0.501418 0.405803
510 1 0.246157 0.581188 0.489585
391 1 0.262835 0.669505 0.405439
393 1 0.34177 0.676942 0.313555
369 1 0.330878 0.511409 0.333281
372 1 0.336264 0.590857 0.415058
541 1 0.508129 0.674018 0.502454
376 1 0.49163 0.611303 0.424556
395 1 0.405049 0.672445 0.420977
375 1 0.575206 0.520749 0.402149
399 1 0.591731 0.683355 0.415824
518 1 0.570496 0.59238 0.490595
380 1 0.674127 0.585501 0.418923
403 1 0.751192 0.675082 0.422756
383 1 0.902508 0.493627 0.425314
364 1 0.996061 0.564184 0.428692
384 1 0.823877 0.598082 0.417665
526 1 0.922176 0.579214 0.500561
549 1 0.830587 0.668709 0.508272
389 1 0.165535 0.674465 0.322568
386 1 0.0805994 0.750536 0.327792
529 1 1.00385 0.664081 0.500145
387 1 0.0636761 0.651287 0.414737
553 1 0.0129563 0.83874 0.4891
530 1 0.0779033 0.753262 0.489176
533 1 0.168073 0.66468 0.497031
390 1 0.245636 0.752924 0.324602
392 1 0.14928 0.724322 0.416318
396 1 0.338804 0.765858 0.405442
394 1 0.420943 0.744875 0.339462
419 1 0.427855 0.840966 0.406824
538 1 0.409339 0.750783 0.492463
400 1 0.494675 0.752646 0.423649
404 1 0.671157 0.757017 0.424272
402 1 0.753147 0.752133 0.338026
546 1 0.758063 0.750712 0.510079
427 1 0.739007 0.851195 0.411083
573 1 0.834885 0.82345 0.500317
408 1 0.834636 0.76381 0.404687
388 1 0.00115957 0.747215 0.412307
407 1 0.917461 0.653455 0.415627
409 1 0.0113153 0.844243 0.346369
431 1 0.913559 0.836057 0.3931
410 1 0.0879062 0.928477 0.347893
411 1 0.106041 0.823128 0.407367
412 1 0.981424 0.930504 0.426678
415 1 0.249285 0.833741 0.403753
416 1 0.182649 0.91084 0.401893
295 1 0.260288 0.99214 0.432025
299 1 0.42903 -0.00499479 0.416222
420 1 0.348593 0.920137 0.407749
562 1 0.409921 0.918544 0.504191
424 1 0.505705 0.912877 0.418683
303 1 0.581963 1.0006 0.407763
423 1 0.571217 0.837971 0.416717
307 1 0.733783 0.0109232 0.420349
428 1 0.667463 0.918889 0.43096
432 1 0.837967 0.935029 0.401734
311 1 0.916682 0.0176855 0.409559
434 1 0.10671 0.0791353 0.501779
440 1 0.188403 0.0812362 0.58189
436 1 0.998009 0.065487 0.576512
435 1 0.0820874 0.00138866 0.571779
578 1 0.0903123 0.0795164 0.645016
582 1 0.256548 0.0874018 0.666628
439 1 0.258788 0.00340156 0.581428
585 1 0.322443 -0.000874654 0.663128
444 1 0.345086 0.0856098 0.588826
586 1 0.405097 0.078919 0.676545
467 1 0.426007 0.157404 0.595232
443 1 0.4165 0.994821 0.590114
448 1 0.501302 0.0790959 0.599334
471 1 0.576379 0.146256 0.580955
590 1 0.594276 0.0757749 0.661576
617 1 0.670599 0.176681 0.673402
613 1 0.510417 0.159551 0.662735
452 1 0.678964 0.0899897 0.58297
456 1 0.835206 0.0823514 0.572079
475 1 0.757469 0.168016 0.576123
597 1 0.832967 0.0135559 0.656036
621 1 0.832968 0.166025 0.667218
454 1 0.920876 0.100728 0.497312
598 1 0.916956 0.0760361 0.654555
459 1 0.0846883 0.173767 0.565652
605 1 0.17347 0.169587 0.649634
602 1 0.0809286 0.257863 0.660442
464 1 0.187822 0.24936 0.578818
463 1 0.263359 0.153289 0.585836
487 1 0.250685 0.339556 0.573265
629 1 0.164903 0.324572 0.655576
633 1 0.331834 0.328453 0.668566
606 1 0.24293 0.248186 0.667602
468 1 0.34763 0.242251 0.595387
472 1 0.484881 0.250825 0.574584
637 1 0.501203 0.336556 0.658638
610 1 0.420494 0.259443 0.665525
470 1 0.580694 0.23174 0.512691
614 1 0.584036 0.253187 0.640266
497 1 0.646504 0.323799 0.495351
476 1 0.670298 0.253389 0.571787
618 1 0.740361 0.255703 0.669314
479 1 0.917377 0.177967 0.594129
460 1 0.00780241 0.243347 0.567562
480 1 0.835953 0.259604 0.573698
503 1 0.932703 0.334409 0.575895
483 1 0.0780162 0.330365 0.575805
484 1 1.00388 0.402045 0.57267
626 1 0.083968 0.413796 0.647013
507 1 0.0738465 0.487822 0.573067
488 1 0.161303 0.417997 0.563499
492 1 0.340352 0.42346 0.578839
491 1 0.410345 0.335978 0.578719
489 1 0.33236 0.32768 0.500103
496 1 0.505753 0.415378 0.559383
494 1 0.574383 0.412031 0.477835
495 1 0.57893 0.33489 0.58296
638 1 0.583036 0.427962 0.662259
519 1 0.577823 0.496896 0.562251
641 1 0.664652 0.344388 0.6593
499 1 0.744683 0.331196 0.587765
500 1 0.665142 0.410727 0.570037
498 1 0.766309 0.41487 0.499307
642 1 0.758579 0.411787 0.660851
504 1 0.845833 0.398012 0.579306
527 1 0.920511 0.490089 0.566206
669 1 0.832379 0.496528 0.65612
508 1 1.00793 0.575157 0.575021
649 1 -0.00719419 0.487231 0.65749
512 1 0.178615 0.587636 0.587584
531 1 0.0898866 0.669408 0.564922
650 1 0.0849786 0.58549 0.647159
513 1 0.331125 0.510394 0.498955
511 1 0.258595 0.504421 0.582661
516 1 0.338478 0.576806 0.581137
653 1 0.156105 0.50712 0.642924
515 1 0.42953 0.50397 0.579726
514 1 0.419076 0.584893 0.509269
539 1 0.413956 0.66835 0.574506
661 1 0.507714 0.498537 0.657027
520 1 0.509678 0.578528 0.587904
524 1 0.658856 0.59036 0.571393
685 1 0.505802 0.657027 0.669569
522 1 0.748498 0.596842 0.499368
545 1 0.658247 0.665449 0.491956
523 1 0.744882 0.504721 0.560404
693 1 0.830075 0.655298 0.671476
528 1 0.830073 0.586281 0.577964
670 1 0.929829 0.580565 0.655075
551 1 0.918648 0.668235 0.583717
673 1 1.00555 0.688475 0.66813
532 1 -0.00304509 0.751503 0.577115
536 1 0.18088 0.74664 0.595314
674 1 0.07826 0.758336 0.667734
677 1 0.153612 0.669385 0.673132
534 1 0.257734 0.749781 0.507623
535 1 0.244534 0.663384 0.569271
540 1 0.344224 0.761111 0.575536
705 1 0.327323 0.845339 0.666168
678 1 0.256658 0.747181 0.663384
681 1 0.329814 0.653544 0.658928
537 1 0.332399 0.646999 0.50655
682 1 0.42132 0.756517 0.670728
544 1 0.473918 0.764815 0.584674
542 1 0.590432 0.754683 0.503041
565 1 0.483508 0.837032 0.49573
543 1 0.578716 0.665855 0.581509
686 1 0.56896 0.753891 0.657099
548 1 0.658969 0.746141 0.593554
547 1 0.739843 0.666693 0.581142
552 1 0.823493 0.741084 0.593098
571 1 0.751741 0.833393 0.585433
550 1 0.920429 0.749356 0.49473
575 1 0.914049 0.82278 0.569106
554 1 0.07567 0.924538 0.484703
555 1 0.0776566 0.836638 0.592939
701 1 0.170872 0.828277 0.666737
556 1 -0.000668707 0.922004 0.567544
697 1 0.997747 0.845892 0.661524
557 1 0.167884 0.815517 0.507573
561 1 0.323566 0.84366 0.496929
558 1 0.249693 0.919126 0.511652
559 1 0.248729 0.840064 0.57985
560 1 0.157004 0.909685 0.584737
564 1 0.328222 0.919236 0.578671
563 1 0.412921 0.849077 0.594178
706 1 0.415243 0.921489 0.674715
568 1 0.515025 0.915941 0.587572
566 1 0.580302 0.916302 0.498032
449 1 0.653734 0.02064 0.503607
567 1 0.579318 0.832053 0.581954
447 1 0.57433 0.00227426 0.586024
709 1 0.503174 0.837741 0.672114
569 1 0.675277 0.821384 0.506641
570 1 0.754316 0.91661 0.494406
572 1 0.663897 0.915931 0.581847
451 1 0.756356 1.0085 0.568266
713 1 0.669266 0.841927 0.657141
714 1 0.753337 0.926081 0.657337
574 1 0.907522 0.908556 0.49701
455 1 0.91326 -0.000401605 0.563513
576 1 0.828685 0.912637 0.5758
718 1 0.914627 0.910805 0.640232
577 1 -0.00557546 -0.0103134 0.677499
584 1 0.159284 0.0927656 0.744228
581 1 0.156926 0.000329686 0.661402
725 1 0.16374 0.0136136 0.84296
726 1 0.246027 0.0884596 0.841164
583 1 0.23015 -0.0055012 0.738585
588 1 0.32623 0.0951594 0.755554
611 1 0.426875 0.173554 0.744021
729 1 0.317336 0.0134576 0.823069
733 1 0.506391 0.997091 0.824539
592 1 0.511988 0.0914133 0.7581
596 1 0.664122 0.0930686 0.749252
594 1 0.748905 0.0860835 0.67374
600 1 0.834587 0.0849159 0.742145
619 1 0.748028 0.170934 0.752305
601 1 0.00777308 0.167832 0.655551
580 1 -0.0042194 0.0812971 0.755434
599 1 0.926097 -0.00104347 0.754202
721 1 0.00312777 0.998331 0.829332
603 1 0.0656949 0.165281 0.755233
746 1 0.076838 0.242662 0.830412
607 1 0.232081 0.167611 0.75057
608 1 0.154828 0.257762 0.747838
750 1 0.232138 0.255821 0.82809
609 1 0.326566 0.158752 0.673957
753 1 0.318426 0.175198 0.823246
612 1 0.332931 0.249751 0.74593
635 1 0.412865 0.34498 0.736486
616 1 0.503519 0.255016 0.742287
754 1 0.418255 0.240783 0.83357
777 1 0.331752 0.337698 0.837995
615 1 0.585458 0.17763 0.747656
758 1 0.578522 0.255186 0.82954
639 1 0.572459 0.344029 0.744558
761 1 0.668379 0.183731 0.827676
781 1 0.488005 0.336869 0.812565
620 1 0.66426 0.270598 0.747536
624 1 0.83596 0.244571 0.753647
622 1 0.927547 0.26137 0.657665
623 1 0.910475 0.174567 0.732044
604 1 -0.0130947 0.249422 0.752563
745 1 0.979658 0.162283 0.829815
625 1 1.00067 0.338483 0.670389
627 1 0.0709836 0.323184 0.748218
628 1 0.0116708 0.419876 0.745927
769 1 -0.00952068 0.34538 0.841007
631 1 0.246029 0.327646 0.742607
632 1 0.168323 0.425508 0.73589
630 1 0.25403 0.413236 0.661329
801 1 0.340449 0.496526 0.819652
773 1 0.169679 0.342793 0.827326
636 1 0.330547 0.404366 0.748115
634 1 0.429316 0.426116 0.65213
778 1 0.415562 0.41622 0.820467
665 1 0.665572 0.49878 0.64437
640 1 0.4959 0.429678 0.744718
782 1 0.576848 0.435427 0.819201
644 1 0.667821 0.421496 0.738466
645 1 0.836946 0.322617 0.66
643 1 0.754993 0.358189 0.745119
667 1 0.749272 0.512297 0.731874
786 1 0.746352 0.414694 0.843305
646 1 0.920236 0.413032 0.658345
648 1 0.830821 0.439943 0.752098
789 1 0.833585 0.346958 0.828776
647 1 0.917433 0.334778 0.764218
790 1 0.909229 0.420536 0.82701
813 1 0.84038 0.512178 0.83064
671 1 0.933027 0.500776 0.736794
651 1 0.0803222 0.507793 0.744631
656 1 0.164537 0.577688 0.733083
652 1 0.00438962 0.578686 0.731144
657 1 0.320002 0.493269 0.663729
654 1 0.246719 0.601965 0.667198
655 1 0.252544 0.502794 0.743697
798 1 0.248806 0.607783 0.823645
660 1 0.32231 0.587914 0.738747
658 1 0.418859 0.573751 0.664682
659 1 0.409355 0.498815 0.744879
664 1 0.491209 0.5946 0.748725
805 1 0.488417 0.502885 0.832761
662 1 0.602067 0.592307 0.659083
689 1 0.668436 0.673189 0.671524
663 1 0.588029 0.515529 0.738696
806 1 0.581541 0.587718 0.827268
668 1 0.660542 0.583199 0.744693
666 1 0.734185 0.595867 0.66338
809 1 0.661226 0.506857 0.816983
810 1 0.745703 0.573919 0.835828
691 1 0.745584 0.663275 0.748085
672 1 0.831042 0.567792 0.735098
814 1 0.929147 0.593977 0.81443
837 1 0.825879 0.647215 0.81781
675 1 0.0755916 0.67315 0.742465
818 1 0.0717965 0.758872 0.819597
680 1 0.167788 0.755012 0.749035
679 1 0.261691 0.67744 0.749496
822 1 0.243685 0.75225 0.837755
825 1 0.335271 0.671991 0.840465
703 1 0.248654 0.832179 0.738
821 1 0.144941 0.6671 0.820852
683 1 0.400717 0.664553 0.741988
684 1 0.334102 0.746022 0.757756
707 1 0.400833 0.830283 0.737284
687 1 0.588672 0.678891 0.745347
688 1 0.495874 0.757532 0.7509
692 1 0.661312 0.759419 0.742883
830 1 0.577398 0.741436 0.847808
857 1 0.654648 0.817027 0.828337
690 1 0.744496 0.742402 0.666134
833 1 0.67908 0.647073 0.847907
696 1 0.846082 0.738885 0.753838
834 1 0.747313 0.755294 0.829823
715 1 0.760827 0.827884 0.742714
694 1 0.915374 0.753925 0.654274
676 1 0.984981 0.767376 0.741617
695 1 0.926923 0.67451 0.734618
841 1 0.993769 0.838423 0.830623
817 1 0.00616517 0.666385 0.828339
838 1 0.924616 0.761531 0.824103
698 1 0.0808221 0.916023 0.664983
699 1 0.0877326 0.843307 0.755276
579 1 0.0927599 1.01169 0.750531
702 1 0.236138 0.915509 0.654228
704 1 0.159899 0.915975 0.74216
846 1 0.251606 0.927201 0.821694
849 1 0.32009 0.847967 0.819288
587 1 0.409815 0.00276659 0.756361
708 1 0.319687 0.926899 0.740477
850 1 0.415288 0.90285 0.821733
712 1 0.507023 0.917842 0.745229
589 1 0.506453 0.00438617 0.680507
710 1 0.594078 0.92512 0.66459
591 1 0.594383 0.997444 0.754711
711 1 0.581535 0.831807 0.747458
593 1 0.682497 1.00339 0.65004
717 1 0.835489 0.829993 0.652257
737 1 0.672597 0.00613779 0.827793
595 1 0.74895 0.00884153 0.754196
716 1 0.670513 0.904832 0.743135
720 1 0.823321 0.935685 0.743693
719 1 0.89714 0.835613 0.732065
700 1 -0.00408366 0.910973 0.74284
862 1 0.900446 0.914153 0.820405
2 1 0.0704477 0.0884896 0.978754
722 1 0.0815898 0.0811281 0.834984
724 1 0.984708 0.0797194 0.911154
723 1 0.0819145 0.00403093 0.91145
728 1 0.169291 0.097877 0.912958
9 1 0.346043 0.999668 1.00373
6 1 0.250121 0.0962731 0.990591
5 1 0.156422 0.0127214 0.989842
727 1 0.249159 -0.00516944 0.910251
33 1 0.346326 0.164078 0.9743
730 1 0.417594 0.0947253 0.821456
732 1 0.337564 0.0762866 0.911783
10 1 0.441077 0.0827836 0.991976
736 1 0.500952 0.0939443 0.902288
37 1 0.521838 0.170877 0.983957
734 1 0.591253 0.0831598 0.83293
740 1 0.651321 0.0708619 0.913345
18 1 0.738674 0.0895384 0.99643
738 1 0.751037 0.0964297 0.830161
739 1 0.749758 -0.0114779 0.906537
744 1 0.83455 0.0810455 0.91626
741 1 0.830408 1.00273 0.831085
742 1 0.909513 0.0822016 0.828328
22 1 0.910156 0.0728031 0.993354
29 1 0.150333 0.159843 -0.00704339
747 1 0.070227 0.162821 0.903244
752 1 0.156256 0.249748 0.907088
748 1 -0.0143733 0.262573 0.921671
749 1 0.154106 0.169971 0.836442
751 1 0.235203 0.178523 0.92098
775 1 0.240957 0.338766 0.911733
757 1 0.512484 0.173189 0.836995
755 1 0.419959 0.163456 0.907322
34 1 0.424846 0.247972 0.978345
756 1 0.344317 0.249239 0.904651
779 1 0.41674 0.351239 0.902348
41 1 0.65712 0.171809 0.985915
760 1 0.489594 0.266029 0.898801
38 1 0.57298 0.258927 0.993932
759 1 0.590562 0.17443 0.898509
764 1 0.682597 0.250022 0.904002
65 1 0.661129 0.336455 0.990242
762 1 0.751286 0.271164 0.82936
763 1 0.755359 0.165066 0.914764
42 1 0.747268 0.249298 -0.0049679
765 1 0.842874 0.169085 0.831878
768 1 0.821892 0.252795 0.907287
46 1 0.908622 0.265185 -0.00285837
766 1 0.925225 0.253337 0.834584
767 1 0.912321 0.182674 0.919245
25 1 1.00233 0.17934 0.978308
770 1 0.0915683 0.423627 0.826857
771 1 0.09401 0.345806 0.924806
772 1 0.00857894 0.419506 0.911548
776 1 0.164069 0.444659 0.908338
81 1 0.317425 0.50328 0.986715
774 1 0.241316 0.424782 0.833598
799 1 0.250895 0.509249 0.899247
780 1 0.314741 0.418553 0.908024
797 1 0.164588 0.500304 0.813878
77 1 0.171366 0.508491 0.00196381
58 1 0.401004 0.414179 0.982758
61 1 0.496706 0.335996 0.985019
784 1 0.504559 0.424589 0.910717
783 1 0.587659 0.336824 0.907986
62 1 0.594776 0.424315 1.00026
85 1 0.487034 0.502349 0.984709
785 1 0.673351 0.341455 0.82457
788 1 0.651567 0.427826 0.912035
66 1 0.744897 0.420931 0.986589
787 1 0.746044 0.334705 0.919614
49 1 0.00251649 0.340796 0.994654
792 1 0.840039 0.424428 0.912083
69 1 0.831673 0.33593 0.0144748
791 1 0.908836 0.337741 0.920453
70 1 0.910678 0.414702 0.996957
74 1 0.0871332 0.578593 1.00311
73 1 0.992072 0.502802 -0.0118442
794 1 0.0692904 0.579231 0.819196
793 1 0.997317 0.498844 0.827878
795 1 0.0781535 0.505914 0.925904
796 1 0.996304 0.575627 0.910828
800 1 0.167704 0.583711 0.905283
804 1 0.327363 0.58427 0.909071
802 1 0.412131 0.592499 0.829962
82 1 0.416585 0.580386 0.999573
803 1 0.406913 0.493701 0.902027
86 1 0.569192 0.576446 0.995267
807 1 0.57766 0.503703 0.907186
808 1 0.500517 0.576423 0.904458
89 1 0.667108 0.500188 0.00162126
831 1 0.59797 0.655741 0.913545
812 1 0.673735 0.566495 0.916363
811 1 0.756037 0.494651 0.909227
93 1 0.835376 0.497938 0.99817
816 1 0.844439 0.596124 0.911389
815 1 0.902706 0.50383 0.907902
94 1 0.913604 0.594989 1.00704
839 1 0.930734 0.660496 0.911467
101 1 0.161064 0.670772 0.00494961
819 1 0.0805307 0.663018 0.908498
824 1 0.146936 0.749684 0.907318
97 1 0.998452 0.656797 0.9984
102 1 0.248646 0.753144 0.991677
823 1 0.231267 0.677435 0.908422
828 1 0.325443 0.764633 0.90015
105 1 0.318088 0.676121 0.991617
829 1 0.504625 0.67077 0.831468
826 1 0.421936 0.747287 0.836769
827 1 0.411853 0.664354 0.913968
106 1 0.407885 0.746839 0.993484
832 1 0.496073 0.754322 0.91959
110 1 0.584734 0.722898 0.995406
137 1 0.670311 0.838177 -0.0112503
855 1 0.579642 0.832022 0.926549
836 1 0.676523 0.747834 0.919639
113 1 0.674632 0.660519 -0.00274787
835 1 0.75967 0.666709 0.920353
840 1 0.836647 0.747604 0.903294
121 1 0.00489375 0.829566 -0.00393805
861 1 0.830709 0.831572 0.830341
117 1 0.835607 0.660692 0.00468232
118 1 0.90922 0.735685 1.01474
820 1 -0.000368797 0.74811 0.920229
122 1 0.079108 0.916122 0.997722
845 1 0.173227 0.840766 0.82952
842 1 0.0802611 0.906919 0.830327
843 1 0.0800929 0.83586 0.910183
848 1 0.163433 0.917601 0.915655
844 1 0.991102 0.909246 0.902768
847 1 0.247749 0.851126 0.907939
126 1 0.239754 0.912754 0.998078
731 1 0.411457 1.00457 0.890955
133 1 0.501367 0.826892 -0.00658384
851 1 0.415676 0.835921 0.90854
852 1 0.339599 0.91486 0.917369
130 1 0.4147 0.906443 0.99116
856 1 0.492535 0.922369 0.907103
853 1 0.51375 0.833835 0.827485
735 1 0.573634 0.989939 0.914226
854 1 0.603886 0.923183 0.835002
134 1 0.591889 0.914581 0.999087
858 1 0.749632 0.905959 0.818051
860 1 0.682087 0.907687 0.910071
859 1 0.751267 0.830642 0.900241
864 1 0.831477 0.907515 0.910851
141 1 0.847519 0.823669 -0.00468375
743 1 0.913183 0.991793 0.906186
863 1 0.926094 0.824682 0.928423
