ITEM: TIMESTEP
13000
ITEM: NUMBER OF ATOMS
864
ITEM: BOX BOUNDS pp pp pp
0.0000000000000000e+00 3.1559999999999999e+01
0.0000000000000000e+00 3.1559999999999999e+01
0.0000000000000000e+00 3.1559999999999999e+01
ITEM: ATOMS id type xs ys zs
27 1 0.0777946 0.165265 0.090098
8 1 0.161129 0.0811797 0.0890634
4 1 0.00896848 0.093193 0.103277
2 1 0.0728549 0.0885842 0.00563705
29 1 0.14954 0.156196 0.0105572
1 1 0.00874133 0.00519785 0.0192707
3 1 0.0813528 0.00978717 0.101344
12 1 0.331251 0.0725465 0.100011
33 1 0.325526 0.16543 0.0209569
6 1 0.248304 0.083761 0.00414721
7 1 0.241749 0.00354552 0.0916931
16 1 0.48482 0.0950289 0.108354
35 1 0.414792 0.164739 0.0784822
10 1 0.429632 0.0735913 0.0119649
20 1 0.660607 0.0944546 0.084058
39 1 0.571948 0.166299 0.0822555
14 1 0.583699 0.0782977 0.00386116
15 1 0.582342 0.0117068 0.0889979
37 1 0.504653 0.165118 0.00180221
13 1 0.509435 0.00672775 0.00508034
90 1 0.759026 0.0944953 0.164582
43 1 0.751484 0.158682 0.092776
17 1 0.668236 0.00579672 0.00346645
89 1 0.669423 0.0189062 0.166132
18 1 0.740487 0.078166 0.0060071
19 1 0.75543 0.00845375 0.084794
24 1 0.844293 0.0833875 0.0912939
22 1 0.938803 0.0886577 0.0121273
47 1 0.917381 0.165124 0.100165
23 1 0.920879 0.0112211 0.0863372
26 1 0.0904345 0.242962 0.0121354
25 1 0.00842693 0.177845 0.00927359
51 1 0.0901249 0.330638 0.0802371
98 1 0.0858973 0.268144 0.165563
32 1 0.168323 0.246221 0.0841383
31 1 0.243609 0.179212 0.0921366
55 1 0.244178 0.321436 0.0743545
125 1 0.16916 0.332817 0.162189
36 1 0.347382 0.261411 0.0763322
40 1 0.494831 0.254189 0.0877478
44 1 0.665609 0.23419 0.0746427
63 1 0.597535 0.325848 0.0814707
38 1 0.599136 0.255723 0.00127862
114 1 0.734612 0.251575 0.160649
42 1 0.752714 0.251144 0.0108371
45 1 0.83116 0.173272 0.0108366
28 1 0.997834 0.262168 0.0879557
48 1 0.834755 0.243842 0.0909515
117 1 0.836518 0.174873 0.165232
46 1 0.923216 0.251366 0.0180777
52 1 0.0110488 0.416916 0.0921797
122 1 0.0971047 0.418109 0.161354
121 1 0.0107151 0.341395 0.163125
50 1 0.0862699 0.418657 0.0137957
57 1 0.324379 0.345364 0.0143931
56 1 0.180987 0.419073 0.0651309
126 1 0.249575 0.406816 0.157787
58 1 0.423563 0.429697 0.00287908
59 1 0.416771 0.351398 0.0833155
60 1 0.33346 0.422591 0.0890332
443 1 0.416781 0.492193 0.0908998
64 1 0.517839 0.418626 0.0870434
62 1 0.590729 0.416823 0.00539179
68 1 0.66751 0.431064 0.0777029
67 1 0.753526 0.344887 0.0822022
72 1 0.829777 0.427214 0.0776068
137 1 0.669471 0.348352 0.154449
141 1 0.832558 0.342361 0.161927
66 1 0.744722 0.425681 0.0144813
69 1 0.829618 0.336434 0.0203801
71 1 0.914034 0.350213 0.0940067
49 1 0.99738 0.335948 0.0146991
455 1 0.909812 0.499596 0.0850847
70 1 0.929694 0.418994 0.00927445
74 1 0.0922672 0.0863003 0.186069
77 1 0.156835 0.00540584 0.182745
75 1 0.0880863 0.012121 0.269084
81 1 0.320609 0.0025619 0.174802
80 1 0.176154 0.096005 0.254389
78 1 0.242963 0.0875868 0.167488
84 1 0.324759 0.0916321 0.246741
79 1 0.247146 0.0137059 0.25681
82 1 0.406698 0.0896031 0.180098
157 1 0.480407 0.0160258 0.330138
83 1 0.395458 0.0186562 0.266395
85 1 0.491099 0.00481362 0.17929
86 1 0.577027 0.0918201 0.177843
88 1 0.506465 0.104296 0.264668
92 1 0.665158 0.0969329 0.252708
87 1 0.574853 0.0189758 0.25091
96 1 0.829446 0.0842948 0.258939
162 1 0.73455 0.0835617 0.328388
91 1 0.74505 0.0140835 0.248752
94 1 0.918753 0.0875558 0.179857
93 1 0.837886 0.00162065 0.175365
76 1 0.997086 0.0883873 0.261757
73 1 0.999395 0.00532506 0.176373
101 1 0.153956 0.176446 0.167157
99 1 0.0822901 0.184901 0.246057
100 1 0.00984522 0.258349 0.243106
97 1 0.00399139 0.171809 0.173352
170 1 0.0711406 0.260024 0.326783
102 1 0.264566 0.268511 0.167188
103 1 0.262348 0.173678 0.272886
105 1 0.325855 0.172323 0.17588
104 1 0.169166 0.260616 0.256634
108 1 0.330678 0.255703 0.276003
106 1 0.421665 0.237675 0.180605
107 1 0.416261 0.178002 0.261966
131 1 0.412196 0.331175 0.257381
109 1 0.509614 0.18247 0.185572
133 1 0.502527 0.316435 0.179014
112 1 0.502569 0.252907 0.263527
110 1 0.596563 0.252154 0.169697
111 1 0.589216 0.176796 0.264655
113 1 0.657605 0.173738 0.171775
116 1 0.674003 0.257189 0.256547
115 1 0.746046 0.169084 0.257683
120 1 0.824544 0.261012 0.244544
118 1 0.908737 0.265963 0.177205
119 1 0.922581 0.180031 0.252762
169 1 0.994898 0.186332 0.332958
190 1 0.912207 0.266967 0.325831
507 1 0.0943206 0.497287 0.245203
123 1 0.0939601 0.344583 0.259229
124 1 0.021829 0.416252 0.256917
505 1 0.0098043 0.494934 0.17654
194 1 0.0914399 0.423865 0.330048
577 1 0.0135307 0.496576 0.328256
511 1 0.251972 0.494072 0.244956
127 1 0.258793 0.344506 0.254091
128 1 0.177268 0.409487 0.254391
129 1 0.340243 0.343895 0.176364
132 1 0.338748 0.427321 0.25606
130 1 0.426976 0.413403 0.181317
202 1 0.416761 0.419955 0.328512
205 1 0.496419 0.35288 0.327128
134 1 0.592587 0.432808 0.167218
136 1 0.525333 0.415145 0.242715
135 1 0.59595 0.339885 0.254678
210 1 0.749627 0.399846 0.31845
140 1 0.6714 0.41808 0.240555
139 1 0.750814 0.335079 0.232366
138 1 0.754729 0.427571 0.168291
143 1 0.923662 0.340604 0.244736
214 1 0.914633 0.420715 0.323263
144 1 0.841453 0.431511 0.244671
142 1 0.930171 0.423428 0.17614
213 1 0.833644 0.335642 0.310943
147 1 0.0774493 0.00409298 0.419779
173 1 0.163405 0.161201 0.350599
245 1 0.165075 0.159545 0.49233
149 1 0.164324 0.005402 0.34149
146 1 0.0728509 0.0924651 0.351306
152 1 0.16275 0.0785165 0.419569
145 1 0.00446298 0.00056408 0.343597
151 1 0.247305 0.00424096 0.425486
153 1 0.318636 0.00255905 0.341459
150 1 0.256902 0.0869119 0.348977
154 1 0.409225 0.0962308 0.337087
155 1 0.409751 0.0139905 0.426182
156 1 0.341522 0.0996979 0.425981
160 1 0.494714 0.0942985 0.422049
161 1 0.654574 0.0171962 0.335168
158 1 0.57106 0.0994071 0.354117
159 1 0.565104 0.0108781 0.413576
165 1 0.814345 0.0104673 0.352116
164 1 0.67076 0.108419 0.43665
163 1 0.723896 0.00688826 0.414783
168 1 0.809562 0.0893271 0.42854
238 1 0.913311 0.0863535 0.49379
167 1 0.915463 0.00582197 0.416904
148 1 0.990296 0.092336 0.406894
166 1 0.910141 0.0788994 0.336708
242 1 0.0787796 0.276626 0.485029
171 1 0.0756292 0.185772 0.430921
197 1 0.162807 0.333273 0.35167
246 1 0.257771 0.276377 0.497453
175 1 0.251217 0.170158 0.416228
176 1 0.175235 0.267876 0.42964
174 1 0.241551 0.252855 0.349644
177 1 0.336583 0.17148 0.338207
178 1 0.419344 0.263183 0.365901
179 1 0.4134 0.179715 0.4416
180 1 0.336699 0.25141 0.430792
184 1 0.494956 0.268329 0.441987
185 1 0.656844 0.185508 0.348049
181 1 0.509483 0.196852 0.356009
183 1 0.583856 0.195449 0.432608
182 1 0.585774 0.262409 0.338615
207 1 0.578159 0.330887 0.41959
188 1 0.67356 0.263746 0.428828
186 1 0.763026 0.244356 0.336932
187 1 0.736749 0.180715 0.423432
192 1 0.823071 0.256421 0.430531
209 1 0.67746 0.32916 0.3382
215 1 0.91091 0.331708 0.407234
172 1 0.992251 0.263562 0.423776
189 1 0.842078 0.171175 0.333425
191 1 0.912023 0.169881 0.418325
579 1 0.0818129 0.493979 0.425378
195 1 0.0653259 0.359415 0.413302
200 1 0.148616 0.414687 0.427858
583 1 0.250987 0.497646 0.434119
198 1 0.247147 0.421831 0.338947
199 1 0.249086 0.348479 0.419219
204 1 0.329794 0.427882 0.408729
587 1 0.4134 0.495979 0.424444
201 1 0.333476 0.344255 0.339693
203 1 0.408698 0.350295 0.422456
591 1 0.597507 0.499803 0.430122
208 1 0.500499 0.422271 0.426948
206 1 0.591601 0.423934 0.335429
216 1 0.822327 0.42109 0.396808
212 1 0.671523 0.4059 0.418092
211 1 0.764169 0.338348 0.413969
282 1 0.753622 0.424501 0.497781
286 1 0.897134 0.42998 0.488133
196 1 0.988333 0.429323 0.415861
193 1 0.991257 0.337552 0.335399
265 1 0.9893 0.358957 0.498029
224 1 0.158653 0.0980245 0.584808
293 1 0.154683 0.0227522 0.665311
221 1 0.164195 0.0118651 0.504762
217 1 0.0035817 0.00819322 0.501013
219 1 0.0792871 0.0254999 0.57394
218 1 0.0746629 0.0983125 0.500092
289 1 0.00636401 0.00232019 0.661586
223 1 0.246415 0.0259651 0.597126
247 1 0.251622 0.16294 0.589941
225 1 0.331331 0.015759 0.508747
222 1 0.240649 0.0906325 0.503223
228 1 0.350423 0.0885031 0.594921
297 1 0.345305 0.00908691 0.659848
226 1 0.411347 0.0940191 0.504128
232 1 0.514081 0.107687 0.599131
236 1 0.6618 0.0851208 0.609138
230 1 0.580448 0.100476 0.504231
233 1 0.64446 0.00570844 0.517677
229 1 0.506672 0.0189928 0.511393
306 1 0.768047 0.0921214 0.663363
240 1 0.829815 0.0908085 0.580608
234 1 0.739449 0.0935018 0.517793
235 1 0.761514 7.49717e-05 0.581091
220 1 0.99155 0.0819158 0.58234
309 1 0.842017 0.0071284 0.666009
310 1 0.923173 0.0841103 0.660277
317 1 0.15222 0.167488 0.664195
243 1 0.0834879 0.187842 0.573357
244 1 0.00961051 0.278588 0.580618
248 1 0.164582 0.258216 0.586157
271 1 0.263074 0.321708 0.594827
249 1 0.321929 0.181844 0.505974
250 1 0.416417 0.260752 0.514163
251 1 0.417225 0.18076 0.594278
252 1 0.338124 0.247338 0.591226
275 1 0.420729 0.326621 0.604917
255 1 0.610307 0.17588 0.606394
256 1 0.507241 0.258458 0.594799
254 1 0.583331 0.27021 0.511522
253 1 0.507319 0.173671 0.512698
259 1 0.750449 0.173402 0.597253
258 1 0.764143 0.250638 0.513208
257 1 0.66774 0.17765 0.512454
260 1 0.673515 0.26076 0.589334
264 1 0.821734 0.264384 0.595328
263 1 0.919306 0.185498 0.579273
241 1 0.992127 0.168351 0.500952
313 1 0.999539 0.169416 0.65844
261 1 0.835028 0.167201 0.500623
262 1 0.910302 0.267755 0.500298
269 1 0.166377 0.339845 0.515622
267 1 0.0970253 0.348298 0.59553
268 1 0.000384794 0.414094 0.59163
651 1 0.0785667 0.484289 0.598983
266 1 0.0780377 0.417452 0.509479
272 1 0.169786 0.432692 0.602505
270 1 0.25187 0.414373 0.524221
659 1 0.412105 0.498345 0.597663
277 1 0.496658 0.340373 0.525764
274 1 0.422255 0.429647 0.50339
276 1 0.335782 0.42234 0.59106
273 1 0.338325 0.348286 0.502589
279 1 0.587395 0.346398 0.60715
280 1 0.506598 0.414024 0.603051
284 1 0.66301 0.448961 0.586489
278 1 0.590999 0.406376 0.511878
283 1 0.743218 0.358519 0.605426
288 1 0.817713 0.425006 0.57659
281 1 0.681811 0.343026 0.515673
671 1 0.902026 0.49531 0.578032
287 1 0.917983 0.340579 0.592141
285 1 0.835927 0.34133 0.503408
290 1 0.0813172 0.0935971 0.671123
296 1 0.153269 0.0976817 0.752254
291 1 0.0701373 0.00567511 0.769571
294 1 0.258076 0.104057 0.672445
295 1 0.235157 0.0125747 0.747792
319 1 0.241842 0.160946 0.755053
300 1 0.334111 0.0769272 0.742985
298 1 0.43507 0.0768907 0.670986
299 1 0.420759 0.00902089 0.757085
302 1 0.57657 0.079177 0.686651
304 1 0.505203 0.0855749 0.771862
308 1 0.663173 0.0802259 0.756819
305 1 0.692875 0.0155463 0.680422
377 1 0.678053 0.000302444 0.831866
292 1 0.985663 0.0905049 0.748906
312 1 0.855532 0.0865876 0.757819
314 1 0.0818188 0.25291 0.675614
315 1 0.0730074 0.171135 0.749458
320 1 0.160307 0.24244 0.758595
339 1 0.0789951 0.331502 0.763377
341 1 0.165152 0.324145 0.673236
318 1 0.250156 0.237546 0.685238
324 1 0.329433 0.25194 0.763893
343 1 0.244747 0.330081 0.759715
323 1 0.42213 0.172598 0.752752
321 1 0.336961 0.172726 0.693983
322 1 0.418843 0.258288 0.686886
328 1 0.490459 0.253699 0.761749
397 1 0.505657 0.168333 0.832668
327 1 0.584866 0.168803 0.747865
325 1 0.504576 0.186233 0.6739
326 1 0.586127 0.254487 0.676714
351 1 0.574667 0.332607 0.763952
329 1 0.670562 0.177924 0.686881
332 1 0.668903 0.244615 0.767189
330 1 0.748447 0.263195 0.679564
331 1 0.76452 0.172068 0.744218
336 1 0.829723 0.254617 0.756938
355 1 0.750597 0.326928 0.763852
333 1 0.842992 0.18084 0.666933
334 1 0.916674 0.263109 0.673716
335 1 0.916605 0.170698 0.747399
316 1 0.995809 0.254019 0.766185
359 1 0.919639 0.329577 0.756778
338 1 0.0794972 0.413472 0.686293
797 1 0.156676 0.498796 0.832753
344 1 0.159765 0.426214 0.753771
723 1 0.0661359 0.499601 0.753171
345 1 0.332599 0.341206 0.689661
342 1 0.26006 0.419976 0.680017
727 1 0.243021 0.493241 0.756214
348 1 0.327565 0.424134 0.782073
347 1 0.41688 0.345521 0.763329
349 1 0.497316 0.333911 0.68435
346 1 0.41346 0.421579 0.674093
352 1 0.496525 0.420756 0.763185
733 1 0.499163 0.492718 0.677976
350 1 0.581628 0.414956 0.697634
737 1 0.661374 0.496021 0.683514
353 1 0.667186 0.33713 0.683877
356 1 0.668318 0.39959 0.766105
354 1 0.743538 0.429903 0.697878
357 1 0.83077 0.349612 0.673105
739 1 0.767415 0.496303 0.779144
809 1 0.668421 0.498128 0.826728
358 1 0.915832 0.419176 0.669171
337 1 0.99206 0.339421 0.674592
340 1 0.991309 0.418813 0.749699
360 1 0.834017 0.426631 0.756053
430 1 0.909999 0.40811 0.829483
362 1 0.0842658 0.0829019 0.839481
363 1 0.0807925 0.000795237 0.923481
387 1 0.0766156 0.159532 0.920003
389 1 0.167283 0.160322 0.842529
368 1 0.169583 0.0722264 0.927522
366 1 0.250095 0.0677813 0.84056
372 1 0.327269 0.0817138 0.929351
391 1 0.2381 0.159585 0.923882
371 1 0.40839 0.00369952 0.923965
370 1 0.406908 0.0774916 0.843218
376 1 0.496865 0.0916014 0.914589
373 1 0.492021 0.00460173 0.85168
375 1 0.580387 0.00893837 0.922758
374 1 0.594809 0.073646 0.836167
401 1 0.656806 0.162141 0.842373
41 1 0.655032 0.164034 0.990209
380 1 0.656625 0.0802051 0.924945
399 1 0.581029 0.16315 0.913797
378 1 0.744219 0.101445 0.842516
403 1 0.752917 0.164354 0.939363
379 1 0.747106 0.0130482 0.922112
361 1 0.99306 0.015616 0.848136
384 1 0.833702 0.0809556 0.934847
383 1 0.91555 0.00752435 0.921336
364 1 0.985338 0.0937492 0.918264
382 1 0.911274 0.0820263 0.845098
385 1 0.991695 0.165935 0.834437
407 1 0.913679 0.163922 0.929338
53 1 0.164651 0.32971 0.987396
386 1 0.0911006 0.248093 0.848351
392 1 0.159804 0.238119 0.927176
30 1 0.241525 0.246597 0.990363
390 1 0.237706 0.24607 0.846664
393 1 0.324074 0.171557 0.83779
417 1 0.323748 0.330458 0.837588
396 1 0.323998 0.249777 0.920025
413 1 0.167098 0.331667 0.835328
419 1 0.400216 0.327125 0.935063
395 1 0.424381 0.168261 0.911469
394 1 0.416017 0.262002 0.848359
34 1 0.421696 0.239768 0.990701
425 1 0.662449 0.327406 0.84205
61 1 0.517634 0.321036 0.998858
400 1 0.502515 0.253003 0.921175
398 1 0.584022 0.260404 0.851999
402 1 0.762555 0.239941 0.842072
404 1 0.679512 0.253992 0.916644
405 1 0.839315 0.167052 0.834202
429 1 0.839043 0.32804 0.848424
388 1 0.99701 0.267915 0.93861
408 1 0.843311 0.243283 0.919702
406 1 0.923172 0.243125 0.852833
416 1 0.154892 0.419006 0.915374
412 1 0.00238794 0.419004 0.919339
411 1 0.0787163 0.344879 0.926016
410 1 0.0827057 0.414662 0.835009
433 1 0.00400289 0.49825 0.999011
54 1 0.248088 0.43397 0.989434
414 1 0.234348 0.424031 0.84079
420 1 0.332857 0.434332 0.909113
415 1 0.246077 0.353946 0.922825
421 1 0.493918 0.341765 0.844264
418 1 0.421107 0.425502 0.855804
423 1 0.581186 0.342356 0.922062
424 1 0.504888 0.439022 0.911405
422 1 0.580193 0.422684 0.835169
65 1 0.676151 0.344662 0.993543
428 1 0.668334 0.415114 0.914123
432 1 0.829827 0.432926 0.937283
426 1 0.763836 0.413504 0.848907
427 1 0.748802 0.336521 0.916983
409 1 0.999349 0.34222 0.845744
815 1 0.928796 0.492908 0.930546
431 1 0.917316 0.335406 0.922829
459 1 0.0790314 0.665388 0.0792423
435 1 0.0863409 0.505281 0.081851
440 1 0.175287 0.584909 0.078892
463 1 0.253931 0.665389 0.0893216
439 1 0.248817 0.50728 0.0943367
444 1 0.351282 0.592989 0.102006
441 1 0.335932 0.50645 0.00754568
448 1 0.504646 0.595903 0.0805298
471 1 0.583808 0.66457 0.0831709
447 1 0.586039 0.520802 0.0795163
445 1 0.504419 0.507525 0.0113149
452 1 0.667618 0.588991 0.0875191
456 1 0.829401 0.590333 0.100647
525 1 0.830203 0.506801 0.162102
451 1 0.753483 0.506022 0.0836256
436 1 0.99155 0.569088 0.0863187
479 1 0.916985 0.666332 0.0844469
454 1 0.916117 0.589402 0.00939938
453 1 0.840803 0.515375 0.0172338
458 1 0.0808459 0.749431 0.0151574
457 1 0.00105222 0.670665 0.00324373
464 1 0.156054 0.761191 0.0944058
481 1 0.011321 0.828517 0.00879603
461 1 0.161135 0.671301 0.00121076
462 1 0.25025 0.738611 0.0206711
489 1 0.326881 0.832229 0.00844101
485 1 0.170745 0.826875 0.011002
534 1 0.249953 0.753162 0.155411
465 1 0.334646 0.66971 0.0103009
468 1 0.341575 0.747619 0.0865061
467 1 0.425898 0.676924 0.0846395
472 1 0.500113 0.759306 0.0710905
497 1 0.661514 0.831642 0.00595339
542 1 0.566331 0.766561 0.154414
545 1 0.654965 0.681398 0.166364
470 1 0.589752 0.749504 0.013886
476 1 0.670598 0.765823 0.091025
475 1 0.740913 0.666818 0.095498
473 1 0.672984 0.672132 0.00859062
474 1 0.750465 0.754404 0.0154312
477 1 0.814802 0.671565 0.00845826
478 1 0.919034 0.768525 0.0064107
480 1 0.833811 0.753233 0.0882255
460 1 0.991202 0.748596 0.0929808
549 1 0.834216 0.679953 0.160612
483 1 0.07715 0.848475 0.107388
488 1 0.157875 0.913703 0.0885315
482 1 0.0875483 0.914735 0.0140986
5 1 0.164768 0.985414 0.0100795
487 1 0.247844 0.849971 0.0973961
486 1 0.235891 0.904129 0.00426126
11 1 0.416135 0.998893 0.0852184
9 1 0.338023 0.997116 0.00791231
493 1 0.491351 0.840427 0.000863631
492 1 0.333981 0.919516 0.0865861
491 1 0.415566 0.837053 0.0769513
562 1 0.410705 0.916881 0.165882
565 1 0.491712 0.84028 0.164201
490 1 0.419693 0.9268 0.0101578
496 1 0.507988 0.92347 0.0867452
495 1 0.576077 0.84112 0.0781891
500 1 0.662875 0.928748 0.0770777
494 1 0.59009 0.929103 0.00571396
499 1 0.744993 0.842355 0.0935446
501 1 0.83024 0.838251 0.0298402
504 1 0.831575 0.928756 0.0988813
498 1 0.744592 0.91533 0.00315671
570 1 0.744259 0.930421 0.15919
484 1 0.997337 0.91895 0.0916192
503 1 0.91631 0.847439 0.0977739
21 1 0.84306 0.995036 0.0126933
506 1 0.0892465 0.582552 0.177699
531 1 0.0750337 0.659555 0.257865
509 1 0.165529 0.506414 0.17043
581 1 0.167901 0.502476 0.325969
512 1 0.16822 0.579572 0.248371
510 1 0.241009 0.586541 0.174395
535 1 0.250019 0.663476 0.246317
513 1 0.332575 0.505452 0.167652
514 1 0.44497 0.592944 0.168137
515 1 0.423798 0.509308 0.248795
516 1 0.334442 0.596037 0.246099
539 1 0.428939 0.657513 0.244998
589 1 0.498751 0.505597 0.331047
586 1 0.421432 0.588106 0.327426
519 1 0.583612 0.51102 0.257387
518 1 0.584 0.590138 0.167105
520 1 0.520189 0.594197 0.260605
524 1 0.649131 0.579734 0.254136
517 1 0.509231 0.507472 0.167619
522 1 0.752644 0.578927 0.167723
523 1 0.753678 0.500675 0.24454
593 1 0.67461 0.50288 0.331721
528 1 0.828201 0.599751 0.23994
521 1 0.673494 0.506578 0.172665
508 1 0.995044 0.581605 0.25509
526 1 0.915078 0.585055 0.173442
529 1 0.993054 0.654873 0.178461
527 1 0.909605 0.507305 0.247394
530 1 0.0800815 0.739562 0.170192
532 1 0.00570668 0.752126 0.249463
605 1 0.15432 0.672453 0.329168
536 1 0.165119 0.758213 0.261314
533 1 0.168491 0.67402 0.169488
537 1 0.331961 0.682899 0.180036
559 1 0.246837 0.831195 0.260965
540 1 0.34627 0.736352 0.271077
538 1 0.415509 0.758514 0.171395
563 1 0.42245 0.830968 0.246263
544 1 0.488706 0.756405 0.247361
561 1 0.33386 0.830498 0.169238
541 1 0.503962 0.688196 0.178394
543 1 0.593586 0.6751 0.262119
613 1 0.504862 0.677152 0.332642
548 1 0.667672 0.769047 0.249971
547 1 0.744422 0.676088 0.263055
546 1 0.766323 0.761404 0.177548
618 1 0.745095 0.76768 0.331803
551 1 0.918741 0.667701 0.269617
552 1 0.843732 0.749036 0.251827
550 1 0.91964 0.756113 0.169892
575 1 0.916513 0.829957 0.255403
557 1 0.165954 0.836654 0.180018
553 1 0.00322336 0.852354 0.180512
555 1 0.0902026 0.841403 0.252801
554 1 0.0847266 0.929443 0.183256
556 1 0.0101244 0.92962 0.260162
626 1 0.100516 0.921637 0.330067
560 1 0.178892 0.925368 0.251474
558 1 0.260748 0.922943 0.181375
564 1 0.347522 0.916435 0.253921
568 1 0.478347 0.924994 0.246787
638 1 0.568956 0.92936 0.32416
566 1 0.566937 0.924364 0.174317
567 1 0.575713 0.853684 0.253664
569 1 0.649266 0.846063 0.167609
572 1 0.658793 0.928585 0.257446
642 1 0.750025 0.917897 0.331447
571 1 0.73307 0.849341 0.248722
573 1 0.818858 0.850462 0.18575
574 1 0.9178 0.913631 0.178757
645 1 0.837209 0.835664 0.323257
576 1 0.837653 0.931758 0.266895
95 1 0.923361 0.998795 0.27147
578 1 0.0886425 0.580545 0.348007
603 1 0.0874921 0.650292 0.423927
601 1 0.00904171 0.657391 0.34348
677 1 0.173818 0.659107 0.496798
654 1 0.257622 0.576098 0.499144
609 1 0.332748 0.661031 0.337686
584 1 0.173859 0.58185 0.418627
582 1 0.24567 0.579042 0.341227
607 1 0.257532 0.658067 0.417881
585 1 0.343512 0.513575 0.336562
588 1 0.346201 0.583433 0.428055
611 1 0.429421 0.649834 0.434938
592 1 0.501055 0.575137 0.421932
590 1 0.589178 0.580728 0.342633
595 1 0.745336 0.503744 0.422023
597 1 0.82547 0.519956 0.333668
594 1 0.744667 0.592589 0.341284
617 1 0.667967 0.661253 0.340165
596 1 0.674235 0.591143 0.421244
600 1 0.820174 0.594436 0.421042
599 1 0.900047 0.511122 0.406506
670 1 0.918537 0.570595 0.493479
580 1 0.998203 0.570562 0.420685
598 1 0.911568 0.586595 0.342267
602 1 0.0824711 0.749606 0.33415
608 1 0.161051 0.738838 0.420803
604 1 0.00210077 0.753429 0.417583
606 1 0.256925 0.753503 0.341651
629 1 0.172971 0.830042 0.350421
705 1 0.340298 0.82992 0.498964
633 1 0.341155 0.830241 0.342145
610 1 0.426259 0.75994 0.347107
612 1 0.350314 0.754616 0.413462
681 1 0.337876 0.680364 0.498988
689 1 0.65991 0.67293 0.496773
637 1 0.517118 0.817689 0.338969
616 1 0.511897 0.760115 0.426247
614 1 0.597104 0.750292 0.348796
615 1 0.571336 0.671729 0.421421
621 1 0.831288 0.670324 0.342554
620 1 0.683545 0.765709 0.432974
619 1 0.7483 0.675172 0.424483
624 1 0.823811 0.767024 0.406463
622 1 0.916942 0.749131 0.33902
625 1 0.991736 0.821646 0.335928
623 1 0.913502 0.666853 0.419276
694 1 0.923119 0.747841 0.481956
701 1 0.156727 0.837246 0.493594
698 1 0.0948549 0.916545 0.491017
628 1 0.000358781 0.912116 0.402256
627 1 0.0720834 0.836379 0.415629
636 1 0.32088 0.925049 0.425762
631 1 0.255489 0.83642 0.411382
630 1 0.252599 0.918267 0.337312
632 1 0.179364 0.920779 0.422613
634 1 0.414326 0.928616 0.346219
635 1 0.424749 0.839863 0.4146
640 1 0.497355 0.923872 0.412273
644 1 0.656046 0.922273 0.441959
639 1 0.586011 0.843109 0.448746
714 1 0.750223 0.930225 0.499777
717 1 0.818088 0.839282 0.494181
641 1 0.667458 0.858914 0.334669
643 1 0.748697 0.844707 0.40884
648 1 0.846222 0.924486 0.419503
646 1 0.923856 0.912939 0.338718
237 1 0.840951 0.994982 0.497833
647 1 0.913457 0.834586 0.417481
656 1 0.16081 0.589351 0.59693
722 1 0.0726086 0.573565 0.663464
650 1 0.0775657 0.584433 0.505296
653 1 0.151823 0.502911 0.508829
655 1 0.257282 0.510881 0.58255
660 1 0.335498 0.599946 0.579443
683 1 0.429694 0.662058 0.601483
658 1 0.43105 0.583448 0.526873
657 1 0.34096 0.500982 0.505076
664 1 0.502247 0.580759 0.604062
668 1 0.66531 0.585922 0.608299
661 1 0.503884 0.509179 0.516081
663 1 0.580419 0.513463 0.603064
662 1 0.58469 0.577042 0.516914
685 1 0.503085 0.661977 0.502142
665 1 0.67304 0.522089 0.512389
666 1 0.755151 0.597682 0.519928
669 1 0.81727 0.514817 0.500147
667 1 0.755475 0.523648 0.597866
741 1 0.832201 0.500996 0.666031
649 1 0.98911 0.50608 0.517702
672 1 0.84417 0.596076 0.593881
652 1 0.983369 0.590937 0.58245
675 1 0.0772495 0.666762 0.58735
699 1 0.0965192 0.83031 0.581459
674 1 0.0808737 0.750849 0.505842
673 1 0.00460159 0.681247 0.50408
680 1 0.16937 0.747317 0.578471
679 1 0.250995 0.669571 0.583173
703 1 0.257332 0.822262 0.580747
749 1 0.171467 0.680106 0.663304
750 1 0.232337 0.753664 0.662634
678 1 0.254365 0.748583 0.51055
684 1 0.34379 0.742907 0.5889
682 1 0.426096 0.749534 0.501584
688 1 0.504224 0.749062 0.576171
686 1 0.589755 0.753685 0.504981
687 1 0.584019 0.667014 0.584963
692 1 0.657344 0.747512 0.598752
691 1 0.738427 0.676359 0.583584
762 1 0.743773 0.760236 0.659887
696 1 0.833002 0.780387 0.582563
690 1 0.755172 0.748802 0.510768
676 1 0.99702 0.751373 0.594557
695 1 0.913111 0.689716 0.591469
719 1 0.921836 0.829241 0.58572
745 1 0.999293 0.673115 0.664894
693 1 0.838216 0.676065 0.507261
704 1 0.155102 0.949401 0.590941
700 1 0.00921925 0.932195 0.577681
769 1 0.00827302 0.84607 0.65653
697 1 0.00403566 0.833353 0.513891
773 1 0.168415 0.854048 0.653109
708 1 0.331765 0.927418 0.594758
702 1 0.250658 0.928793 0.526804
777 1 0.326038 0.853784 0.663221
707 1 0.422331 0.837166 0.579
778 1 0.41244 0.929579 0.662599
712 1 0.499632 0.934978 0.597532
227 1 0.421849 0.997926 0.580359
706 1 0.404648 0.914177 0.509344
231 1 0.577917 0.997877 0.600698
710 1 0.57174 0.925694 0.508469
711 1 0.583415 0.848512 0.597392
709 1 0.500226 0.849255 0.502569
715 1 0.739547 0.840668 0.597435
716 1 0.67488 0.929343 0.607437
786 1 0.768746 0.9186 0.666524
713 1 0.680771 0.837693 0.512159
239 1 0.923692 0.995091 0.580002
720 1 0.843762 0.924692 0.584535
718 1 0.931447 0.915644 0.502693
728 1 0.156712 0.594417 0.748078
747 1 0.0705865 0.658129 0.741601
721 1 0.000723454 0.500779 0.675826
726 1 0.254893 0.583039 0.669758
729 1 0.330571 0.506445 0.674422
725 1 0.175288 0.516568 0.670947
730 1 0.421991 0.592562 0.682299
805 1 0.491557 0.512213 0.825985
732 1 0.339327 0.592398 0.748909
731 1 0.404845 0.501756 0.763826
735 1 0.585455 0.503726 0.758596
736 1 0.517684 0.595757 0.760566
734 1 0.59543 0.583083 0.689943
806 1 0.599836 0.597506 0.824264
738 1 0.75919 0.593594 0.671837
740 1 0.686465 0.588677 0.752082
742 1 0.921752 0.587186 0.673892
724 1 0.99675 0.585349 0.768895
744 1 0.838486 0.58745 0.768835
743 1 0.91122 0.517047 0.751167
746 1 0.0818699 0.763179 0.671501
752 1 0.157485 0.748334 0.75546
748 1 0.00760521 0.750883 0.75607
753 1 0.323476 0.671348 0.673072
751 1 0.250564 0.674183 0.757202
756 1 0.32685 0.75855 0.731408
822 1 0.254148 0.753516 0.829616
845 1 0.171929 0.829285 0.818308
754 1 0.437388 0.752318 0.668837
755 1 0.43215 0.68046 0.74978
761 1 0.66022 0.666781 0.675536
757 1 0.506104 0.668236 0.671142
760 1 0.501875 0.763992 0.754694
759 1 0.581094 0.694024 0.749799
758 1 0.579692 0.755436 0.670275
785 1 0.660359 0.833321 0.6716
829 1 0.508039 0.676184 0.830144
765 1 0.820064 0.683943 0.675389
764 1 0.67867 0.759891 0.765469
763 1 0.767183 0.674093 0.764543
766 1 0.934217 0.758914 0.677222
767 1 0.924052 0.677325 0.752171
768 1 0.844779 0.758481 0.748384
770 1 0.0825331 0.931126 0.675493
771 1 0.0884317 0.834371 0.742312
776 1 0.159903 0.907431 0.743371
365 1 0.15372 0.997192 0.832736
775 1 0.254594 0.840545 0.744564
774 1 0.24621 0.934902 0.671162
846 1 0.251111 0.921936 0.820968
781 1 0.489231 0.845614 0.672403
779 1 0.419538 0.834938 0.76229
780 1 0.334123 0.931061 0.752331
784 1 0.491584 0.928834 0.771637
849 1 0.34113 0.851318 0.833267
782 1 0.574737 0.911531 0.689535
783 1 0.571776 0.837325 0.756639
303 1 0.597626 0.998151 0.749692
301 1 0.500272 0.999264 0.685871
788 1 0.667433 0.909322 0.754039
787 1 0.761787 0.845603 0.753092
307 1 0.776782 0.998334 0.76044
789 1 0.839709 0.844469 0.674263
790 1 0.917747 0.922685 0.677652
791 1 0.9226 0.847342 0.759086
772 1 0.99905 0.917824 0.756417
792 1 0.837577 0.916607 0.757606
311 1 0.928961 0.998636 0.76524
795 1 0.078503 0.505038 0.900799
794 1 0.0927348 0.597724 0.842771
796 1 0.00118272 0.591386 0.924698
434 1 0.0863856 0.594046 0.99759
801 1 0.324162 0.53173 0.84169
437 1 0.173539 0.507434 0.992221
438 1 0.256287 0.591097 0.997678
799 1 0.246011 0.509121 0.903568
800 1 0.172577 0.599161 0.926486
798 1 0.237126 0.600625 0.838032
803 1 0.409251 0.520018 0.928994
802 1 0.41377 0.586313 0.848735
442 1 0.427826 0.597314 0.998563
804 1 0.348529 0.603144 0.927083
446 1 0.58445 0.591634 0.995185
449 1 0.66394 0.513019 0.997874
808 1 0.505096 0.581395 0.907801
812 1 0.661048 0.589319 0.911849
807 1 0.585507 0.50743 0.927454
811 1 0.739856 0.500929 0.911848
810 1 0.755699 0.588866 0.839613
835 1 0.7514 0.665478 0.906917
450 1 0.76228 0.57999 0.987013
793 1 0.981537 0.502139 0.838237
814 1 0.92043 0.599143 0.837824
816 1 0.85184 0.590099 0.931306
837 1 0.836601 0.664929 0.840533
813 1 0.854155 0.510348 0.854732
841 1 0.00737538 0.827804 0.843063
819 1 0.0775189 0.67394 0.927703
818 1 0.082973 0.743743 0.840751
824 1 0.164971 0.753162 0.918453
821 1 0.161647 0.677268 0.845428
817 1 0.00157895 0.668477 0.842741
820 1 0.00966882 0.757991 0.920423
823 1 0.248187 0.674311 0.931706
825 1 0.324447 0.669679 0.839725
828 1 0.328372 0.751428 0.920075
469 1 0.495289 0.675574 0.999028
466 1 0.419837 0.75411 0.992184
827 1 0.425571 0.679309 0.920373
826 1 0.392726 0.755709 0.833452
833 1 0.665875 0.682324 0.840956
832 1 0.511301 0.75004 0.925655
830 1 0.588131 0.762093 0.853434
831 1 0.58551 0.672174 0.925273
853 1 0.502464 0.833325 0.852629
836 1 0.671043 0.750397 0.929291
834 1 0.754889 0.756713 0.834794
840 1 0.825834 0.777135 0.924484
863 1 0.918572 0.82635 0.91192
839 1 0.903528 0.685737 0.928187
838 1 0.921921 0.754874 0.839169
844 1 0.0063027 0.911477 0.918128
843 1 0.0824395 0.835145 0.921144
842 1 0.0801221 0.921202 0.837862
848 1 0.158449 0.913951 0.920265
369 1 0.325857 0.993331 0.853073
847 1 0.243592 0.836232 0.896086
852 1 0.310857 0.9133 0.922725
367 1 0.244178 0.993585 0.930349
850 1 0.414347 0.922863 0.844743
851 1 0.407295 0.836351 0.933392
860 1 0.66579 0.91364 0.916459
855 1 0.576775 0.838204 0.930774
857 1 0.664252 0.83915 0.837213
854 1 0.57444 0.922567 0.835523
856 1 0.509613 0.930361 0.922796
381 1 0.82717 0.989089 0.850786
859 1 0.745613 0.845431 0.92722
858 1 0.754726 0.901038 0.837298
864 1 0.835407 0.924987 0.931451
502 1 0.934391 0.924841 0.988682
861 1 0.837406 0.836168 0.848487
862 1 0.920722 0.921558 0.839647
