ITEM: TIMESTEP
16750
ITEM: NUMBER OF ATOMS
864
ITEM: BOX BOUNDS pp pp pp
0.0000000000000000e+00 3.1559999999999999e+01
0.0000000000000000e+00 3.1559999999999999e+01
0.0000000000000000e+00 3.1559999999999999e+01
ITEM: ATOMS id type xs ys zs
4 1 0.0419836 0.0940445 0.0803116
38 1 0.124603 0.0940545 0.147769
39 1 0.107048 0.00962106 0.233801
8 1 0.205502 0.095271 0.0604137
42 1 0.288127 0.0918676 0.142044
118 1 0.456521 0.0974633 0.499017
19 1 0.296707 0.170409 0.0638162
109 1 0.0244512 0.0261749 0.478643
12 1 0.377475 0.0955311 0.0655199
46 1 0.43213 0.0948763 0.157247
83 1 0.440914 0.0132403 0.398946
11 1 0.450828 0.00993591 0.0800224
15 1 0.117288 0.182628 0.0711571
16 1 0.0414502 0.268613 0.0641317
50 1 0.134532 0.258916 0.15281
49 1 0.0461702 0.192491 0.160396
61 1 0.030106 0.342482 0.149478
20 1 0.195109 0.251927 0.0535151
53 1 0.207737 0.167831 0.146493
65 1 0.189373 0.352421 0.161033
57 1 0.359621 0.182397 0.147237
24 1 0.361629 0.266903 0.0575932
23 1 0.433938 0.189964 0.0628805
58 1 0.436309 0.275634 0.150267
27 1 0.11627 0.340979 0.0684678
62 1 0.114542 0.420187 0.153759
28 1 0.0385685 0.437521 0.0807578
32 1 0.2027 0.439565 0.0816284
31 1 0.268975 0.349973 0.078237
66 1 0.27628 0.451728 0.172745
69 1 0.360855 0.34223 0.148222
36 1 0.360244 0.437732 0.0873011
35 1 0.436592 0.362385 0.0756277
70 1 0.432737 0.435606 0.163154
40 1 0.0240142 0.108968 0.217365
121 1 0.027392 0.183584 0.488279
133 1 0.0338081 0.346052 0.492068
44 1 0.197795 0.0928397 0.23258
78 1 0.267202 0.0940061 0.318603
137 1 0.185255 0.326822 0.498522
48 1 0.345137 0.0955971 0.246254
82 1 0.450925 0.109438 0.315841
77 1 0.187742 0.0128665 0.320333
51 1 0.118259 0.177222 0.232202
85 1 0.0351999 0.180888 0.311563
86 1 0.121713 0.257846 0.321622
52 1 0.0362091 0.254596 0.238422
63 1 0.109909 0.334725 0.234305
54 1 0.276428 0.260543 0.146383
55 1 0.268701 0.178626 0.239756
89 1 0.194339 0.170953 0.327099
56 1 0.202452 0.257563 0.242159
90 1 0.276485 0.252568 0.323403
59 1 0.448933 0.183573 0.230945
60 1 0.340293 0.261248 0.228661
94 1 0.444125 0.27067 0.315
93 1 0.356943 0.180693 0.311847
64 1 0.03001 0.441684 0.236211
98 1 0.12167 0.418076 0.331408
97 1 0.0402986 0.337155 0.325291
26 1 0.111788 0.431075 0.0117245
101 1 0.193454 0.343326 0.325775
67 1 0.273237 0.351177 0.24325
68 1 0.189745 0.436745 0.246958
102 1 0.272577 0.438378 0.327585
108 1 0.364739 0.430021 0.403814
71 1 0.428402 0.345438 0.239514
105 1 0.351991 0.358549 0.320781
106 1 0.441081 0.426864 0.316899
72 1 0.349877 0.439711 0.244939
74 1 0.105093 0.0947266 0.299705
76 1 0.0353926 0.0978665 0.397989
114 1 0.290147 0.0950885 0.490594
110 1 0.0984299 0.0910075 0.493235
75 1 0.105543 0.0182283 0.391922
37 1 0.0353606 0.00979279 0.153302
80 1 0.192836 0.0880683 0.415549
7 1 0.289622 0.00711253 0.0671457
47 1 0.434195 0.00492038 0.24718
141 1 0.360725 0.340351 0.481749
84 1 0.370039 0.101872 0.410484
73 1 0.0327167 0.00917847 0.305605
79 1 0.284604 0.00323042 0.407372
87 1 0.119519 0.195279 0.405034
88 1 0.0374582 0.252756 0.41699
126 1 0.28291 0.261756 0.487182
41 1 0.200263 0.0207421 0.148282
142 1 0.447135 0.423829 0.495295
91 1 0.286643 0.179728 0.400385
92 1 0.200385 0.26244 0.404972
130 1 0.437545 0.263146 0.483713
3 1 0.13099 0.00646103 0.0680432
95 1 0.445475 0.189611 0.394021
96 1 0.370469 0.270609 0.39821
100 1 0.0345599 0.422684 0.400256
107 1 0.45316 0.339414 0.413493
99 1 0.106572 0.333771 0.4115
138 1 0.293053 0.432982 0.493541
103 1 0.271928 0.346069 0.407282
104 1 0.205828 0.420852 0.422044
129 1 0.368995 0.180548 0.495359
81 1 0.358604 0.0164869 0.324371
113 1 0.201019 0.0164396 0.48307
117 1 0.38948 0.00469361 0.494478
134 1 0.127682 0.415731 0.487046
125 1 0.180078 0.185523 0.4966
43 1 0.285911 0.00295592 0.240715
122 1 0.0992341 0.257389 0.498719
146 1 0.115899 0.090662 0.6386
145 1 0.0259284 0.0175801 0.659585
112 1 0.0207959 0.0949617 0.570537
9 1 0.376069 0.0133561 0.982372
13 1 0.0351971 0.172487 0.989405
116 1 0.198946 0.089105 0.553291
150 1 0.281337 0.0980583 0.645779
124 1 0.0359702 0.256971 0.583264
153 1 0.35825 0.0027024 0.654935
120 1 0.369177 0.0770091 0.559095
154 1 0.457872 0.0834832 0.631725
211 1 0.288747 0.35447 0.902757
123 1 0.112455 0.179232 0.577369
212 1 0.218587 0.425769 0.900189
158 1 0.112305 0.257296 0.653773
157 1 0.0313887 0.16323 0.652304
161 1 0.194036 0.192262 0.664638
127 1 0.268265 0.179244 0.570503
128 1 0.198611 0.256606 0.581096
162 1 0.279401 0.279122 0.646512
173 1 0.197348 0.352863 0.660901
131 1 0.444388 0.172227 0.573124
165 1 0.35445 0.19052 0.652066
132 1 0.35414 0.25178 0.566937
166 1 0.438657 0.260619 0.640278
143 1 0.425785 0.336129 0.573726
169 1 0.0354662 0.342052 0.651575
135 1 0.111728 0.337256 0.577925
170 1 0.122336 0.429412 0.660772
136 1 0.039989 0.413914 0.578151
34 1 0.445171 0.432429 0.972162
139 1 0.267795 0.351467 0.565313
140 1 0.192883 0.430545 0.566045
174 1 0.283494 0.424714 0.656947
14 1 0.108978 0.25409 0.981111
177 1 0.365721 0.350305 0.656969
144 1 0.371654 0.43191 0.565734
178 1 0.452836 0.432632 0.651935
148 1 0.0369814 0.089924 0.746797
189 1 0.377955 0.0267155 0.809881
182 1 0.124956 0.109616 0.815174
191 1 0.454899 0.0113486 0.898467
152 1 0.19285 0.101239 0.733645
186 1 0.285983 0.0996975 0.821639
151 1 0.285145 0.0295203 0.731077
185 1 0.206995 0.00538878 0.819526
156 1 0.365699 0.107555 0.726459
190 1 0.444106 0.114384 0.80583
193 1 0.0200751 0.186848 0.831506
159 1 0.119611 0.182547 0.735247
194 1 0.0977437 0.252925 0.821976
160 1 0.0245279 0.246365 0.730742
205 1 0.0288148 0.352526 0.823778
197 1 0.200344 0.178965 0.819179
163 1 0.278219 0.173573 0.727541
164 1 0.193312 0.268546 0.755482
198 1 0.280949 0.264606 0.8166
175 1 0.279572 0.352609 0.729335
168 1 0.365003 0.261555 0.724606
167 1 0.443605 0.180242 0.715655
201 1 0.357129 0.187114 0.806941
202 1 0.438669 0.253922 0.813677
179 1 0.445517 0.344394 0.73593
172 1 0.0210573 0.429542 0.727532
171 1 0.111414 0.344649 0.752599
206 1 0.113698 0.43292 0.822403
221 1 0.190813 0.495286 0.978381
209 1 0.203205 0.35269 0.822366
210 1 0.287259 0.427301 0.818959
176 1 0.194122 0.436899 0.754967
215 1 0.452687 0.348906 0.879031
216 1 0.370341 0.434727 0.894274
2 1 0.122556 0.107104 0.983283
214 1 0.459386 0.450473 0.807493
180 1 0.38038 0.44656 0.734272
213 1 0.358546 0.342951 0.803729
183 1 0.115959 0.0181218 0.914452
208 1 0.0252152 0.443581 0.900791
184 1 0.0420626 0.0958175 0.902514
155 1 0.4571 0.0253962 0.732672
195 1 0.144737 0.199103 0.902362
187 1 0.283751 0.0247666 0.901172
33 1 0.367283 0.355082 0.990207
188 1 0.200539 0.0942406 0.9076
6 1 0.284157 0.0888472 0.991641
5 1 0.206113 0.0105274 0.976277
10 1 0.455994 0.0936537 0.98097
192 1 0.365333 0.107893 0.895944
29 1 0.183155 0.360166 0.990114
30 1 0.283291 0.429928 0.993836
147 1 0.114714 0.0171828 0.733385
196 1 0.0306564 0.276534 0.905563
115 1 0.280003 0.00668922 0.562899
18 1 0.26886 0.265804 0.981399
200 1 0.206919 0.284234 0.903385
199 1 0.277914 0.183282 0.89077
21 1 0.366616 0.18183 0.982958
203 1 0.442096 0.183576 0.898803
204 1 0.360851 0.272274 0.90388
22 1 0.438252 0.267985 0.982483
207 1 0.106033 0.365956 0.908287
17 1 0.209413 0.17275 0.980157
1 1 0.0321932 0.0185627 0.987081
181 1 0.0416538 0.0182297 0.826389
111 1 0.105386 0.00347471 0.566993
149 1 0.197302 0.0188961 0.643348
25 1 0.0332125 0.360102 0.985424
119 1 0.455612 0.00348354 0.569736
220 1 0.0395666 0.604661 0.0662166
254 1 0.116874 0.606644 0.154454
358 1 0.45644 0.916113 0.48533
219 1 0.116288 0.523788 0.0840578
224 1 0.19505 0.588948 0.0700302
258 1 0.286493 0.604891 0.158481
223 1 0.274318 0.518807 0.0842093
350 1 0.118747 0.931427 0.485368
228 1 0.361273 0.585029 0.0720196
289 1 0.038693 0.50845 0.31476
262 1 0.451512 0.602807 0.146418
227 1 0.451924 0.520597 0.072304
231 1 0.11438 0.689121 0.0700463
232 1 0.0238473 0.760217 0.0576107
266 1 0.0973507 0.782013 0.135555
265 1 0.0345004 0.685609 0.129141
277 1 0.0301918 0.865154 0.15307
269 1 0.188436 0.677693 0.151601
236 1 0.187475 0.761354 0.0819304
235 1 0.273496 0.671047 0.0808198
270 1 0.285495 0.754666 0.162888
240 1 0.356319 0.763399 0.0637554
273 1 0.360854 0.67716 0.151341
239 1 0.437476 0.68629 0.0694611
274 1 0.438441 0.761128 0.147791
244 1 0.0387565 0.934208 0.0789182
243 1 0.114388 0.864034 0.0693095
278 1 0.125374 0.932686 0.158845
329 1 0.202179 0.515448 0.484131
247 1 0.272715 0.82911 0.0748628
248 1 0.221279 0.921757 0.0591874
282 1 0.270018 0.924422 0.151427
281 1 0.194463 0.833599 0.157026
251 1 0.445939 0.848134 0.0606716
285 1 0.366183 0.838593 0.149714
252 1 0.359317 0.921486 0.0657776
286 1 0.4506 0.923065 0.144286
290 1 0.115987 0.589959 0.318653
256 1 0.0294489 0.613922 0.234641
324 1 0.366282 0.9268 0.408978
260 1 0.192465 0.607526 0.23462
305 1 0.21154 0.675504 0.327062
294 1 0.289147 0.60116 0.333136
345 1 0.369748 0.680629 0.480389
263 1 0.439546 0.515562 0.244879
264 1 0.366663 0.593178 0.241112
298 1 0.453277 0.603286 0.313595
297 1 0.359328 0.510321 0.323345
267 1 0.118093 0.690979 0.245276
268 1 0.0136957 0.768987 0.210343
313 1 0.0314736 0.831128 0.32286
302 1 0.12827 0.766557 0.325975
301 1 0.0366093 0.692995 0.329516
272 1 0.198097 0.763213 0.239027
306 1 0.285529 0.759623 0.316338
271 1 0.283223 0.672896 0.238018
275 1 0.445636 0.673839 0.219614
276 1 0.357298 0.742728 0.233406
310 1 0.445735 0.762885 0.311898
309 1 0.369099 0.682953 0.324462
321 1 0.360174 0.836064 0.329203
279 1 0.102076 0.834497 0.235693
280 1 0.0338835 0.91617 0.241457
318 1 0.277787 0.925376 0.316575
283 1 0.277413 0.841647 0.236566
284 1 0.193805 0.932126 0.24085
317 1 0.186192 0.852833 0.310788
337 1 0.0285477 0.676389 0.47404
287 1 0.446085 0.846082 0.227621
322 1 0.443822 0.916637 0.331015
288 1 0.358124 0.908436 0.230519
357 1 0.357626 0.851314 0.4771
293 1 0.191976 0.509962 0.330739
353 1 0.215637 0.848955 0.495501
292 1 0.0429164 0.580583 0.400722
261 1 0.369194 0.518901 0.162955
333 1 0.378579 0.509635 0.475488
330 1 0.291312 0.606911 0.487622
296 1 0.210552 0.596311 0.415525
255 1 0.110411 0.524932 0.238958
295 1 0.283658 0.506196 0.412956
257 1 0.199205 0.526137 0.167785
354 1 0.286664 0.924879 0.489227
334 1 0.450163 0.60408 0.478044
300 1 0.37309 0.595459 0.393759
304 1 0.0412177 0.776826 0.406708
303 1 0.124378 0.678591 0.406733
338 1 0.130988 0.779495 0.476298
342 1 0.289196 0.771938 0.472117
319 1 0.269906 0.849334 0.397855
341 1 0.202922 0.679759 0.480024
308 1 0.20525 0.755128 0.396105
307 1 0.294396 0.684317 0.404872
291 1 0.126909 0.506691 0.409728
311 1 0.449133 0.693888 0.410911
259 1 0.282313 0.524177 0.254318
312 1 0.370183 0.759843 0.400327
323 1 0.442472 0.84175 0.397218
314 1 0.111174 0.938694 0.312053
316 1 0.0363292 0.931951 0.399917
315 1 0.114422 0.858369 0.403649
349 1 0.0344253 0.852092 0.49678
320 1 0.203259 0.945542 0.400425
253 1 0.0342725 0.529842 0.157166
299 1 0.445426 0.519123 0.389469
326 1 0.116512 0.587166 0.473832
45 1 0.357564 0.996748 0.151203
325 1 0.0338108 0.50052 0.475238
362 1 0.103984 0.601497 0.64457
328 1 0.0227074 0.597462 0.550434
371 1 0.467013 0.510775 0.719181
367 1 0.27375 0.506082 0.730375
332 1 0.219804 0.593681 0.562541
366 1 0.277692 0.611494 0.656842
343 1 0.293445 0.685687 0.572332
405 1 0.359544 0.519024 0.818754
336 1 0.370896 0.608517 0.570743
381 1 0.367986 0.674008 0.661819
369 1 0.36741 0.505078 0.650214
370 1 0.456921 0.589123 0.651311
250 1 0.45273 0.942948 0.979922
373 1 0.0333657 0.682946 0.637925
339 1 0.122431 0.658321 0.552951
340 1 0.0491908 0.744395 0.559983
374 1 0.124099 0.756435 0.656139
377 1 0.198198 0.677614 0.653638
344 1 0.195971 0.747344 0.569382
378 1 0.276113 0.756198 0.660477
355 1 0.288342 0.850263 0.565688
389 1 0.205838 0.845903 0.655418
347 1 0.44705 0.687701 0.577328
348 1 0.361353 0.778684 0.56678
382 1 0.441128 0.761442 0.653445
385 1 0.0260272 0.845244 0.63814
351 1 0.12008 0.831566 0.574569
386 1 0.108458 0.931922 0.652286
352 1 0.0193586 0.935185 0.568074
356 1 0.183697 0.915344 0.572265
390 1 0.2789 0.930455 0.644891
359 1 0.44808 0.844617 0.56924
393 1 0.351301 0.834102 0.663962
360 1 0.370181 0.920477 0.564037
394 1 0.446821 0.930467 0.648168
364 1 0.0385928 0.594515 0.744145
398 1 0.110957 0.589521 0.818411
397 1 0.0313044 0.517766 0.817533
368 1 0.185894 0.60035 0.737929
402 1 0.283169 0.591795 0.828479
407 1 0.45143 0.513836 0.907822
372 1 0.379549 0.584295 0.732629
406 1 0.456344 0.576735 0.811979
417 1 0.368855 0.678287 0.817096
375 1 0.115462 0.696435 0.734538
376 1 0.0399947 0.773901 0.735678
410 1 0.126941 0.755886 0.822477
409 1 0.0393497 0.674096 0.811588
379 1 0.278699 0.670906 0.753288
413 1 0.194277 0.675232 0.82581
380 1 0.201892 0.761981 0.734674
425 1 0.197726 0.853623 0.811307
391 1 0.280134 0.848979 0.74151
414 1 0.274178 0.755647 0.827095
383 1 0.459745 0.684224 0.728609
384 1 0.355893 0.769467 0.750324
418 1 0.434906 0.774142 0.826319
421 1 0.0297881 0.841947 0.817327
388 1 0.0417966 0.926334 0.75338
387 1 0.12552 0.840931 0.739486
422 1 0.120398 0.935041 0.813641
392 1 0.192794 0.937215 0.73454
426 1 0.290985 0.936357 0.822468
432 1 0.364788 0.948392 0.898504
395 1 0.449908 0.836201 0.740965
429 1 0.365516 0.850365 0.824759
396 1 0.355359 0.932603 0.733427
430 1 0.446402 0.938766 0.79963
225 1 0.362734 0.51072 0.983086
400 1 0.021458 0.594129 0.909076
218 1 0.118991 0.602193 0.986121
399 1 0.11243 0.521147 0.904767
234 1 0.284012 0.747682 0.996358
217 1 0.0364686 0.512716 0.98039
404 1 0.197132 0.594133 0.910383
222 1 0.28133 0.589588 0.998975
230 1 0.118259 0.768173 0.975607
415 1 0.274573 0.673149 0.905168
408 1 0.356042 0.597182 0.906163
331 1 0.2945 0.519993 0.561242
226 1 0.454272 0.595357 0.981264
229 1 0.0438021 0.676794 0.977677
361 1 0.0397466 0.504277 0.640331
412 1 0.0313724 0.75172 0.883373
411 1 0.121089 0.674096 0.913733
241 1 0.0450497 0.848341 0.963111
423 1 0.119198 0.843994 0.87864
365 1 0.18392 0.522034 0.638928
403 1 0.28818 0.508076 0.904106
416 1 0.214696 0.775599 0.904892
238 1 0.434992 0.764952 0.997425
237 1 0.371438 0.662059 0.987083
419 1 0.442763 0.68875 0.904758
420 1 0.351742 0.75945 0.902583
242 1 0.112274 0.936189 0.979628
424 1 0.0478058 0.928291 0.894248
246 1 0.297452 0.940652 0.973849
427 1 0.278272 0.857746 0.895792
428 1 0.195132 0.933761 0.900818
245 1 0.201868 0.840304 0.9872
249 1 0.360737 0.85046 0.983009
335 1 0.451692 0.520891 0.569038
431 1 0.437897 0.865244 0.900257
327 1 0.114738 0.512119 0.554521
363 1 0.110224 0.520605 0.737272
401 1 0.21058 0.523298 0.832707
233 1 0.196578 0.675973 0.994324
346 1 0.44438 0.754798 0.500394
470 1 0.606024 0.101454 0.153566
436 1 0.52812 0.0963694 0.0743413
550 1 0.943921 0.0971167 0.472147
539 1 0.948696 0.337832 0.411503
440 1 0.686138 0.102587 0.0489024
474 1 0.761249 0.100811 0.12876
444 1 0.846669 0.089385 0.0636554
478 1 0.952328 0.101712 0.134877
540 1 0.853692 0.423281 0.399612
447 1 0.607738 0.190131 0.0560397
482 1 0.592008 0.274338 0.146478
448 1 0.515576 0.275019 0.0645679
443 1 0.937801 0.0179149 0.0635259
451 1 0.774492 0.189308 0.0589977
485 1 0.679859 0.186244 0.140802
452 1 0.689259 0.275857 0.0677785
486 1 0.787285 0.253591 0.151722
489 1 0.866452 0.171397 0.148368
456 1 0.868873 0.259959 0.0699953
455 1 0.955873 0.191061 0.0760328
490 1 0.950145 0.266852 0.147264
459 1 0.609972 0.345017 0.0522733
460 1 0.51675 0.441172 0.063029
493 1 0.529892 0.356823 0.129046
497 1 0.707026 0.351518 0.152607
463 1 0.784249 0.330352 0.0702211
464 1 0.696494 0.430839 0.0708227
498 1 0.798233 0.428128 0.149931
467 1 0.956601 0.347216 0.0817841
468 1 0.879642 0.431194 0.0635706
501 1 0.860999 0.343488 0.157152
502 1 0.960931 0.4296 0.162767
535 1 0.770361 0.340171 0.408123
506 1 0.586464 0.103452 0.316162
472 1 0.523678 0.0981926 0.218509
469 1 0.515881 0.0029134 0.165112
471 1 0.605797 0.0163018 0.229223
569 1 0.690424 0.338559 0.490207
476 1 0.688094 0.101932 0.235426
510 1 0.770859 0.10246 0.322146
565 1 0.526324 0.346815 0.498757
480 1 0.868107 0.0981981 0.24684
514 1 0.96808 0.0883994 0.307719
513 1 0.847059 0.0151909 0.311139
484 1 0.526362 0.267577 0.221404
517 1 0.542993 0.194334 0.299835
483 1 0.613377 0.191908 0.227931
518 1 0.611098 0.274933 0.314827
495 1 0.611233 0.352136 0.236571
521 1 0.702032 0.196732 0.314483
487 1 0.780532 0.163125 0.233558
488 1 0.689728 0.270642 0.232839
522 1 0.792215 0.265655 0.306641
525 1 0.874191 0.174937 0.316618
491 1 0.946831 0.190711 0.240178
492 1 0.880671 0.26541 0.238252
526 1 0.956319 0.266928 0.32581
496 1 0.521677 0.427552 0.231709
494 1 0.619814 0.427533 0.149637
529 1 0.524274 0.352498 0.309575
530 1 0.614795 0.426667 0.31134
499 1 0.786117 0.348064 0.237083
533 1 0.698969 0.348337 0.312061
534 1 0.780826 0.428775 0.326853
500 1 0.708552 0.442307 0.230091
541 1 0.540523 0.010855 0.493024
537 1 0.861804 0.343409 0.332215
503 1 0.95028 0.348908 0.259458
538 1 0.943779 0.436757 0.324103
504 1 0.875128 0.42959 0.240215
508 1 0.523977 0.0921575 0.403789
557 1 0.67755 0.170465 0.493013
507 1 0.602794 0.0210531 0.390472
542 1 0.601236 0.0881294 0.474386
512 1 0.686558 0.106202 0.398436
546 1 0.768558 0.1071 0.477297
523 1 0.778178 0.181852 0.393164
574 1 0.951701 0.435848 0.491791
545 1 0.679092 0.0249659 0.463603
515 1 0.936114 0.0137368 0.391124
554 1 0.611533 0.258293 0.478785
481 1 0.524305 0.188071 0.135939
516 1 0.850771 0.102359 0.40468
553 1 0.53198 0.183969 0.483403
435 1 0.606646 0.0175065 0.0635834
519 1 0.611258 0.188987 0.385567
520 1 0.536644 0.263912 0.398134
549 1 0.861589 0.0167095 0.487218
511 1 0.773688 0.0292303 0.404671
558 1 0.769429 0.259033 0.475237
524 1 0.695872 0.266309 0.391353
561 1 0.849046 0.180903 0.475
562 1 0.937563 0.252818 0.478461
527 1 0.951317 0.16493 0.396393
528 1 0.868836 0.257605 0.404596
573 1 0.863978 0.345999 0.482166
531 1 0.602869 0.349338 0.414564
532 1 0.523746 0.429581 0.397037
566 1 0.609257 0.438177 0.482833
536 1 0.699597 0.420585 0.409371
475 1 0.775516 0.0431496 0.231307
509 1 0.696947 0.0266404 0.315833
477 1 0.863426 0.031036 0.148199
473 1 0.687451 0.0319204 0.144019
505 1 0.523774 0.0082173 0.310926
479 1 0.945144 0.011107 0.221138
465 1 0.871465 0.342382 0.00502931
570 1 0.785894 0.425047 0.492256
439 1 0.772203 0.00432636 0.065243
544 1 0.540307 0.0891942 0.56328
647 1 0.948105 0.359905 0.902722
555 1 0.59583 0.172415 0.562423
578 1 0.607971 0.106641 0.656472
462 1 0.783088 0.430445 0.991466
548 1 0.689923 0.0912815 0.561855
582 1 0.782917 0.0937425 0.670682
543 1 0.61989 0.013324 0.566264
433 1 0.527187 0.017778 0.991944
552 1 0.85293 0.09568 0.552691
597 1 0.867267 0.167046 0.647833
586 1 0.940069 0.0917765 0.657676
450 1 0.790949 0.265542 0.989494
466 1 0.955696 0.430337 0.988844
556 1 0.532904 0.26178 0.567777
590 1 0.619786 0.253998 0.661485
589 1 0.533041 0.186781 0.655408
559 1 0.780456 0.166355 0.576793
593 1 0.697107 0.169915 0.667106
560 1 0.696719 0.242463 0.583869
594 1 0.797268 0.246247 0.653838
563 1 0.935523 0.154206 0.574
564 1 0.868101 0.269671 0.572937
598 1 0.947933 0.252781 0.653071
567 1 0.618302 0.338599 0.579757
602 1 0.638093 0.436341 0.649532
568 1 0.525736 0.428591 0.5738
601 1 0.517609 0.345764 0.66095
623 1 0.939565 0.0097274 0.900561
571 1 0.790606 0.335422 0.567654
605 1 0.713119 0.338368 0.658253
572 1 0.70791 0.428424 0.566309
606 1 0.78418 0.4432 0.648949
575 1 0.955461 0.345604 0.573725
609 1 0.855744 0.352554 0.653517
576 1 0.851113 0.430918 0.57335
610 1 0.942492 0.433767 0.641318
585 1 0.862239 0.0166124 0.645108
580 1 0.530082 0.0991717 0.728762
614 1 0.622514 0.0951648 0.824869
648 1 0.857974 0.438656 0.903473
584 1 0.70044 0.0928566 0.744441
618 1 0.77878 0.101012 0.831285
551 1 0.938164 0.0188328 0.566707
629 1 0.701173 0.17955 0.822752
588 1 0.870698 0.103146 0.747413
622 1 0.953653 0.0985391 0.839668
437 1 0.701239 0.0144536 0.97466
625 1 0.527309 0.19261 0.813632
591 1 0.614516 0.177112 0.756274
592 1 0.530319 0.270638 0.740536
626 1 0.622675 0.263879 0.830959
637 1 0.539694 0.359065 0.815627
596 1 0.702678 0.259948 0.734947
595 1 0.788458 0.171554 0.754793
630 1 0.774174 0.273084 0.819358
641 1 0.694689 0.342704 0.821966
599 1 0.949532 0.169388 0.757714
600 1 0.858372 0.252224 0.753925
634 1 0.946746 0.28148 0.815571
633 1 0.877359 0.171843 0.840832
603 1 0.613896 0.341849 0.727906
638 1 0.630403 0.443145 0.817278
604 1 0.545719 0.430193 0.718531
607 1 0.785149 0.336695 0.74135
608 1 0.706744 0.431568 0.743299
642 1 0.785819 0.418487 0.831751
643 1 0.771415 0.34348 0.917835
646 1 0.947172 0.45305 0.822988
645 1 0.875548 0.362411 0.808963
611 1 0.941507 0.357882 0.723629
612 1 0.864723 0.445614 0.715339
616 1 0.528877 0.107492 0.882431
583 1 0.784061 0.012548 0.738635
547 1 0.783846 0.0149701 0.569477
461 1 0.700548 0.352325 0.994433
615 1 0.609362 0.0264526 0.910606
620 1 0.696495 0.0909698 0.904338
438 1 0.774811 0.0862247 0.976667
434 1 0.59131 0.0991714 0.986991
579 1 0.612018 0.0242883 0.737921
442 1 0.939638 0.106218 0.998003
624 1 0.861405 0.0974061 0.91623
441 1 0.860776 0.00916363 0.98271
577 1 0.534337 0.0176072 0.65331
628 1 0.527249 0.258938 0.897254
627 1 0.619213 0.171356 0.898268
446 1 0.599482 0.263191 0.977551
449 1 0.697716 0.185467 0.979458
445 1 0.514954 0.188235 0.988083
631 1 0.783769 0.191415 0.901936
632 1 0.702815 0.260039 0.898567
454 1 0.956972 0.275633 0.990545
635 1 0.950802 0.197206 0.92142
636 1 0.873394 0.289336 0.891134
453 1 0.868279 0.181902 0.990906
639 1 0.609231 0.353151 0.899627
640 1 0.540024 0.441197 0.893953
457 1 0.521054 0.354724 0.975932
458 1 0.609031 0.436765 0.98457
613 1 0.527744 0.0215435 0.816708
644 1 0.68939 0.43863 0.9097
581 1 0.688332 0.0119681 0.648764
621 1 0.862409 0.0193702 0.818757
587 1 0.959591 0.0262126 0.754177
617 1 0.687426 0.00370419 0.839921
686 1 0.601568 0.595039 0.152002
652 1 0.531202 0.604733 0.0631815
651 1 0.598704 0.508021 0.0772914
685 1 0.525107 0.505216 0.162857
656 1 0.685148 0.614354 0.0798676
690 1 0.772983 0.601654 0.146368
778 1 0.959937 0.77602 0.488567
667 1 0.787542 0.698217 0.0590933
655 1 0.77305 0.523236 0.0777693
695 1 0.95736 0.516045 0.245937
660 1 0.869912 0.593383 0.0632853
694 1 0.942963 0.606152 0.155308
663 1 0.611252 0.694604 0.068389
698 1 0.605766 0.768032 0.150021
664 1 0.517673 0.759542 0.0571338
697 1 0.53042 0.676119 0.157694
675 1 0.605748 0.858739 0.0758871
701 1 0.686699 0.679054 0.16853
668 1 0.692427 0.770397 0.0740211
702 1 0.77096 0.76219 0.159892
725 1 0.701462 0.50757 0.327939
705 1 0.85504 0.672573 0.14227
671 1 0.945311 0.678976 0.0705602
672 1 0.868911 0.777597 0.0618396
706 1 0.935593 0.754864 0.142674
710 1 0.605322 0.938569 0.151158
709 1 0.528032 0.840372 0.151399
676 1 0.531987 0.943342 0.0686398
679 1 0.767689 0.851736 0.0756108
713 1 0.683278 0.845221 0.15559
680 1 0.688901 0.92078 0.0790328
714 1 0.786343 0.934868 0.150028
693 1 0.876023 0.517204 0.14953
756 1 0.856481 0.942869 0.418265
717 1 0.858671 0.848737 0.153029
683 1 0.950569 0.844053 0.0630208
684 1 0.860569 0.923084 0.0631997
718 1 0.946607 0.921637 0.142416
789 1 0.865104 0.849358 0.475737
722 1 0.620812 0.592231 0.30916
688 1 0.530333 0.593598 0.241493
762 1 0.788951 0.583039 0.478782
752 1 0.691774 0.926621 0.40445
692 1 0.703727 0.59189 0.231758
726 1 0.779678 0.59206 0.322548
751 1 0.782656 0.838564 0.400362
696 1 0.881837 0.595027 0.244279
730 1 0.961288 0.594924 0.321325
741 1 0.864156 0.68211 0.327312
687 1 0.616357 0.51491 0.228332
729 1 0.859729 0.519487 0.328366
733 1 0.534022 0.697799 0.317475
699 1 0.616117 0.69107 0.243907
734 1 0.625215 0.768602 0.320723
700 1 0.514964 0.762704 0.223117
703 1 0.794015 0.674712 0.230258
704 1 0.696891 0.776896 0.234494
738 1 0.788564 0.758485 0.309328
737 1 0.710122 0.678816 0.321565
707 1 0.943634 0.686727 0.242009
708 1 0.873426 0.770484 0.226181
742 1 0.952797 0.75876 0.325431
745 1 0.52789 0.834353 0.30454
712 1 0.506363 0.930277 0.233094
711 1 0.615085 0.855481 0.241542
746 1 0.609651 0.942126 0.313549
715 1 0.770511 0.850676 0.23695
749 1 0.700514 0.847317 0.328522
716 1 0.706733 0.941986 0.239066
750 1 0.782009 0.920347 0.332233
753 1 0.85873 0.845653 0.338619
719 1 0.944588 0.858298 0.225357
720 1 0.861838 0.925457 0.233783
754 1 0.951526 0.932415 0.310513
659 1 0.957661 0.514405 0.0710087
724 1 0.528315 0.599428 0.388698
758 1 0.612685 0.602364 0.479465
731 1 0.955762 0.501331 0.404254
689 1 0.689662 0.522502 0.139889
757 1 0.519974 0.524836 0.465821
728 1 0.693129 0.60045 0.402652
765 1 0.879608 0.512384 0.47371
739 1 0.791917 0.664517 0.408233
773 1 0.711866 0.682149 0.477605
727 1 0.78906 0.509115 0.401527
732 1 0.874266 0.593064 0.400188
790 1 0.950863 0.941189 0.473492
743 1 0.949286 0.685088 0.39959
766 1 0.947785 0.597505 0.475911
770 1 0.615256 0.764079 0.477106
769 1 0.54017 0.684412 0.481895
735 1 0.616391 0.676115 0.387488
736 1 0.531173 0.762834 0.411368
740 1 0.709816 0.76373 0.402933
691 1 0.791134 0.524288 0.225615
744 1 0.879901 0.764731 0.410238
761 1 0.700521 0.505564 0.470166
755 1 0.951041 0.856204 0.395527
777 1 0.864082 0.679327 0.477099
782 1 0.614308 0.932813 0.479775
781 1 0.531266 0.826181 0.493093
748 1 0.523335 0.93123 0.398842
747 1 0.597983 0.850342 0.395516
785 1 0.685916 0.841728 0.48609
786 1 0.770092 0.93356 0.48506
723 1 0.609278 0.517947 0.404747
774 1 0.779546 0.764063 0.494888
721 1 0.544578 0.50157 0.313682
794 1 0.623307 0.591264 0.64915
760 1 0.515613 0.607622 0.559289
803 1 0.958848 0.516847 0.728366
650 1 0.609362 0.603753 0.990003
764 1 0.703893 0.594001 0.556286
798 1 0.781732 0.608038 0.656723
809 1 0.702453 0.685572 0.654686
833 1 0.708438 0.518264 0.821835
768 1 0.887202 0.598506 0.56783
802 1 0.970647 0.593712 0.651491
767 1 0.961055 0.523853 0.562411
801 1 0.871943 0.53213 0.655803
805 1 0.536745 0.672924 0.653351
771 1 0.629675 0.673524 0.569072
806 1 0.615336 0.768489 0.652314
772 1 0.526018 0.753638 0.572861
775 1 0.779341 0.683226 0.564084
776 1 0.696452 0.759549 0.568623
810 1 0.78317 0.774349 0.652164
779 1 0.948686 0.690279 0.550269
780 1 0.861267 0.77137 0.573312
813 1 0.881619 0.665638 0.652221
814 1 0.939329 0.753995 0.664557
817 1 0.524423 0.822844 0.65845
783 1 0.61358 0.837809 0.57081
784 1 0.531895 0.919557 0.571037
818 1 0.599228 0.936023 0.654285
821 1 0.697995 0.841093 0.656046
787 1 0.776573 0.866287 0.568082
788 1 0.687356 0.928518 0.586336
822 1 0.784067 0.935127 0.655954
791 1 0.939234 0.852422 0.573411
792 1 0.865006 0.924693 0.583267
825 1 0.86054 0.851992 0.663565
826 1 0.954934 0.932607 0.654482
830 1 0.619252 0.605452 0.818966
796 1 0.537331 0.593446 0.730592
829 1 0.544829 0.520979 0.814914
793 1 0.554961 0.515715 0.648811
800 1 0.701968 0.603564 0.739576
834 1 0.773061 0.601434 0.817954
799 1 0.774352 0.517126 0.736242
804 1 0.864361 0.603206 0.737339
838 1 0.945395 0.595137 0.828979
849 1 0.854085 0.687031 0.813992
864 1 0.868192 0.930763 0.888253
807 1 0.617863 0.666955 0.721775
808 1 0.537492 0.765927 0.742775
841 1 0.535336 0.672995 0.817622
842 1 0.614267 0.769788 0.826274
845 1 0.685052 0.681084 0.81158
811 1 0.772741 0.687534 0.728065
812 1 0.67921 0.7697 0.747004
846 1 0.787945 0.781306 0.814809
823 1 0.774943 0.839464 0.739965
857 1 0.692138 0.85748 0.822361
815 1 0.962744 0.667294 0.741609
816 1 0.856312 0.761006 0.737698
850 1 0.941969 0.766236 0.801948
861 1 0.868834 0.841033 0.806486
827 1 0.961936 0.852809 0.73522
820 1 0.527391 0.934972 0.733566
819 1 0.597799 0.848601 0.730206
853 1 0.519948 0.852583 0.827452
854 1 0.60543 0.939347 0.825667
824 1 0.698929 0.936526 0.743263
858 1 0.774997 0.932496 0.812709
862 1 0.953489 0.926994 0.816047
828 1 0.875188 0.928943 0.733337
832 1 0.523847 0.591752 0.906405
649 1 0.528936 0.514317 0.985648
837 1 0.859925 0.512611 0.813985
831 1 0.615648 0.52865 0.892478
666 1 0.782116 0.769377 0.971091
654 1 0.771064 0.598339 0.989119
836 1 0.695814 0.604412 0.88855
661 1 0.515075 0.68222 0.990368
839 1 0.935997 0.517049 0.911543
840 1 0.853478 0.601208 0.900247
681 1 0.863691 0.844653 0.981109
669 1 0.862161 0.667508 0.982997
662 1 0.606841 0.781401 0.989617
844 1 0.510042 0.762646 0.901805
843 1 0.609199 0.690234 0.911959
797 1 0.705439 0.530215 0.652819
653 1 0.688937 0.522921 0.997749
847 1 0.786826 0.686739 0.913462
848 1 0.705827 0.768313 0.895396
658 1 0.945807 0.601924 0.982166
851 1 0.932158 0.672766 0.893416
852 1 0.860251 0.766681 0.893267
670 1 0.959111 0.757447 0.966948
673 1 0.524195 0.848826 0.977207
856 1 0.527256 0.936338 0.897309
855 1 0.605459 0.852055 0.895438
674 1 0.60481 0.922972 0.990286
835 1 0.773489 0.511637 0.924748
678 1 0.779859 0.924919 0.98196
859 1 0.784474 0.862471 0.894464
860 1 0.692766 0.929294 0.912971
759 1 0.618253 0.522658 0.555001
682 1 0.962612 0.940025 0.979519
863 1 0.943409 0.851016 0.907929
795 1 0.616964 0.522357 0.738361
763 1 0.774979 0.519978 0.567214
677 1 0.688072 0.850302 0.984396
657 1 0.862339 0.503443 0.995676
619 1 0.777747 0.997596 0.898361
665 1 0.686473 0.686156 0.99165
