ITEM: TIMESTEP
9250
ITEM: NUMBER OF ATOMS
864
ITEM: BOX BOUNDS pp pp pp
0.0000000000000000e+00 3.1559999999999999e+01
0.0000000000000000e+00 3.1559999999999999e+01
0.0000000000000000e+00 3.1559999999999999e+01
ITEM: ATOMS id type xs ys zs
4 1 -0.00327158 0.0909061 0.0765232
3 1 0.0779059 0.975766 0.0803155
8 1 0.155455 0.0683744 0.086497
7 1 0.254224 0.00328898 0.0882451
12 1 0.327551 0.0765513 0.0796873
149 1 0.159498 -0.00399285 0.173301
6 1 0.247016 0.0873439 0.00637364
16 1 0.501977 0.0866445 0.0706492
35 1 0.404286 0.165903 0.0722483
10 1 0.41271 0.0775359 0.993338
33 1 0.321443 0.160649 0.992372
158 1 0.582153 0.0830327 0.161546
14 1 0.584868 0.0877832 1.00384
20 1 0.663934 0.07971 0.0862238
15 1 0.597255 0.994441 0.0686784
24 1 0.833434 0.0699833 0.0687089
18 1 0.755456 0.082753 0.984296
41 1 0.669558 0.155936 0.002966
22 1 0.926369 0.080215 0.992351
23 1 0.919382 -0.005964 0.0788383
166 1 0.929166 0.0761112 0.158294
45 1 0.84367 0.161212 0.998652
27 1 0.0809103 0.159922 0.0759659
32 1 0.16168 0.239154 0.0658706
51 1 0.0886875 0.325103 0.0833824
26 1 0.0759432 0.245381 0.992006
31 1 0.245552 0.156405 0.0894001
29 1 0.164785 0.158326 1.00131
173 1 0.145412 0.146842 0.17201
174 1 0.239173 0.247591 0.172689
177 1 0.336956 0.162681 0.165442
30 1 0.251604 0.254005 0.991161
36 1 0.325687 0.250309 0.0885322
34 1 0.392188 0.247965 0.999175
59 1 0.406054 0.315922 0.077482
181 1 0.49917 0.144731 0.173213
39 1 0.582684 0.1622 0.076841
40 1 0.486169 0.238258 0.0542869
61 1 0.480385 0.331784 0.00141872
182 1 0.56793 0.238632 0.167162
205 1 0.485159 0.332132 0.156048
209 1 0.663313 0.338905 0.161235
37 1 0.489575 0.158822 0.976623
44 1 0.662373 0.250541 0.0891034
43 1 0.750516 0.153532 0.0853274
67 1 0.756843 0.3356 0.0762381
47 1 0.910897 0.161228 0.0803457
28 1 0.0163157 0.242703 0.0966493
25 1 -0.0114227 0.176555 1.00667
48 1 0.83199 0.256853 0.0819126
49 1 1.00817 0.322665 1.00035
53 1 0.173989 0.338861 0.989716
50 1 0.0879063 0.399348 0.00325033
194 1 0.0860881 0.422187 0.16257
56 1 0.176881 0.435512 0.0829675
55 1 0.243773 0.341436 0.0764592
197 1 0.179264 0.327774 0.161526
60 1 0.339578 0.418744 0.0959429
198 1 0.252953 0.428137 0.173946
64 1 0.485449 0.415739 0.0677095
83 1 0.428102 0.50833 0.0990274
202 1 0.4115 0.413573 0.164879
63 1 0.573941 0.321671 0.0896768
206 1 0.577784 0.417271 0.154386
87 1 0.576992 0.501865 0.0950346
89 1 0.66135 0.488322 1.00159
68 1 0.66948 0.416183 0.077971
72 1 0.845792 0.414027 0.0824327
52 1 0.978847 0.418695 0.0926344
71 1 0.92127 0.330291 0.0934105
70 1 0.913527 0.407592 -0.0118406
95 1 0.918721 0.50366 0.0935933
75 1 0.0853186 0.4873 0.0770631
76 1 0.988985 0.584534 0.100666
73 1 0.993209 0.496722 0.0165383
101 1 0.166281 0.66196 0.0101164
80 1 0.173066 0.58324 0.0927402
79 1 0.258564 0.505762 0.0839364
103 1 0.2504 0.672634 0.0802112
222 1 0.24804 0.587328 0.171965
84 1 0.325409 0.587153 0.0782014
88 1 0.500139 0.591614 0.0928556
107 1 0.411243 0.666006 0.0823253
226 1 0.419427 0.596142 0.181449
111 1 0.591045 0.681149 0.0763934
91 1 0.756638 0.516677 0.0651895
92 1 0.666306 0.590815 0.0928511
115 1 0.743366 0.673143 0.0874822
234 1 0.756038 0.577027 0.17141
96 1 0.84187 0.590668 0.0756413
238 1 0.906249 0.596307 0.168554
94 1 0.927822 0.575922 0.0136627
99 1 0.0889964 0.667263 0.0910075
97 1 -0.00326264 0.671468 -0.00573661
98 1 0.0827684 0.744247 0.00605321
104 1 0.155917 0.753831 0.0957147
127 1 0.240493 0.838143 0.0917128
269 1 0.163522 0.822012 0.171876
273 1 0.328385 0.840239 0.16196
125 1 0.160182 0.841773 0.0151261
108 1 0.343748 0.736595 0.0805046
112 1 0.490358 0.74136 0.096882
133 1 0.50826 0.841579 0.9868
131 1 0.418708 0.83141 0.0901912
110 1 0.573529 0.755725 0.996078
254 1 0.583491 0.740399 0.174752
116 1 0.662717 0.76668 0.0776725
277 1 0.509584 0.836194 0.173534
281 1 0.652486 0.832144 0.169596
114 1 0.744678 0.740561 0.995592
139 1 0.75691 0.831757 0.0637662
119 1 0.917057 0.671994 0.0835406
100 1 0.0160271 0.750243 0.0887372
121 1 1.00101 0.836912 0.99735
120 1 0.85383 0.761271 0.0888092
143 1 0.938312 0.824833 0.0949304
118 1 0.930062 0.752212 1.00918
123 1 0.0911355 0.836979 0.0994341
124 1 0.983714 0.919746 0.0811397
122 1 0.0824196 0.909464 0.987759
266 1 0.0963787 0.909649 0.182273
128 1 0.174887 0.9206 0.0989192
270 1 0.251084 0.928991 0.170709
126 1 0.238597 0.911954 1.01698
9 1 0.335517 0.993442 -0.00977281
11 1 0.410231 0.995156 0.0942005
132 1 0.340838 0.921995 0.0919172
136 1 0.497576 0.914081 0.08123
274 1 0.419071 0.918962 0.174326
130 1 0.408815 0.904864 0.980339
135 1 0.576732 0.826247 0.0886666
140 1 0.674558 0.919525 0.0866035
134 1 0.599046 0.912724 0.00149512
19 1 0.754252 1.0015 0.0927201
138 1 0.780512 0.922355 0.000314133
144 1 0.850138 0.899629 0.094892
265 1 0.00511366 0.843531 0.178103
1 1 -0.000570938 1.00314 0.00120097
142 1 0.912431 0.921016 0.989547
145 1 0.994345 0.983829 0.177382
146 1 0.0741001 0.0653146 0.150868
147 1 0.0809476 0.984534 0.262902
290 1 0.0747421 0.0729727 0.334522
150 1 0.236155 0.0798265 0.178044
152 1 0.152164 0.0654097 0.258772
294 1 0.253737 0.0847585 0.329962
297 1 0.33446 -0.00246648 0.328345
154 1 0.41562 0.084216 0.158463
156 1 0.333316 0.0833871 0.24974
298 1 0.427685 0.0896045 0.321404
160 1 0.502567 0.0673186 0.242008
159 1 0.585213 0.993161 0.242261
164 1 0.671807 0.0841717 0.249525
305 1 0.67657 0.000782731 0.326465
162 1 0.758488 0.0911717 0.171885
306 1 0.750614 0.0988414 0.344164
148 1 0.98629 0.0644683 0.249584
168 1 0.81806 0.0898304 0.25805
170 1 0.100117 0.239477 0.165342
313 1 1.00023 0.154724 0.331816
171 1 0.0706097 0.134014 0.248714
172 1 0.0114583 0.251296 0.240558
175 1 0.24365 0.160057 0.246315
176 1 0.172243 0.246696 0.252501
180 1 0.330536 0.240087 0.253203
321 1 0.32539 0.163872 0.349259
318 1 0.259344 0.242883 0.322201
179 1 0.424318 0.169414 0.257691
178 1 0.417762 0.248048 0.152935
322 1 0.424249 0.243799 0.32967
183 1 0.581025 0.155368 0.247416
184 1 0.492933 0.252354 0.244229
207 1 0.58202 0.328473 0.231229
185 1 0.668226 0.155207 0.160866
188 1 0.663113 0.246385 0.23334
329 1 0.665232 0.173158 0.326079
326 1 0.587838 0.250926 0.30821
186 1 0.739262 0.244671 0.154255
187 1 0.750641 0.183059 0.239006
169 1 1.00644 0.149586 0.171491
193 1 0.00563159 0.337055 0.172549
189 1 0.846447 0.153076 0.163894
192 1 0.832065 0.242934 0.238708
190 1 0.923288 0.245045 0.160051
191 1 0.911324 0.153784 0.249521
215 1 0.928382 0.32183 0.243727
213 1 0.834423 0.319213 0.161842
333 1 0.812006 0.18664 0.332452
195 1 0.0977061 0.332621 0.229398
196 1 0.00215838 0.424306 0.248108
341 1 0.169797 0.326505 0.330755
217 1 -0.00515317 0.495685 0.162885
219 1 0.0880993 0.508478 0.247474
361 1 0.996506 0.500806 0.323652
345 1 0.33393 0.325862 0.326012
200 1 0.183249 0.420233 0.247682
199 1 0.243442 0.321834 0.253946
342 1 0.253224 0.414565 0.332248
225 1 0.340328 0.510627 0.16169
203 1 0.419167 0.333484 0.235514
204 1 0.340155 0.429079 0.253393
201 1 0.306994 0.330537 0.176377
227 1 0.413923 0.50086 0.266327
229 1 0.49789 0.511493 0.189906
208 1 0.506139 0.419896 0.252674
231 1 0.580924 0.505165 0.254532
350 1 0.578629 0.412492 0.335111
377 1 0.659449 0.499814 0.33737
210 1 0.75632 0.400817 0.149159
211 1 0.745439 0.330727 0.237504
212 1 0.648529 0.419253 0.24274
235 1 0.750477 0.497117 0.240344
237 1 0.82847 0.500396 0.164408
214 1 0.91279 0.417178 0.172992
216 1 0.826174 0.404172 0.249992
239 1 0.895127 0.489223 0.262403
221 1 0.164911 0.494959 0.175946
218 1 0.0788431 0.574009 0.161157
245 1 0.159442 0.66417 0.174269
224 1 0.16077 0.583912 0.259517
243 1 0.0761514 0.665763 0.24921
223 1 0.2433 0.515701 0.249132
366 1 0.239739 0.592309 0.350594
247 1 0.240547 0.657185 0.256822
228 1 0.340558 0.5911 0.256406
253 1 0.496072 0.673663 0.182518
249 1 0.334836 0.664184 0.170703
251 1 0.417582 0.661257 0.263683
369 1 0.327097 0.501242 0.336372
232 1 0.502862 0.583515 0.269013
230 1 0.578223 0.58825 0.175411
374 1 0.593146 0.578823 0.343048
236 1 0.660414 0.58909 0.245066
397 1 0.505158 0.669968 0.343913
233 1 0.676965 0.497287 0.161567
378 1 0.751837 0.575947 0.341031
261 1 0.833327 0.665056 0.162703
220 1 0.989247 0.573148 0.243684
240 1 0.829214 0.578404 0.253603
263 1 0.923849 0.681574 0.243397
242 1 0.0839244 0.738433 0.174394
244 1 1.0093 0.752851 0.238226
386 1 0.0767801 0.74599 0.319563
246 1 0.247384 0.740174 0.173713
389 1 0.154977 0.671344 0.337445
248 1 0.16387 0.754008 0.25317
271 1 0.241675 0.834742 0.243915
390 1 0.250974 0.729992 0.340319
250 1 0.412179 0.736885 0.1698
252 1 0.324881 0.749665 0.246311
275 1 0.399939 0.829984 0.242729
257 1 0.670289 0.675346 0.162528
255 1 0.573349 0.658835 0.256504
256 1 0.491641 0.756837 0.257356
279 1 0.580905 0.836556 0.249838
421 1 0.50179 0.839655 0.335457
259 1 0.739732 0.661297 0.247599
260 1 0.661833 0.746875 0.251558
258 1 0.743605 0.769095 0.16621
283 1 0.759585 0.842247 0.247862
241 1 1.00215 0.673196 0.166444
264 1 0.822331 0.739179 0.244915
262 1 0.922594 0.749033 0.168341
385 1 1.00496 0.669712 0.331361
429 1 0.830491 0.822006 0.333622
406 1 0.928992 0.746006 0.327018
289 1 0.990866 1.00679 0.349565
293 1 0.179561 -0.00686624 0.339644
267 1 0.0768452 0.837101 0.259378
268 1 0.991791 0.914697 0.274639
413 1 0.159031 0.822719 0.340155
409 1 -0.00140966 0.832148 0.331189
272 1 0.177402 0.921634 0.255769
151 1 0.247947 0.0033045 0.249032
153 1 0.327534 -0.00379832 0.169474
276 1 0.322462 0.916627 0.259003
414 1 0.235891 0.900239 0.349686
157 1 0.50108 1.00273 0.149979
155 1 0.40804 1.0105 0.242681
417 1 0.308795 0.825641 0.319022
418 1 0.405467 0.906401 0.325361
278 1 0.585052 0.916269 0.157491
280 1 0.497378 0.9168 0.258387
161 1 0.675369 0.991585 0.166034
163 1 0.758501 0.993648 0.257269
284 1 0.66918 0.915418 0.247815
282 1 0.750789 0.906579 0.162721
285 1 0.845257 0.829272 0.176011
167 1 0.908073 -0.00265216 0.257198
309 1 0.835537 -0.00110944 0.346595
287 1 0.923358 0.821826 0.25008
165 1 0.839379 0.0115018 0.171843
288 1 0.834835 0.916075 0.261809
286 1 0.919828 0.913189 0.178918
430 1 0.913425 0.905614 0.346829
296 1 0.171874 0.0886722 0.398365
291 1 0.0967472 0.0120362 0.42158
437 1 0.179234 0.0248731 0.491919
300 1 0.335982 0.0701966 0.405096
438 1 0.273574 0.089987 0.498672
304 1 0.503739 0.0774565 0.418749
301 1 0.490467 0.00607645 0.324964
445 1 0.509192 0.991777 0.486939
302 1 0.58523 0.0769419 0.334458
327 1 0.587955 0.167955 0.412745
308 1 0.66382 0.0842573 0.412417
303 1 0.58671 0.00247258 0.411401
446 1 0.586848 0.080637 0.503138
331 1 0.732825 0.171424 0.417967
307 1 0.750471 1.00363 0.414683
450 1 0.744523 0.0821567 0.491561
310 1 0.902985 0.0904289 0.338465
292 1 0.986809 0.098679 0.435086
312 1 0.831848 0.0920526 0.424712
311 1 0.910765 0.0129063 0.428482
454 1 0.910422 0.0844108 0.526298
317 1 0.159682 0.156159 0.31955
314 1 0.0883437 0.223433 0.321372
315 1 0.0824285 0.164908 0.424711
320 1 0.174394 0.227424 0.417347
319 1 0.252666 0.164117 0.416183
324 1 0.330835 0.255366 0.410411
349 1 0.499715 0.325104 0.333702
323 1 0.437429 0.169198 0.418898
347 1 0.419337 0.326914 0.414819
328 1 0.522054 0.251516 0.41478
325 1 0.510572 0.157271 0.33583
332 1 0.658998 0.26546 0.401841
351 1 0.581059 0.333474 0.408814
353 1 0.656597 0.335322 0.324418
330 1 0.742517 0.263947 0.323757
355 1 0.767114 0.355841 0.401434
474 1 0.741564 0.242465 0.499731
334 1 0.927967 0.238972 0.329844
335 1 0.909577 0.174528 0.418491
316 1 0.00601132 0.255879 0.402384
336 1 0.819588 0.242058 0.416277
339 1 0.0976286 0.323109 0.414312
338 1 0.0892936 0.409034 0.332015
340 1 0.00940986 0.413517 0.405781
365 1 0.164647 0.513897 0.339336
344 1 0.169836 0.429792 0.417877
343 1 0.237592 0.329991 0.425441
348 1 0.320497 0.407418 0.419169
346 1 0.407542 0.407295 0.340135
352 1 0.501819 0.416512 0.426028
371 1 0.403741 0.511633 0.426767
356 1 0.661051 0.411984 0.405648
373 1 0.505046 0.502048 0.356636
375 1 0.586506 0.499452 0.422374
357 1 0.850528 0.327862 0.324452
354 1 0.737652 0.418319 0.317855
360 1 0.8497 0.422502 0.419867
498 1 0.739572 0.410858 0.493928
337 1 0.00926813 0.338053 0.312796
481 1 1.00901 0.329467 0.484264
359 1 0.919093 0.321356 0.406827
381 1 0.821608 0.495996 0.338943
358 1 0.927426 0.404508 0.329572
383 1 0.92197 0.509909 0.419105
525 1 0.814355 0.495255 0.493775
502 1 0.922781 0.416038 0.512361
362 1 0.072655 0.581327 0.334974
363 1 0.0776695 0.498761 0.407789
506 1 0.0842316 0.558041 0.49842
368 1 0.170676 0.579905 0.438861
364 1 0.997184 0.596668 0.426678
367 1 0.25483 0.501775 0.434938
510 1 0.240575 0.591431 0.51566
513 1 0.341246 0.487368 0.511209
370 1 0.418098 0.577911 0.343699
372 1 0.324376 0.599222 0.427997
514 1 0.431995 0.585755 0.501927
521 1 0.673969 0.505229 0.495325
376 1 0.504331 0.587731 0.424043
517 1 0.512937 0.501569 0.498742
401 1 0.671101 0.659497 0.334744
380 1 0.660872 0.57753 0.419647
399 1 0.585034 0.673086 0.415564
379 1 0.744469 0.497667 0.415365
522 1 0.742329 0.587725 0.502454
384 1 0.83141 0.579862 0.409477
382 1 0.903798 0.574301 0.328257
526 1 0.9116 0.592201 0.488005
407 1 0.919457 0.666597 0.412378
505 1 1.0019 0.480388 0.483055
533 1 0.157277 0.659402 0.50716
387 1 0.0848899 0.658632 0.416818
392 1 0.164692 0.748106 0.423815
411 1 0.0904485 0.831378 0.420483
530 1 0.0953429 0.744426 0.50583
391 1 0.232423 0.671548 0.436973
534 1 0.249437 0.752229 0.511694
394 1 0.411669 0.740496 0.331088
393 1 0.335849 0.669241 0.338562
541 1 0.500766 0.671515 0.496349
395 1 0.41155 0.663902 0.424757
396 1 0.330731 0.740003 0.419967
400 1 0.496613 0.757412 0.410396
565 1 0.516128 0.845346 0.499476
398 1 0.577895 0.759008 0.325764
425 1 0.657136 0.849859 0.345561
423 1 0.578606 0.831309 0.411135
404 1 0.664054 0.740964 0.407924
403 1 0.76139 0.661834 0.411306
402 1 0.73772 0.751312 0.335398
408 1 0.841498 0.747831 0.417126
549 1 0.84087 0.668945 0.513286
427 1 0.750397 0.827937 0.410733
573 1 0.834268 0.822646 0.501165
405 1 0.830501 0.672674 0.324219
388 1 0.0070208 0.750601 0.418873
431 1 0.914254 0.828133 0.415474
550 1 0.913631 0.738844 0.499503
553 1 0.00811906 0.828146 0.501346
410 1 0.0856724 0.910051 0.343704
554 1 0.0950057 0.927254 0.495538
416 1 0.179499 0.929928 0.424648
295 1 0.255331 0.00600186 0.425236
561 1 0.340231 0.813731 0.498002
415 1 0.25488 0.822168 0.423119
420 1 0.327536 0.918435 0.411428
441 1 0.34647 0.00406301 0.502362
299 1 0.419895 1.00749 0.395458
419 1 0.397105 0.82483 0.40311
562 1 0.427839 0.912607 0.49784
424 1 0.488163 0.921588 0.403674
422 1 0.572665 0.931615 0.33321
453 1 0.831014 0.996742 0.509872
428 1 0.657172 0.92712 0.418117
426 1 0.745114 0.907281 0.344151
412 1 0.00351231 0.907288 0.425136
432 1 0.833911 0.910507 0.421468
574 1 0.918334 0.921158 0.492578
433 1 0.000755291 1.00646 0.499565
434 1 0.0840918 0.0861019 0.512956
435 1 0.0820545 0.997631 0.575153
578 1 0.0910505 0.0807573 0.656001
440 1 0.185083 0.0910369 0.591995
463 1 0.26201 0.167104 0.587785
444 1 0.350376 0.0876373 0.585155
439 1 0.264175 0.00499327 0.569031
442 1 0.426334 0.0883911 0.502548
467 1 0.432597 0.174931 0.569
448 1 0.510323 0.083603 0.58142
471 1 0.585237 0.173448 0.575945
447 1 0.603458 -0.00830813 0.5711
452 1 0.668213 0.0941896 0.581991
590 1 0.592824 0.0730789 0.651793
594 1 0.749065 0.0986732 0.684898
475 1 0.750282 0.176784 0.59287
451 1 0.742846 0.00672072 0.575478
477 1 0.833443 0.168633 0.502817
436 1 0.0108146 0.0720341 0.58251
456 1 0.809801 0.0912399 0.581892
455 1 0.929402 0.994669 0.578397
459 1 0.100469 0.165006 0.588954
458 1 0.0887984 0.246646 0.512717
460 1 0.99683 0.255016 0.589409
605 1 0.180654 0.162198 0.676155
465 1 0.347764 0.166871 0.489115
461 1 0.175897 0.167343 0.508127
462 1 0.249712 0.240726 0.509422
464 1 0.173309 0.252079 0.59666
609 1 0.341828 0.18036 0.670075
606 1 0.257376 0.248701 0.660519
466 1 0.423176 0.254175 0.48351
468 1 0.333847 0.249277 0.574089
489 1 0.33562 0.329692 0.509193
470 1 0.592728 0.256256 0.491431
493 1 0.502893 0.32997 0.497391
469 1 0.508152 0.164631 0.497947
472 1 0.490504 0.267116 0.584795
495 1 0.570023 0.34526 0.578703
473 1 0.66469 0.164488 0.501043
476 1 0.657806 0.255846 0.575526
501 1 0.82495 0.326415 0.49085
480 1 0.83751 0.268146 0.585537
621 1 0.834516 0.17412 0.676709
457 1 1.02172 0.168097 0.515568
478 1 0.924786 0.251308 0.502213
479 1 0.901838 0.178896 0.600181
503 1 0.922443 0.33828 0.578261
482 1 0.0893747 0.426169 0.50707
483 1 0.0752894 0.332335 0.568831
488 1 0.176212 0.408834 0.597904
484 1 1.00398 0.434658 0.593981
649 1 -0.00152307 0.495783 0.671523
629 1 0.155064 0.336719 0.673516
485 1 0.169507 0.332546 0.506958
486 1 0.236907 0.412928 0.50596
487 1 0.253988 0.332788 0.589063
511 1 0.269187 0.51592 0.587701
490 1 0.421221 0.42082 0.48847
492 1 0.315241 0.423344 0.607423
657 1 0.329896 0.517019 0.673657
633 1 0.330568 0.332281 0.659157
491 1 0.423261 0.343103 0.582143
515 1 0.416768 0.500401 0.591014
494 1 0.574436 0.422442 0.50006
496 1 0.495484 0.42927 0.576582
519 1 0.580225 0.510012 0.582395
638 1 0.568814 0.416049 0.663595
500 1 0.655027 0.423316 0.578339
637 1 0.489467 0.340404 0.670242
497 1 0.674961 0.336105 0.50924
499 1 0.754161 0.341151 0.589614
523 1 0.7459 0.515021 0.58373
642 1 0.727742 0.416733 0.669718
645 1 0.82679 0.35533 0.674797
504 1 0.835112 0.416152 0.579183
646 1 0.913631 0.432637 0.671356
669 1 0.824175 0.474779 0.672608
507 1 0.111718 0.486491 0.602143
508 1 0.0199576 0.581591 0.590467
650 1 0.0856654 0.578312 0.676245
529 1 0.00252984 0.667679 0.500402
531 1 0.0776544 0.669021 0.589504
673 1 0.996165 0.651938 0.670224
509 1 0.182043 0.504519 0.524151
512 1 0.159697 0.590179 0.586689
654 1 0.268073 0.598214 0.65966
537 1 0.327529 0.67054 0.507977
516 1 0.34118 0.588779 0.578499
520 1 0.497492 0.583357 0.584806
518 1 0.599636 0.586949 0.515001
661 1 0.500204 0.511906 0.67701
662 1 0.590324 0.58945 0.651175
524 1 0.676642 0.595566 0.589038
666 1 0.743827 0.578975 0.678705
528 1 0.83478 0.595386 0.590656
527 1 0.923458 0.513191 0.583488
670 1 0.91087 0.583431 0.671577
551 1 0.930392 0.642354 0.583876
532 1 0.989441 0.76147 0.581583
674 1 0.0829336 0.74609 0.676463
536 1 0.155464 0.743434 0.602224
555 1 0.081488 0.832656 0.575192
701 1 0.162459 0.844418 0.655198
535 1 0.247249 0.681578 0.595575
678 1 0.245848 0.748543 0.66327
540 1 0.337088 0.756849 0.591295
681 1 0.347975 0.676995 0.661721
538 1 0.430104 0.766434 0.512788
539 1 0.418959 0.662517 0.57684
544 1 0.503818 0.744748 0.587102
545 1 0.677484 0.675387 0.48525
542 1 0.584976 0.751309 0.486325
543 1 0.589204 0.675624 0.577901
548 1 0.68224 0.746203 0.588048
547 1 0.754554 0.669 0.587415
546 1 0.757123 0.741873 0.493354
552 1 0.86212 0.739483 0.588113
689 1 0.68392 0.674165 0.677317
694 1 0.914096 0.746807 0.684122
693 1 0.834699 0.649955 0.672602
557 1 0.159865 0.841651 0.494391
560 1 0.174221 0.921637 0.575173
558 1 0.258452 0.919512 0.500955
559 1 0.249878 0.83742 0.574584
705 1 0.339461 0.823601 0.678407
564 1 0.331441 0.912466 0.581629
563 1 0.430349 0.84864 0.587826
443 1 0.417739 1.00075 0.58127
568 1 0.519704 0.922747 0.583014
449 1 0.670475 0.00700644 0.485826
569 1 0.666461 0.82593 0.482226
566 1 0.587198 0.913781 0.495164
567 1 0.594813 0.810945 0.574789
572 1 0.679514 0.9111 0.574168
710 1 0.601556 0.903714 0.670862
570 1 0.751069 0.910406 0.488075
571 1 0.764025 0.834443 0.577786
593 1 0.675649 -0.00255327 0.684473
713 1 0.678087 0.82407 0.678171
714 1 0.75308 0.907462 0.656944
556 1 0.00242904 0.92079 0.578634
576 1 0.836143 0.918114 0.585821
575 1 0.915637 0.837801 0.581771
597 1 0.822109 1.01117 0.651311
717 1 0.846744 0.841914 0.667598
577 1 0.00303512 0.987776 0.662633
580 1 0.0044348 0.0869512 0.741496
579 1 0.103437 1.00124 0.746186
581 1 0.180094 0.0058476 0.656896
603 1 0.0827974 0.179098 0.742848
584 1 0.16621 0.0905888 0.749492
582 1 0.251894 0.0813396 0.67323
588 1 0.332798 0.0783681 0.752985
583 1 0.259326 0.977343 0.752371
585 1 0.321071 -0.00537157 0.661189
586 1 0.419424 0.0871719 0.669619
613 1 0.50091 0.168961 0.657651
592 1 0.521356 0.0960268 0.741527
611 1 0.420872 0.164583 0.759198
589 1 0.509014 1.01334 0.660722
733 1 0.529186 0.997026 0.82131
615 1 0.578537 0.18658 0.740225
596 1 0.649446 0.0972893 0.74797
738 1 0.758039 0.0989783 0.819533
600 1 0.844492 0.0907111 0.741349
619 1 0.741128 0.194546 0.74466
598 1 0.924353 0.0889542 0.657151
623 1 0.933323 0.194315 0.739611
602 1 0.0698746 0.262203 0.666708
604 1 1.00047 0.275652 0.764286
608 1 0.181628 0.252266 0.737894
607 1 0.261258 0.165249 0.74601
749 1 0.166788 0.171379 0.833564
612 1 0.337832 0.246439 0.763081
631 1 0.240165 0.348591 0.74634
610 1 0.417043 0.255422 0.669181
754 1 0.419973 0.240423 0.837219
777 1 0.322414 0.337416 0.825691
635 1 0.42185 0.330881 0.75916
616 1 0.496966 0.258765 0.75338
614 1 0.566281 0.259436 0.661696
639 1 0.57926 0.328267 0.74164
641 1 0.664141 0.329084 0.642505
618 1 0.749371 0.256786 0.667764
617 1 0.662902 0.184745 0.667279
620 1 0.659075 0.264449 0.762193
785 1 0.647635 0.341986 0.834709
762 1 0.740224 0.258595 0.835524
601 1 0.00614145 0.166597 0.648262
622 1 0.918441 0.268852 0.661825
625 1 0.997634 0.347354 0.670217
624 1 0.829387 0.262083 0.741868
626 1 0.0901822 0.422643 0.685981
769 1 0.0177849 0.333484 0.84725
627 1 0.0881032 0.346926 0.757702
770 1 0.0883521 0.425923 0.850423
628 1 0.999455 0.414706 0.762351
651 1 0.0740285 0.499638 0.753572
630 1 0.251604 0.430283 0.687787
632 1 0.166039 0.431005 0.760196
655 1 0.244177 0.517081 0.756962
773 1 0.169101 0.346412 0.826606
774 1 0.257389 0.434546 0.83047
634 1 0.414092 0.414765 0.663898
636 1 0.332444 0.420452 0.75852
659 1 0.423657 0.504612 0.756207
778 1 0.41364 0.405191 0.838593
640 1 0.495529 0.41468 0.758609
644 1 0.65053 0.424145 0.740728
805 1 0.499593 0.497814 0.839667
665 1 0.658034 0.500108 0.663303
643 1 0.754206 0.352928 0.762638
786 1 0.731506 0.399994 0.851242
809 1 0.662572 0.495347 0.845117
648 1 0.834531 0.423489 0.76339
647 1 0.907007 0.339158 0.763564
790 1 0.914407 0.418584 0.841982
794 1 0.0798855 0.590314 0.847899
652 1 1.00277 0.579374 0.755037
675 1 0.0703612 0.670538 0.745964
793 1 0.00970731 0.509222 0.840893
653 1 0.182469 0.527591 0.673478
656 1 0.149016 0.577926 0.758269
660 1 0.327436 0.60677 0.745859
798 1 0.251913 0.598781 0.825986
658 1 0.406665 0.585003 0.664493
802 1 0.42596 0.590145 0.833302
801 1 0.340993 0.533698 0.828358
829 1 0.510803 0.667427 0.826156
664 1 0.502625 0.584958 0.756968
663 1 0.582022 0.501384 0.759599
687 1 0.59046 0.646325 0.733889
667 1 0.744001 0.482672 0.767416
668 1 0.672066 0.558718 0.750041
671 1 0.929858 0.500133 0.757425
672 1 0.826383 0.563929 0.756016
814 1 0.922617 0.580924 0.834324
695 1 0.904738 0.657444 0.75389
680 1 0.167138 0.752363 0.748601
676 1 0.00206663 0.769207 0.751897
818 1 0.0768328 0.748904 0.826916
677 1 0.155054 0.662766 0.69001
679 1 0.242408 0.668529 0.7523
703 1 0.249016 0.831208 0.747827
822 1 0.229948 0.742439 0.853853
684 1 0.337352 0.750141 0.754303
825 1 0.333039 0.684189 0.842401
682 1 0.427175 0.754626 0.669373
685 1 0.500615 0.662061 0.675293
683 1 0.418586 0.671993 0.755485
707 1 0.434428 0.827645 0.75385
688 1 0.537729 0.745983 0.749588
686 1 0.591798 0.739252 0.656078
692 1 0.685333 0.749188 0.7665
833 1 0.670772 0.661228 0.828881
830 1 0.601979 0.760121 0.837938
691 1 0.760573 0.657539 0.759388
690 1 0.763419 0.746683 0.653261
834 1 0.781592 0.743786 0.832063
696 1 0.839368 0.759108 0.75236
837 1 0.831987 0.649857 0.841063
838 1 0.91329 0.744993 0.831889
697 1 0.00614902 0.838926 0.649496
698 1 0.0871807 0.917762 0.655646
699 1 0.0946461 0.841531 0.744115
700 1 0.010934 0.921352 0.744389
704 1 0.175358 0.916087 0.752392
702 1 0.248883 0.912533 0.655803
708 1 0.348993 0.903676 0.758068
709 1 0.50676 0.834798 0.658648
706 1 0.428767 0.90949 0.684293
587 1 0.419789 1.00212 0.753678
712 1 0.515173 0.901938 0.749153
850 1 0.423553 0.911725 0.841698
711 1 0.60304 0.833445 0.749296
591 1 0.584626 0.986234 0.736932
853 1 0.514304 0.834366 0.831325
857 1 0.68442 0.835783 0.832146
854 1 0.602531 0.927998 0.833885
595 1 0.748112 -0.00739907 0.751429
716 1 0.675491 0.910981 0.74676
715 1 0.758723 0.840213 0.745765
858 1 0.75626 0.913423 0.822078
718 1 0.921119 0.907403 0.671026
599 1 0.903729 1.00318 0.72216
861 1 0.840879 0.841183 0.833422
719 1 0.907371 0.839234 0.752084
720 1 0.836592 0.925895 0.746592
2 1 0.0888441 0.0817844 0.989168
722 1 0.0912628 0.0777452 0.832208
5 1 0.17249 1.00063 0.993667
726 1 0.258995 0.0839593 0.831506
728 1 0.171375 0.0745187 0.906466
732 1 0.331766 0.0778847 0.910453
727 1 0.245292 1.00073 0.904677
725 1 0.180014 1.01309 0.820355
753 1 0.332105 0.163648 0.823616
730 1 0.415379 0.082409 0.834617
736 1 0.50958 0.0761276 0.912684
757 1 0.50347 0.169806 0.827099
17 1 0.685536 0.995457 1.00158
13 1 0.506075 0.985005 0.000685076
737 1 0.676842 0.00755836 0.825957
734 1 0.575302 0.0841216 0.834253
759 1 0.579067 0.165037 0.90259
735 1 0.595436 0.99416 0.928462
761 1 0.673066 0.17771 0.834017
740 1 0.665262 0.0762959 0.915493
763 1 0.739275 0.165718 0.917519
765 1 0.831391 0.173884 0.814822
742 1 0.921359 0.0973699 0.825932
724 1 0.0095201 0.0941979 0.915616
721 1 0.00110739 1.01621 0.816991
744 1 0.839874 0.0955517 0.9026
745 1 0.0185955 0.174991 0.825961
746 1 0.1042 0.257714 0.844629
747 1 0.0919839 0.166925 0.908112
771 1 0.101694 0.336087 0.911828
748 1 0.00624304 0.24409 0.916533
57 1 0.329093 0.329121 0.98113
750 1 0.240015 0.253094 0.818917
751 1 0.23686 0.15767 0.915691
752 1 0.180685 0.248424 0.914395
775 1 0.240782 0.348341 0.900899
755 1 0.414274 0.157149 0.906067
756 1 0.333602 0.248602 0.9016
781 1 0.513574 0.344368 0.842535
760 1 0.504797 0.24513 0.918843
38 1 0.595296 0.238653 1.00271
758 1 0.586552 0.256496 0.839838
764 1 0.662674 0.255573 0.914005
42 1 0.751182 0.24207 -0.00153954
768 1 0.828196 0.253461 0.916539
787 1 0.745291 0.325451 0.930334
69 1 0.833351 0.333507 0.996816
46 1 0.914463 0.255918 -0.0134406
766 1 0.916161 0.255015 0.830975
767 1 0.924274 0.179355 0.904492
791 1 0.932071 0.331546 0.917522
776 1 0.170585 0.428776 0.932286
772 1 0.00709885 0.41781 0.922269
54 1 0.25945 0.435411 0.98953
799 1 0.249527 0.520921 0.916104
81 1 0.339391 0.503846 0.97444
58 1 0.399904 0.41851 0.996607
779 1 0.418535 0.328129 0.912608
780 1 0.336644 0.416818 0.905822
85 1 0.499826 0.509884 0.00347254
783 1 0.566882 0.324123 0.93513
784 1 0.480379 0.419847 0.930661
62 1 0.575946 0.423162 0.0140679
782 1 0.577371 0.417427 0.824364
788 1 0.649273 0.408433 0.926063
807 1 0.589878 0.492022 0.91801
66 1 0.758537 0.411835 -0.0136861
65 1 0.656179 0.327573 0.00573276
93 1 0.842971 0.500003 0.00445263
811 1 0.738345 0.491674 0.915183
789 1 0.824882 0.328553 0.847834
792 1 0.83517 0.417417 0.913803
77 1 0.167649 0.51382 1.00031
795 1 0.0896568 0.511914 0.921096
74 1 0.0726149 0.583314 0.00309311
819 1 0.0870189 0.672143 0.915264
800 1 0.157871 0.595588 0.917154
797 1 0.168164 0.498679 0.843113
78 1 0.243473 0.590235 0.0136432
804 1 0.341623 0.593932 0.917391
823 1 0.247081 0.658904 0.928048
82 1 0.420123 0.573418 1.00097
803 1 0.417307 0.508821 0.908704
808 1 0.510704 0.583775 0.931274
86 1 0.582688 0.577914 0.0132373
806 1 0.594684 0.590657 0.834038
812 1 0.667628 0.586733 0.928625
831 1 0.574745 0.662755 0.912011
90 1 0.761607 0.599296 1.00995
810 1 0.743157 0.576683 0.841191
813 1 0.831958 0.504409 0.847776
817 1 0.996469 0.671847 0.833178
815 1 0.927642 0.498913 0.92403
796 1 0.993586 0.586776 0.925259
816 1 0.844484 0.588758 0.937398
824 1 0.150305 0.771675 0.919808
843 1 0.0635985 0.832613 0.908722
820 1 -0.00438975 0.752594 0.91391
841 1 1.00014 0.850937 0.828592
129 1 0.324458 0.845502 1.00913
821 1 0.159461 0.664074 0.830742
845 1 0.170867 0.838123 0.823367
102 1 0.236938 0.751561 1.00985
847 1 0.249422 0.833566 0.928968
828 1 0.342475 0.74981 0.943796
106 1 0.429039 0.769992 0.00968664
105 1 0.346345 0.659922 1.0028
826 1 0.422764 0.752063 0.823442
827 1 0.435536 0.684636 0.898773
851 1 0.4112 0.825131 0.902449
109 1 0.492462 0.671373 1.00183
832 1 0.517763 0.763811 0.907352
836 1 0.675501 0.752857 0.905641
113 1 0.656338 0.665777 1.00158
835 1 0.750555 0.667886 0.916446
117 1 0.842413 0.686755 0.0101167
840 1 0.836662 0.742463 0.917779
839 1 0.926111 0.671375 0.921016
842 1 0.0789539 0.925118 0.82517
723 1 0.0857565 0.990769 0.90906
844 1 -0.0100957 0.926358 0.92071
848 1 0.161359 0.912726 0.910562
849 1 0.315656 0.810835 0.836021
846 1 0.253749 0.899106 0.830286
729 1 0.335405 0.988293 0.843389
731 1 0.430718 0.993457 0.91828
852 1 0.320833 0.90974 0.914157
137 1 0.664442 0.824782 0.999441
855 1 0.60092 0.842775 0.917491
856 1 0.523733 0.906783 0.906744
860 1 0.705345 0.916927 0.927236
21 1 0.836342 0.0134484 0.974856
739 1 0.755799 0.0126584 0.89415
859 1 0.764509 0.825169 0.911006
864 1 0.846239 0.934362 0.899805
141 1 0.839329 0.828316 0.987895
741 1 0.832835 0.00970227 0.816086
743 1 0.930448 0.0164704 0.910072
862 1 0.93159 0.926923 0.813889
863 1 0.920088 0.828873 0.9168
