ITEM: TIMESTEP
15500
ITEM: NUMBER OF ATOMS
864
ITEM: BOX BOUNDS pp pp pp
0.0000000000000000e+00 3.1559999999999999e+01
0.0000000000000000e+00 3.1559999999999999e+01
0.0000000000000000e+00 3.1559999999999999e+01
ITEM: ATOMS id type xs ys zs
4 1 0.0335892 0.0867323 0.0544553
138 1 0.270648 0.420099 0.471976
130 1 0.452875 0.25733 0.477219
134 1 0.0983846 0.417271 0.481033
8 1 0.188627 0.0879187 0.0776385
42 1 0.27307 0.084826 0.159252
113 1 0.187624 0.0251009 0.476094
125 1 0.190636 0.162768 0.489606
12 1 0.341805 0.0980053 0.0588491
46 1 0.426282 0.0915066 0.145347
57 1 0.343974 0.176959 0.145956
15 1 0.110418 0.168003 0.0543403
16 1 0.0251279 0.230382 0.0576023
50 1 0.115605 0.252806 0.151533
49 1 0.0344984 0.171699 0.159943
61 1 0.0281965 0.335173 0.159836
19 1 0.256623 0.170415 0.0718438
20 1 0.194064 0.258626 0.0712746
53 1 0.17816 0.168411 0.148397
54 1 0.263574 0.256254 0.156505
24 1 0.359333 0.261822 0.0727112
23 1 0.432327 0.170665 0.0717473
58 1 0.444209 0.259874 0.14079
27 1 0.109244 0.332981 0.0727688
62 1 0.103531 0.417583 0.16161
28 1 0.0192076 0.425097 0.0761249
32 1 0.190444 0.422627 0.0712787
31 1 0.268042 0.337711 0.0736736
66 1 0.274118 0.421265 0.15602
65 1 0.192353 0.346533 0.166053
69 1 0.346826 0.339756 0.149679
36 1 0.340763 0.429076 0.0646247
35 1 0.424061 0.348925 0.0658709
70 1 0.427469 0.425818 0.148274
38 1 0.0997483 0.0754575 0.141938
40 1 0.022336 0.0923723 0.248404
74 1 0.114428 0.0723384 0.313424
51 1 0.1273 0.177413 0.230117
103 1 0.263429 0.333754 0.402352
44 1 0.195733 0.0782502 0.241623
142 1 0.43797 0.424275 0.471109
78 1 0.281655 0.10986 0.323111
43 1 0.287864 0.0187732 0.257649
48 1 0.37442 0.105423 0.231364
82 1 0.439249 0.0880085 0.315007
81 1 0.361759 0.00238674 0.339559
133 1 0.0137175 0.345342 0.493824
85 1 0.0160366 0.181069 0.336881
86 1 0.114696 0.255032 0.330727
52 1 0.0340727 0.25449 0.240964
55 1 0.273958 0.167084 0.237724
89 1 0.193188 0.177405 0.328326
56 1 0.196282 0.254508 0.244232
90 1 0.276595 0.255527 0.314816
101 1 0.188778 0.343218 0.320761
59 1 0.440412 0.19614 0.235125
60 1 0.356566 0.258482 0.237581
94 1 0.44441 0.263246 0.308567
93 1 0.36583 0.179882 0.324603
63 1 0.104768 0.334298 0.240126
64 1 0.0251295 0.417689 0.22506
98 1 0.0927307 0.423791 0.319946
97 1 0.0219255 0.343561 0.320364
67 1 0.274259 0.345682 0.240943
68 1 0.176949 0.419455 0.241683
102 1 0.258477 0.429318 0.33271
71 1 0.435537 0.354337 0.221767
105 1 0.35542 0.34032 0.317353
106 1 0.449322 0.434126 0.311088
72 1 0.355708 0.417626 0.237515
75 1 0.1061 0.0170424 0.409893
107 1 0.453645 0.339576 0.386233
87 1 0.0978392 0.171156 0.410763
137 1 0.182591 0.342703 0.473576
76 1 0.00852563 0.0909096 0.406262
257 1 0.196647 0.49895 0.157547
80 1 0.201583 0.100262 0.407002
100 1 0.0173259 0.428739 0.410046
126 1 0.266659 0.257029 0.481794
83 1 0.47026 0.0279459 0.387817
117 1 0.376313 0.010378 0.473599
84 1 0.369998 0.0919308 0.39533
104 1 0.170262 0.430068 0.405454
109 1 0.0159281 0.0036187 0.489349
88 1 0.0178152 0.266206 0.413192
108 1 0.352736 0.424429 0.399707
141 1 0.364792 0.347053 0.485869
91 1 0.266886 0.181617 0.409044
92 1 0.185645 0.245902 0.414297
129 1 0.371581 0.18355 0.488004
95 1 0.453043 0.193031 0.396193
96 1 0.353964 0.266898 0.404297
79 1 0.282148 0.0229767 0.413402
3 1 0.105956 0.00325251 0.0587109
118 1 0.463217 0.102425 0.475058
99 1 0.104388 0.339396 0.395683
114 1 0.285952 0.097026 0.499186
33 1 0.344126 0.342682 0.00151276
73 1 0.0280104 0.00353934 0.319698
77 1 0.194881 0.00233755 0.330281
122 1 0.109547 0.266366 0.494159
110 1 0.0738802 0.0957417 0.492944
297 1 0.3618 0.495601 0.323468
26 1 0.0951287 0.422755 0.00116755
7 1 0.278534 0.0014272 0.0714843
259 1 0.283629 0.499623 0.249556
146 1 0.101224 0.0852953 0.650704
216 1 0.361455 0.416942 0.912153
111 1 0.093703 0.00538544 0.564102
225 1 0.349039 0.499024 0.976285
116 1 0.19685 0.100632 0.572903
150 1 0.274533 0.0953797 0.651861
369 1 0.356312 0.490848 0.658809
115 1 0.265657 0.0123782 0.562631
120 1 0.361353 0.106712 0.570638
154 1 0.447882 0.0998937 0.645191
153 1 0.347409 0.0119426 0.632264
119 1 0.444918 0.0204414 0.567096
123 1 0.108033 0.181358 0.571083
124 1 0.0252275 0.27549 0.565298
158 1 0.120271 0.267509 0.649413
157 1 0.0264993 0.185877 0.642529
161 1 0.19119 0.169649 0.650482
127 1 0.289579 0.193958 0.568539
128 1 0.192789 0.294227 0.571956
162 1 0.269518 0.253889 0.655065
183 1 0.112334 0.0173776 0.903182
405 1 0.35613 0.482418 0.820169
131 1 0.465106 0.179178 0.563377
165 1 0.369779 0.192883 0.655654
132 1 0.385756 0.257938 0.580181
166 1 0.456007 0.257775 0.649596
135 1 0.103089 0.349892 0.565832
170 1 0.0886482 0.415517 0.643488
169 1 0.0172189 0.334196 0.6582
136 1 0.0226018 0.417615 0.570565
34 1 0.439321 0.440044 0.993834
139 1 0.293691 0.335092 0.570033
173 1 0.187468 0.359775 0.657579
140 1 0.201573 0.424015 0.559419
174 1 0.282055 0.413767 0.645507
155 1 0.433243 0.0158921 0.737626
177 1 0.37039 0.344919 0.661115
143 1 0.453533 0.338767 0.569732
144 1 0.380072 0.422439 0.571089
178 1 0.459745 0.43539 0.667025
148 1 0.0310638 0.0884357 0.739026
181 1 0.016854 0.00227801 0.811786
182 1 0.111924 0.0799597 0.812088
147 1 0.108403 0.00473911 0.717128
152 1 0.188134 0.087343 0.738977
186 1 0.283547 0.0904487 0.808647
331 1 0.287414 0.495647 0.556427
5 1 0.191688 0.0219884 0.996739
156 1 0.356285 0.103076 0.728178
121 1 0.00214901 0.182333 0.503322
193 1 0.0156473 0.171663 0.811861
159 1 0.110145 0.186438 0.734097
194 1 0.095728 0.259259 0.809132
160 1 0.0297263 0.258827 0.733852
197 1 0.196955 0.168239 0.817322
163 1 0.262794 0.181599 0.737717
164 1 0.1927 0.268536 0.728488
198 1 0.280172 0.257716 0.821709
168 1 0.350279 0.268082 0.735924
167 1 0.444032 0.159296 0.741521
201 1 0.351693 0.170951 0.821377
202 1 0.434664 0.267402 0.824598
172 1 0.0175272 0.433952 0.71952
171 1 0.102271 0.344641 0.733841
206 1 0.101464 0.427209 0.825763
205 1 0.0160961 0.353024 0.814996
209 1 0.183023 0.340207 0.809024
175 1 0.271329 0.344332 0.733263
210 1 0.256501 0.423758 0.821502
176 1 0.173001 0.427414 0.741525
214 1 0.442787 0.427672 0.833238
179 1 0.452635 0.333026 0.745938
180 1 0.376685 0.419483 0.736446
213 1 0.358946 0.353511 0.812844
191 1 0.434749 0.0129471 0.900925
184 1 0.0369025 0.0877191 0.88384
1 1 0.0246229 0.0149712 0.980268
9 1 0.353028 0.00761602 0.985916
13 1 0.00120206 0.160529 0.98174
112 1 0.00792357 0.0924988 0.596571
188 1 0.201104 0.0920298 0.899014
17 1 0.192316 0.175961 0.988071
29 1 0.187725 0.326242 0.987554
190 1 0.423151 0.094031 0.825487
10 1 0.439864 0.0911365 0.981081
192 1 0.337739 0.10003 0.915234
215 1 0.44986 0.343857 0.901554
151 1 0.270107 0.0155202 0.72965
6 1 0.265488 0.102935 0.98564
14 1 0.106674 0.24864 0.986945
195 1 0.11217 0.16768 0.904384
196 1 0.0224475 0.249291 0.899114
18 1 0.264159 0.257978 0.987289
200 1 0.182267 0.255011 0.912064
199 1 0.267902 0.185135 0.895953
21 1 0.360168 0.190792 0.982002
203 1 0.434796 0.1843 0.894044
204 1 0.349243 0.267617 0.903921
22 1 0.435768 0.266128 0.967804
25 1 0.0355052 0.332578 0.982937
207 1 0.108486 0.340946 0.895573
208 1 0.0249284 0.427508 0.908027
149 1 0.187652 0.00608352 0.650058
30 1 0.261655 0.409197 0.984028
212 1 0.192711 0.423143 0.914358
211 1 0.259881 0.340232 0.900553
185 1 0.202676 0.00787279 0.825538
2 1 0.111265 0.0934241 0.976147
367 1 0.269324 0.495638 0.735681
189 1 0.355852 0.00396119 0.824748
220 1 0.0419745 0.586669 0.0663008
253 1 0.030836 0.516634 0.14154
41 1 0.191049 0.997925 0.142175
224 1 0.18417 0.598139 0.0633348
258 1 0.262971 0.598895 0.150541
318 1 0.278187 0.927841 0.331157
223 1 0.260581 0.508346 0.0806386
228 1 0.34532 0.611016 0.073069
261 1 0.349046 0.528157 0.154839
262 1 0.425089 0.605327 0.164634
227 1 0.423084 0.53475 0.0655486
231 1 0.110496 0.677069 0.0687857
232 1 0.0334642 0.767742 0.0674596
266 1 0.107382 0.759547 0.162496
265 1 0.0390679 0.670952 0.160329
269 1 0.190696 0.691214 0.156053
236 1 0.17576 0.756258 0.0614729
235 1 0.269674 0.673936 0.0716741
270 1 0.273716 0.76735 0.170269
240 1 0.357491 0.756564 0.0761776
273 1 0.344304 0.691626 0.157568
239 1 0.433539 0.675784 0.0817434
274 1 0.437299 0.749968 0.168246
251 1 0.431995 0.827915 0.0872368
285 1 0.347818 0.851278 0.165842
277 1 0.0329852 0.836813 0.158393
244 1 0.0292152 0.928797 0.0497376
243 1 0.114512 0.841543 0.063887
278 1 0.102681 0.920017 0.143753
247 1 0.258145 0.832372 0.060924
248 1 0.195623 0.915962 0.0649734
282 1 0.267093 0.923069 0.152744
299 1 0.445864 0.504745 0.397809
252 1 0.357482 0.913437 0.069882
286 1 0.428632 0.918576 0.159544
346 1 0.42938 0.761454 0.480833
254 1 0.120141 0.59707 0.15789
255 1 0.098499 0.509978 0.232635
290 1 0.098464 0.594649 0.337613
256 1 0.0141581 0.592169 0.245373
324 1 0.362188 0.923125 0.407493
260 1 0.196937 0.592498 0.236444
37 1 0.0179093 0.993281 0.144095
323 1 0.462505 0.843165 0.403187
291 1 0.0964968 0.520943 0.412549
264 1 0.347851 0.594091 0.242679
298 1 0.433138 0.585612 0.30467
263 1 0.431645 0.505786 0.232665
267 1 0.120715 0.685415 0.239814
268 1 0.0289382 0.739101 0.236912
272 1 0.191904 0.763979 0.240616
306 1 0.259882 0.746682 0.336619
271 1 0.273924 0.677644 0.241689
305 1 0.204912 0.664637 0.338543
275 1 0.435148 0.680254 0.24793
276 1 0.345778 0.758397 0.248082
310 1 0.444631 0.773488 0.323541
309 1 0.349898 0.67864 0.320884
287 1 0.440615 0.853966 0.242474
279 1 0.10577 0.843545 0.240858
280 1 0.0154037 0.915057 0.249624
314 1 0.111304 0.912023 0.321417
313 1 0.0217859 0.822218 0.322064
320 1 0.181375 0.932746 0.414369
281 1 0.178178 0.84515 0.15805
283 1 0.282117 0.855229 0.258957
284 1 0.195695 0.923828 0.243557
317 1 0.209228 0.838074 0.325017
322 1 0.460379 0.933769 0.330747
288 1 0.357244 0.937759 0.251791
321 1 0.372525 0.848965 0.321788
39 1 0.109217 0.993581 0.233719
45 1 0.350115 0.99835 0.164384
337 1 0.031645 0.666711 0.484196
319 1 0.274202 0.842979 0.414862
47 1 0.442909 0.993916 0.244597
330 1 0.283531 0.595627 0.491209
294 1 0.277881 0.584539 0.318027
296 1 0.197529 0.580427 0.404399
334 1 0.439635 0.595505 0.494871
300 1 0.367916 0.590847 0.394507
311 1 0.429064 0.681691 0.390628
345 1 0.369897 0.670472 0.489733
326 1 0.110325 0.594892 0.48841
302 1 0.116463 0.749898 0.322249
304 1 0.0025754 0.752158 0.408661
303 1 0.112968 0.681073 0.415011
289 1 0.0180349 0.513096 0.322892
301 1 0.0223029 0.663471 0.335137
342 1 0.275086 0.75922 0.48649
308 1 0.188054 0.756644 0.414617
307 1 0.28663 0.66801 0.408789
338 1 0.110279 0.766806 0.491047
312 1 0.344932 0.756743 0.407955
293 1 0.178969 0.512916 0.316757
358 1 0.454258 0.918867 0.495796
357 1 0.35989 0.845872 0.491031
316 1 0.0148617 0.91264 0.389545
315 1 0.0995958 0.830387 0.412992
354 1 0.274438 0.941535 0.474371
349 1 0.00923244 0.831913 0.49409
329 1 0.200113 0.517677 0.488553
353 1 0.191254 0.849972 0.491954
219 1 0.124738 0.505823 0.0724557
333 1 0.362338 0.509866 0.469827
350 1 0.0890541 0.925663 0.475748
341 1 0.199437 0.674392 0.494147
11 1 0.433534 0.999622 0.0530117
295 1 0.282663 0.511579 0.400688
362 1 0.10656 0.59244 0.641814
328 1 0.0257788 0.603688 0.57858
325 1 0.0308333 0.520909 0.504793
373 1 0.0257888 0.663867 0.662055
332 1 0.206056 0.578513 0.579458
366 1 0.288225 0.572998 0.657416
377 1 0.202808 0.67534 0.651777
249 1 0.353545 0.832777 0.990947
397 1 0.0164441 0.500807 0.815367
336 1 0.350274 0.590304 0.56442
363 1 0.10668 0.515992 0.733499
339 1 0.119649 0.686957 0.565167
340 1 0.0344689 0.746995 0.566758
374 1 0.121264 0.759516 0.656045
385 1 0.0195905 0.83839 0.663743
351 1 0.109165 0.843258 0.573341
344 1 0.188129 0.767383 0.570462
343 1 0.277834 0.675675 0.575824
378 1 0.283941 0.758336 0.654272
347 1 0.460924 0.678163 0.566956
348 1 0.359447 0.754363 0.575755
382 1 0.43908 0.741078 0.654718
381 1 0.351453 0.659936 0.659731
386 1 0.102888 0.921093 0.650548
352 1 0.0199168 0.92481 0.56346
355 1 0.269969 0.838729 0.565747
356 1 0.182961 0.928901 0.566974
389 1 0.197794 0.85831 0.651003
390 1 0.278641 0.930022 0.641102
359 1 0.450452 0.830251 0.57377
393 1 0.362853 0.842997 0.644064
360 1 0.355081 0.927662 0.556468
394 1 0.438128 0.929079 0.651059
226 1 0.454108 0.595986 0.980929
364 1 0.0255966 0.589167 0.739615
398 1 0.109247 0.593193 0.822115
242 1 0.117146 0.931499 0.976874
375 1 0.106944 0.679117 0.739245
427 1 0.262005 0.843964 0.896267
234 1 0.284104 0.745016 0.992031
368 1 0.199495 0.593846 0.724413
402 1 0.279393 0.589306 0.805484
431 1 0.424431 0.835736 0.911609
370 1 0.449431 0.584853 0.645252
372 1 0.362378 0.576293 0.738482
406 1 0.439994 0.598797 0.814142
432 1 0.348112 0.908307 0.904621
376 1 0.030387 0.766851 0.743883
410 1 0.121121 0.764524 0.824794
409 1 0.0305823 0.676547 0.823539
421 1 0.0327106 0.841577 0.824527
379 1 0.267091 0.679562 0.745383
413 1 0.185166 0.669764 0.814973
380 1 0.206844 0.770671 0.723807
383 1 0.440182 0.668556 0.741766
417 1 0.357598 0.675422 0.808238
384 1 0.359417 0.759232 0.736408
418 1 0.435281 0.756529 0.814191
388 1 0.0237991 0.921634 0.738817
387 1 0.10758 0.84934 0.732854
422 1 0.101689 0.935897 0.815952
425 1 0.198371 0.854918 0.804652
391 1 0.285696 0.851557 0.734263
392 1 0.194048 0.935579 0.73601
426 1 0.273368 0.932597 0.823313
395 1 0.431191 0.840342 0.733207
429 1 0.344918 0.839777 0.824006
396 1 0.346646 0.944176 0.727041
430 1 0.423411 0.917913 0.807958
187 1 0.275526 0.997176 0.906301
401 1 0.182971 0.505591 0.82254
371 1 0.444822 0.509382 0.750224
400 1 0.0272884 0.594277 0.898368
218 1 0.11732 0.581828 0.985195
246 1 0.265597 0.931021 0.996225
404 1 0.207981 0.586614 0.89753
327 1 0.118948 0.502091 0.576813
222 1 0.283673 0.587323 0.989756
238 1 0.430745 0.748052 0.991388
408 1 0.359358 0.58928 0.877129
407 1 0.431455 0.512964 0.911565
221 1 0.201787 0.514908 0.988548
229 1 0.0192019 0.662492 0.983698
230 1 0.102276 0.758758 0.978722
412 1 0.0260776 0.765479 0.897521
411 1 0.108736 0.677532 0.898747
414 1 0.249835 0.766158 0.817044
233 1 0.200043 0.668866 0.985219
415 1 0.27595 0.664332 0.892335
416 1 0.191489 0.750691 0.911221
250 1 0.445339 0.918476 0.995539
237 1 0.363625 0.662543 0.984545
399 1 0.109667 0.510034 0.908694
419 1 0.429093 0.670187 0.899844
420 1 0.339769 0.756086 0.896715
217 1 0.0328641 0.515168 0.974371
241 1 0.0367875 0.83804 0.975879
424 1 0.031217 0.923353 0.89627
423 1 0.120047 0.845136 0.893227
403 1 0.269907 0.500899 0.903164
361 1 0.0162961 0.503221 0.634769
245 1 0.188846 0.837706 0.976247
428 1 0.190039 0.933185 0.909092
335 1 0.446745 0.5071 0.559563
853 1 0.494581 0.844314 0.831392
365 1 0.19314 0.504679 0.660862
844 1 0.499385 0.746736 0.908995
145 1 0.0205973 0.999813 0.659548
561 1 0.866446 0.17701 0.495878
470 1 0.607818 0.083509 0.140936
496 1 0.532851 0.407212 0.218639
471 1 0.612304 0.00442185 0.21434
440 1 0.688607 0.089923 0.0634648
474 1 0.783251 0.0794305 0.154225
550 1 0.942123 0.0949017 0.480309
493 1 0.508476 0.352718 0.1402
444 1 0.860676 0.083192 0.0841086
478 1 0.954409 0.0801923 0.15081
489 1 0.859729 0.167851 0.157004
536 1 0.708265 0.432304 0.391673
535 1 0.772369 0.328048 0.401503
447 1 0.592492 0.179918 0.0586119
482 1 0.602119 0.25686 0.138103
448 1 0.50871 0.261794 0.0612406
557 1 0.684351 0.176082 0.493178
451 1 0.773688 0.158152 0.0709047
485 1 0.683641 0.182688 0.134832
452 1 0.698138 0.264273 0.0694352
486 1 0.783477 0.25661 0.164607
456 1 0.863521 0.25736 0.0679212
455 1 0.935396 0.169298 0.078154
490 1 0.953469 0.252753 0.155865
459 1 0.591272 0.349463 0.068909
494 1 0.606476 0.444018 0.14929
439 1 0.78308 0.0106343 0.0695747
460 1 0.513944 0.426296 0.0649227
497 1 0.681382 0.345501 0.14516
463 1 0.769941 0.345504 0.0833866
464 1 0.682671 0.432845 0.0655425
498 1 0.767695 0.439726 0.148939
467 1 0.956323 0.3374 0.0742197
468 1 0.849025 0.426292 0.0760318
501 1 0.860045 0.327604 0.142321
502 1 0.943082 0.430979 0.155526
436 1 0.522837 0.0820902 0.0765898
506 1 0.601559 0.100718 0.299598
472 1 0.505248 0.0923861 0.231956
569 1 0.684941 0.356021 0.483464
509 1 0.687529 0.0271118 0.311268
476 1 0.683191 0.0821362 0.2185
510 1 0.778917 0.0851788 0.316693
521 1 0.695122 0.168546 0.309184
691 1 0.802777 0.498944 0.225065
480 1 0.859082 0.0842119 0.225148
475 1 0.771535 0.0227817 0.239092
473 1 0.700361 0.00719365 0.145174
484 1 0.535645 0.259913 0.219611
517 1 0.520472 0.183294 0.307183
483 1 0.619717 0.177409 0.229039
518 1 0.624256 0.261148 0.320315
487 1 0.781364 0.169651 0.243063
488 1 0.70337 0.253662 0.235208
522 1 0.777646 0.252929 0.311763
499 1 0.764678 0.348027 0.219274
525 1 0.853331 0.177242 0.335658
491 1 0.931923 0.179124 0.235752
492 1 0.853965 0.266412 0.237702
526 1 0.937572 0.255911 0.318943
537 1 0.85293 0.330496 0.334679
529 1 0.540013 0.350071 0.314186
495 1 0.6182 0.337284 0.238684
530 1 0.618108 0.419644 0.313245
573 1 0.84526 0.336043 0.496655
533 1 0.701502 0.351173 0.304099
534 1 0.785452 0.425797 0.315611
500 1 0.694666 0.433664 0.227653
503 1 0.946395 0.338727 0.235862
538 1 0.929003 0.415472 0.322376
504 1 0.855714 0.413156 0.217579
481 1 0.529585 0.175397 0.14653
570 1 0.766944 0.423254 0.484781
761 1 0.687302 0.492958 0.489094
508 1 0.531299 0.113404 0.389689
542 1 0.610995 0.0908356 0.469512
507 1 0.600008 0.0222146 0.380571
442 1 0.937501 0.0844171 0.00159315
443 1 0.93666 0.000852499 0.0640103
512 1 0.700324 0.101606 0.394731
723 1 0.612325 0.489698 0.409061
514 1 0.928939 0.0919854 0.329535
516 1 0.835882 0.0747649 0.418498
539 1 0.936228 0.338245 0.40733
553 1 0.53063 0.182678 0.479258
554 1 0.620636 0.252497 0.482943
519 1 0.610978 0.178964 0.394675
520 1 0.544551 0.263032 0.396373
558 1 0.758625 0.256908 0.489485
479 1 0.949233 0.0137512 0.244998
523 1 0.773362 0.182472 0.409636
524 1 0.692986 0.254566 0.396017
511 1 0.755571 0.00619737 0.399623
545 1 0.680226 0.014942 0.489356
527 1 0.937905 0.187819 0.416162
528 1 0.845374 0.255829 0.413709
531 1 0.617664 0.35336 0.399066
532 1 0.529418 0.422535 0.407512
540 1 0.855155 0.418898 0.4102
565 1 0.53459 0.333028 0.489657
562 1 0.92485 0.26646 0.497309
566 1 0.596098 0.423807 0.492862
515 1 0.931781 0.00383936 0.394798
541 1 0.537673 0.000248352 0.491541
477 1 0.879112 0.00220909 0.15291
544 1 0.526583 0.0938615 0.559331
543 1 0.607012 0.00672045 0.580882
449 1 0.684583 0.177299 0.992828
548 1 0.681431 0.0983985 0.577829
547 1 0.769209 0.0247033 0.569341
559 1 0.781628 0.174879 0.59219
619 1 0.774441 0.00287412 0.901264
552 1 0.861011 0.0811394 0.572966
597 1 0.856692 0.164034 0.667199
462 1 0.757576 0.43724 0.994112
556 1 0.544182 0.265988 0.570529
555 1 0.610048 0.188929 0.568261
590 1 0.616944 0.258277 0.659181
589 1 0.537576 0.172896 0.651186
593 1 0.695417 0.167024 0.658644
560 1 0.680922 0.250701 0.577317
594 1 0.760808 0.258237 0.651333
571 1 0.758004 0.332754 0.571235
563 1 0.932939 0.16675 0.588726
564 1 0.839841 0.257408 0.576559
598 1 0.922371 0.259321 0.64704
575 1 0.928308 0.343649 0.574679
567 1 0.624885 0.342839 0.560283
602 1 0.607926 0.42957 0.674177
568 1 0.515859 0.419876 0.56834
601 1 0.532426 0.346922 0.658299
466 1 0.952605 0.426848 0.981775
605 1 0.682376 0.350228 0.661356
572 1 0.691703 0.420904 0.57938
606 1 0.770958 0.417677 0.668443
623 1 0.939261 0.00585127 0.900244
609 1 0.843777 0.344831 0.648032
576 1 0.841987 0.421638 0.575481
610 1 0.933434 0.426941 0.640597
644 1 0.694676 0.43972 0.898893
578 1 0.607026 0.0845239 0.663852
580 1 0.527057 0.0936756 0.745456
614 1 0.594425 0.0720003 0.84012
585 1 0.848358 0.00545896 0.666406
648 1 0.854889 0.423782 0.911111
582 1 0.770724 0.0929548 0.669619
450 1 0.762798 0.258755 0.993472
584 1 0.678259 0.0823524 0.759531
618 1 0.770381 0.0914383 0.817539
647 1 0.950516 0.33896 0.900561
586 1 0.930972 0.0800165 0.668046
588 1 0.850019 0.0942384 0.741838
622 1 0.936208 0.0875805 0.796199
546 1 0.775485 0.104105 0.504181
465 1 0.85806 0.344655 0.991061
625 1 0.525997 0.178376 0.819982
591 1 0.617327 0.172988 0.731221
592 1 0.525976 0.255817 0.740574
626 1 0.618289 0.252886 0.826239
629 1 0.681736 0.172179 0.828199
596 1 0.699934 0.260616 0.735119
595 1 0.765282 0.164854 0.746303
630 1 0.764568 0.258936 0.823719
641 1 0.682137 0.338183 0.848157
599 1 0.947203 0.18386 0.724498
600 1 0.845921 0.256838 0.7367
634 1 0.944666 0.261874 0.809519
637 1 0.53045 0.364455 0.832235
603 1 0.593149 0.337503 0.74298
638 1 0.615339 0.42195 0.823844
604 1 0.530272 0.43553 0.75103
607 1 0.773644 0.334099 0.740886
608 1 0.690639 0.412567 0.751904
642 1 0.77636 0.404642 0.830784
645 1 0.855449 0.332025 0.814983
611 1 0.934432 0.344594 0.730013
646 1 0.932512 0.410731 0.824719
612 1 0.861614 0.419492 0.727428
839 1 0.942696 0.492022 0.901386
616 1 0.502985 0.0957588 0.892703
461 1 0.688097 0.350723 0.983795
551 1 0.943896 0.00716886 0.569811
441 1 0.850952 0.00865655 0.983709
581 1 0.690912 0.0123055 0.667105
620 1 0.692149 0.0854672 0.90008
643 1 0.77408 0.339484 0.908509
639 1 0.599804 0.348655 0.914306
438 1 0.778694 0.0871841 0.979761
633 1 0.852188 0.18176 0.825194
624 1 0.854432 0.0875776 0.888032
640 1 0.511443 0.436193 0.909567
621 1 0.861289 0.0081307 0.819403
445 1 0.521308 0.197611 0.968076
628 1 0.531771 0.267856 0.886134
627 1 0.602974 0.167595 0.913237
446 1 0.61174 0.265446 0.995092
587 1 0.934226 0.00426084 0.739643
631 1 0.764183 0.169102 0.913287
632 1 0.689947 0.248012 0.91153
583 1 0.774745 0.0080568 0.755117
454 1 0.939467 0.264487 0.986636
453 1 0.864847 0.158754 0.971136
635 1 0.935874 0.174512 0.889352
636 1 0.843347 0.249592 0.903907
457 1 0.520909 0.343579 0.981061
458 1 0.599843 0.43579 0.993339
433 1 0.526421 0.00833191 0.971112
577 1 0.519832 0.00494588 0.667859
574 1 0.948329 0.432298 0.5014
434 1 0.596093 0.0824894 0.998181
835 1 0.779861 0.499905 0.892842
686 1 0.597674 0.580511 0.162335
652 1 0.518844 0.594939 0.0764886
789 1 0.851479 0.833554 0.496137
651 1 0.604909 0.519137 0.0725869
656 1 0.703193 0.602596 0.0668024
690 1 0.792271 0.598213 0.155664
689 1 0.696829 0.523106 0.160647
659 1 0.947912 0.50115 0.0553459
693 1 0.875844 0.516784 0.139714
660 1 0.873223 0.599353 0.0700536
694 1 0.951677 0.598845 0.151406
766 1 0.940814 0.602919 0.489229
663 1 0.604746 0.669312 0.0745081
698 1 0.608382 0.76196 0.156346
664 1 0.525863 0.762507 0.0876069
697 1 0.515909 0.673376 0.160612
675 1 0.610535 0.84358 0.0735447
667 1 0.777802 0.684503 0.0765442
701 1 0.689834 0.673198 0.151711
668 1 0.697494 0.755802 0.0885002
702 1 0.771613 0.76651 0.16
705 1 0.863977 0.685153 0.160336
671 1 0.958982 0.667756 0.0686012
672 1 0.881065 0.747935 0.0651231
706 1 0.957769 0.747036 0.160216
710 1 0.60319 0.924537 0.144724
709 1 0.510808 0.834957 0.160538
676 1 0.523632 0.918228 0.0637567
679 1 0.778315 0.841432 0.0795381
713 1 0.688542 0.842176 0.15529
680 1 0.68942 0.922406 0.0723032
714 1 0.789241 0.942633 0.152054
717 1 0.866857 0.841668 0.140432
683 1 0.95399 0.839206 0.0595787
684 1 0.851381 0.9255 0.0660344
718 1 0.953822 0.911959 0.154179
549 1 0.84884 0.981133 0.489176
722 1 0.61938 0.589735 0.320348
688 1 0.523291 0.566815 0.252963
733 1 0.523822 0.668303 0.317104
721 1 0.547879 0.50071 0.332454
692 1 0.697692 0.594796 0.241689
726 1 0.780544 0.598321 0.321646
762 1 0.760759 0.595274 0.495351
790 1 0.937902 0.927564 0.471659
696 1 0.86572 0.591115 0.237497
730 1 0.931816 0.595431 0.318518
741 1 0.85299 0.688434 0.309295
699 1 0.620908 0.664011 0.232389
734 1 0.60068 0.754403 0.317448
700 1 0.537651 0.742256 0.235202
703 1 0.765189 0.675777 0.235343
704 1 0.686397 0.763431 0.238501
738 1 0.761797 0.751639 0.309836
737 1 0.691534 0.666238 0.325006
707 1 0.934011 0.681385 0.244083
708 1 0.850353 0.770323 0.236391
742 1 0.940642 0.76059 0.31607
745 1 0.536355 0.854375 0.323353
712 1 0.527912 0.916934 0.233203
711 1 0.604958 0.852089 0.226581
746 1 0.617401 0.929319 0.311415
715 1 0.769129 0.856398 0.234649
749 1 0.699995 0.844794 0.309393
716 1 0.692319 0.933883 0.231563
750 1 0.76444 0.929274 0.310309
753 1 0.844839 0.841196 0.322579
719 1 0.946024 0.831421 0.231318
720 1 0.847849 0.916771 0.238677
754 1 0.934265 0.915 0.333981
724 1 0.5167 0.591256 0.401023
687 1 0.608148 0.504223 0.236466
729 1 0.852873 0.514503 0.317292
513 1 0.855386 0.997223 0.311706
728 1 0.698393 0.561778 0.399672
725 1 0.713846 0.509655 0.302632
731 1 0.922264 0.511748 0.412781
732 1 0.859987 0.592899 0.433367
770 1 0.601438 0.752427 0.493143
769 1 0.520674 0.667357 0.475547
735 1 0.602786 0.671389 0.394145
736 1 0.518414 0.755438 0.403036
773 1 0.684651 0.67063 0.478027
786 1 0.768411 0.917339 0.478204
740 1 0.70071 0.759846 0.413648
739 1 0.771176 0.661231 0.410731
757 1 0.52525 0.516381 0.480819
673 1 0.525214 0.820026 0.000668084
744 1 0.852426 0.760689 0.400804
743 1 0.937885 0.670353 0.402589
781 1 0.523554 0.826461 0.488272
748 1 0.543274 0.929481 0.41065
747 1 0.611339 0.83512 0.396869
649 1 0.516955 0.514116 0.0052597
695 1 0.950891 0.503474 0.228544
292 1 0.999022 0.584252 0.413149
751 1 0.757591 0.846158 0.399762
752 1 0.669892 0.929857 0.407646
655 1 0.768766 0.520626 0.0640176
755 1 0.934881 0.842065 0.413985
756 1 0.846074 0.913643 0.408141
777 1 0.849741 0.688967 0.480103
435 1 0.595323 0.997251 0.0583778
758 1 0.608123 0.580957 0.477177
727 1 0.784639 0.501242 0.415584
785 1 0.681197 0.842305 0.48389
778 1 0.938582 0.753674 0.493445
469 1 0.514901 0.997539 0.152725
662 1 0.609965 0.754847 0.00859609
685 1 0.505735 0.508426 0.139677
774 1 0.771304 0.756048 0.495681
505 1 0.534995 0.998549 0.304675
794 1 0.60645 0.599138 0.659214
760 1 0.52356 0.583147 0.563967
665 1 0.699586 0.683304 0.98835
764 1 0.682174 0.588548 0.579251
798 1 0.771846 0.586213 0.655622
768 1 0.85029 0.600685 0.563595
801 1 0.84797 0.504097 0.655334
802 1 0.937149 0.580307 0.664443
779 1 0.944912 0.677048 0.564382
767 1 0.942158 0.530449 0.571421
805 1 0.519199 0.669109 0.659855
771 1 0.6094 0.664113 0.577379
806 1 0.609218 0.747713 0.671176
772 1 0.525345 0.758555 0.579165
809 1 0.698733 0.663759 0.654142
775 1 0.760407 0.669949 0.563343
776 1 0.689627 0.755721 0.573036
810 1 0.772292 0.754481 0.6418
780 1 0.857595 0.749427 0.569258
813 1 0.86048 0.6571 0.655871
814 1 0.937203 0.760888 0.652812
817 1 0.518696 0.848646 0.662884
783 1 0.604125 0.838162 0.570431
784 1 0.533361 0.920782 0.581584
818 1 0.616103 0.92232 0.660263
821 1 0.682381 0.845397 0.653888
787 1 0.759858 0.842815 0.567449
788 1 0.69368 0.948798 0.573666
822 1 0.765354 0.934517 0.654403
666 1 0.76997 0.761899 0.996068
791 1 0.925937 0.84335 0.568941
792 1 0.843098 0.905488 0.57502
825 1 0.859732 0.844791 0.656354
830 1 0.618801 0.589874 0.825075
796 1 0.521091 0.584027 0.753498
862 1 0.945314 0.927403 0.827681
807 1 0.598738 0.670218 0.750109
829 1 0.529394 0.506596 0.828777
763 1 0.769381 0.50392 0.578507
617 1 0.693957 0.998372 0.826355
800 1 0.70005 0.580364 0.736877
834 1 0.77444 0.590425 0.828916
837 1 0.853044 0.502105 0.81453
615 1 0.616238 0.989734 0.908953
803 1 0.931602 0.511461 0.745124
678 1 0.779939 0.92352 0.976915
804 1 0.85275 0.595177 0.742894
838 1 0.928023 0.588656 0.826556
815 1 0.937673 0.680041 0.743091
808 1 0.521991 0.759754 0.733609
841 1 0.519493 0.682748 0.816349
842 1 0.613717 0.777574 0.810229
845 1 0.690007 0.688401 0.837445
811 1 0.76887 0.6706 0.748195
812 1 0.698535 0.75113 0.738247
846 1 0.773807 0.766203 0.820593
816 1 0.858066 0.745519 0.732501
849 1 0.854294 0.672869 0.817881
850 1 0.944418 0.756538 0.817789
861 1 0.859884 0.842937 0.811365
827 1 0.938104 0.831417 0.734782
820 1 0.50999 0.920539 0.739967
819 1 0.595375 0.85621 0.740523
795 1 0.598533 0.519927 0.738144
823 1 0.770371 0.835209 0.720732
857 1 0.691637 0.84535 0.799306
824 1 0.696311 0.929193 0.741091
826 1 0.948799 0.920891 0.652692
828 1 0.862323 0.926181 0.747704
832 1 0.516833 0.599442 0.887133
682 1 0.950674 0.917627 0.966493
653 1 0.703449 0.526272 0.972784
831 1 0.599461 0.523869 0.908453
654 1 0.771376 0.601973 0.980751
836 1 0.689639 0.604392 0.907728
437 1 0.706181 0.998852 0.987083
658 1 0.953363 0.580624 0.982415
657 1 0.863602 0.512093 0.983425
840 1 0.853143 0.600998 0.903609
579 1 0.599367 0.993106 0.744646
661 1 0.530327 0.682225 0.995645
843 1 0.596721 0.67315 0.908039
650 1 0.614783 0.598193 0.989425
847 1 0.779375 0.687707 0.903775
848 1 0.696103 0.772529 0.906256
681 1 0.870463 0.832162 0.99163
793 1 0.527914 0.510197 0.652289
669 1 0.84843 0.681909 0.986733
863 1 0.931022 0.843379 0.89677
851 1 0.942909 0.676619 0.89895
852 1 0.873604 0.759053 0.897002
670 1 0.964653 0.754764 0.981753
864 1 0.85892 0.926969 0.894528
856 1 0.512697 0.915614 0.918428
855 1 0.591213 0.835446 0.921445
674 1 0.619993 0.922545 0.989898
854 1 0.60282 0.913245 0.835196
858 1 0.781099 0.916466 0.824876
859 1 0.786044 0.834109 0.899473
860 1 0.700887 0.911263 0.900392
833 1 0.694719 0.513808 0.81623
613 1 0.525936 0.990179 0.829562
759 1 0.598694 0.506437 0.569354
782 1 0.611665 0.923073 0.504003
765 1 0.855494 0.50921 0.50542
677 1 0.683868 0.833657 0.998147
799 1 0.767118 0.504709 0.733555
797 1 0.687286 0.500936 0.662516
