ITEM: TIMESTEP
6000
ITEM: NUMBER OF ATOMS
864
ITEM: BOX BOUNDS pp pp pp
0.0000000000000000e+00 3.1559999999999999e+01
0.0000000000000000e+00 3.1559999999999999e+01
0.0000000000000000e+00 3.1559999999999999e+01
ITEM: ATOMS id type xs ys zs
8 1 0.164722 0.0694713 0.0779807
73 1 0.00141745 0.00476635 0.160552
74 1 0.0818465 0.0812804 0.161745
2 1 0.0785514 0.0825919 0.00659055
31 1 0.255808 0.163147 0.0830909
29 1 0.182397 0.163141 0.00141799
101 1 0.167397 0.155725 0.149992
12 1 0.334082 0.0851133 0.0734611
35 1 0.422552 0.166542 0.0759654
82 1 0.422919 0.0827014 0.15148
16 1 0.513274 0.0810461 0.0863662
86 1 0.589429 0.0858413 0.165664
113 1 0.665718 0.16234 0.162366
39 1 0.586377 0.162551 0.0850184
20 1 0.678498 0.0922309 0.070522
90 1 0.755492 0.0893282 0.164288
24 1 0.827378 0.0817495 0.0847297
17 1 0.677345 0.0104737 0.00470815
23 1 0.921288 0.00275023 0.0768953
4 1 0.991315 0.0885021 0.0905468
47 1 0.903792 0.158675 0.0910851
94 1 0.906731 0.0697356 0.156386
25 1 0.992274 0.162308 0.00112723
27 1 0.0874738 0.170004 0.0851301
97 1 0.00319015 0.170913 0.157741
51 1 0.0785938 0.332029 0.0790534
98 1 0.0810882 0.259342 0.163024
26 1 0.0771463 0.253696 0.00739944
32 1 0.173349 0.251634 0.0733409
129 1 0.332524 0.326456 0.16525
125 1 0.17691 0.315271 0.159773
55 1 0.261074 0.318931 0.0900743
57 1 0.339171 0.320036 0.00670863
36 1 0.335338 0.243965 0.0846033
105 1 0.354351 0.166696 0.155853
59 1 0.407738 0.32656 0.0830267
40 1 0.505909 0.248392 0.089611
44 1 0.650942 0.246629 0.0777418
43 1 0.744441 0.178262 0.0787004
117 1 0.820019 0.177336 0.16466
114 1 0.749156 0.255595 0.160039
67 1 0.742983 0.322981 0.0709752
48 1 0.834394 0.252602 0.0802621
28 1 0.985149 0.255595 0.0946732
45 1 0.837802 0.17546 0.00602684
46 1 0.916895 0.248624 0.0078917
56 1 0.156885 0.399551 0.0903779
435 1 0.0882928 0.496364 0.0936202
126 1 0.24813 0.401983 0.145834
509 1 0.171696 0.490091 0.162672
54 1 0.254153 0.411971 0.0185328
60 1 0.340278 0.425952 0.089018
64 1 0.493128 0.41674 0.0824235
130 1 0.409194 0.419353 0.165798
63 1 0.570359 0.342323 0.0893521
137 1 0.655341 0.336545 0.16298
68 1 0.663564 0.411954 0.0704098
61 1 0.502518 0.335186 0.003202
447 1 0.599873 0.499779 0.0720695
72 1 0.83316 0.423012 0.0764331
141 1 0.82563 0.334878 0.159106
521 1 0.669465 0.490926 0.158222
138 1 0.745673 0.409739 0.143301
49 1 0.991584 0.342894 0.000987752
71 1 0.910735 0.349132 0.0934694
52 1 0.999832 0.416631 0.0928086
142 1 0.909537 0.430541 0.164558
70 1 0.925351 0.421983 0.0146773
75 1 0.0804265 0.00678378 0.250522
146 1 0.0666889 0.0903954 0.316419
173 1 0.165627 0.152218 0.327902
149 1 0.156811 0.0219539 0.324294
78 1 0.260306 0.0782343 0.169537
80 1 0.170313 0.0821597 0.244017
103 1 0.251174 0.157517 0.249096
150 1 0.251449 0.0824184 0.326338
84 1 0.34294 0.0843824 0.243564
107 1 0.41942 0.163036 0.243976
154 1 0.41728 0.080586 0.32265
88 1 0.51339 0.0880406 0.241875
111 1 0.582829 0.160514 0.260763
92 1 0.661323 0.0819827 0.242008
109 1 0.50056 0.16293 0.169668
158 1 0.596359 0.0763865 0.326449
157 1 0.504409 0.00551655 0.33199
87 1 0.574192 0.000346662 0.246088
115 1 0.736053 0.166392 0.242653
96 1 0.830893 0.0888811 0.241186
185 1 0.668476 0.162317 0.322855
162 1 0.750044 0.0901365 0.317681
91 1 0.736705 0.0107129 0.242497
76 1 0.991551 0.0942211 0.227397
93 1 0.834189 0.000640391 0.171958
166 1 0.911289 0.0888891 0.323118
119 1 0.906098 0.159484 0.229738
165 1 0.838808 4.14615e-05 0.308905
99 1 0.0912816 0.167009 0.236492
170 1 0.079146 0.24878 0.327973
104 1 0.166625 0.244682 0.248458
123 1 0.0875903 0.31758 0.242178
197 1 0.164094 0.325399 0.325982
102 1 0.250214 0.224296 0.166939
108 1 0.328075 0.23938 0.236809
127 1 0.258511 0.324126 0.249243
174 1 0.250967 0.242668 0.320382
106 1 0.422551 0.252009 0.169965
131 1 0.412017 0.321201 0.248407
112 1 0.497248 0.24297 0.251719
110 1 0.579101 0.242029 0.167513
205 1 0.503095 0.329123 0.327128
182 1 0.585465 0.258909 0.325637
189 1 0.821768 0.173068 0.32603
116 1 0.668807 0.26705 0.248273
139 1 0.752486 0.329343 0.25012
186 1 0.744054 0.254544 0.327768
118 1 0.903653 0.252763 0.168308
120 1 0.842557 0.256631 0.259938
100 1 0.995385 0.249818 0.257915
193 1 0.98965 0.328339 0.326721
122 1 0.08503 0.414054 0.178444
194 1 0.101724 0.412036 0.332518
507 1 0.0970151 0.481166 0.250884
505 1 0.00417068 0.490184 0.177489
585 1 0.326608 0.495192 0.319937
128 1 0.173077 0.398977 0.251514
201 1 0.322741 0.335184 0.326878
132 1 0.318284 0.414454 0.243124
198 1 0.249465 0.416211 0.328179
133 1 0.49672 0.33595 0.170871
136 1 0.485227 0.417282 0.249069
134 1 0.571903 0.418882 0.169928
135 1 0.579 0.343501 0.255493
525 1 0.823246 0.496459 0.170918
140 1 0.668393 0.420426 0.241913
209 1 0.676521 0.345253 0.332123
144 1 0.811278 0.41303 0.235067
527 1 0.90448 0.490463 0.24693
143 1 0.906577 0.337959 0.236172
121 1 0.991543 0.343621 0.175189
214 1 0.914007 0.417333 0.32946
124 1 0.99063 0.410885 0.258652
213 1 0.83866 0.343163 0.332711
218 1 0.0742609 0.0911595 0.498131
147 1 0.064375 0.00308146 0.406399
171 1 0.0712179 0.154851 0.41988
221 1 0.167364 0.0116852 0.487303
245 1 0.167965 0.157463 0.489912
152 1 0.169269 0.0865227 0.414159
175 1 0.252155 0.164852 0.412727
225 1 0.326667 0.00766256 0.491271
151 1 0.251202 0.00926848 0.400408
153 1 0.347249 0.00331461 0.335591
155 1 0.417234 0.0151 0.414683
156 1 0.3339 0.0879708 0.409304
179 1 0.423557 0.15784 0.430466
181 1 0.49415 0.165934 0.334325
177 1 0.33676 0.157632 0.333626
230 1 0.582473 0.0918219 0.489558
160 1 0.502028 0.0829128 0.410044
164 1 0.663544 0.0921005 0.41357
159 1 0.587024 0.0105535 0.416136
163 1 0.770864 0.0122547 0.391449
234 1 0.75172 0.097611 0.496759
237 1 0.825022 0.00183152 0.495337
168 1 0.820849 0.108273 0.414857
148 1 0.995943 0.0752418 0.423692
167 1 0.893778 0.00868163 0.399214
238 1 0.908279 0.0746024 0.491515
269 1 0.158483 0.324645 0.491221
176 1 0.148296 0.242317 0.420006
195 1 0.0788873 0.322828 0.417585
249 1 0.32898 0.178789 0.487538
246 1 0.239826 0.252151 0.499079
180 1 0.325241 0.254071 0.403408
199 1 0.229798 0.32144 0.405212
250 1 0.432911 0.245001 0.498291
178 1 0.41456 0.249647 0.342746
184 1 0.498307 0.262907 0.419284
254 1 0.56765 0.23382 0.491003
183 1 0.578794 0.168544 0.412345
188 1 0.65745 0.252839 0.420696
187 1 0.737076 0.17225 0.406893
258 1 0.749119 0.268088 0.497472
192 1 0.816197 0.263144 0.40411
169 1 0.991569 0.174908 0.334699
191 1 0.903013 0.172876 0.428953
172 1 0.998175 0.253793 0.419508
190 1 0.90752 0.272561 0.340891
266 1 0.0954338 0.411657 0.492946
577 1 0.0220865 0.496383 0.333774
196 1 0.0193657 0.423518 0.408407
270 1 0.243767 0.397228 0.498495
657 1 0.323358 0.4897 0.49607
200 1 0.177169 0.423402 0.417899
204 1 0.330077 0.419347 0.411653
208 1 0.496835 0.402017 0.413651
587 1 0.413845 0.495231 0.408185
661 1 0.495969 0.498266 0.488388
203 1 0.413834 0.335006 0.419958
202 1 0.415015 0.396624 0.33423
212 1 0.661241 0.426291 0.413827
281 1 0.655584 0.339019 0.489477
206 1 0.585838 0.426487 0.337304
278 1 0.578027 0.41534 0.491037
207 1 0.580417 0.346341 0.40238
211 1 0.744098 0.342214 0.416751
216 1 0.830708 0.419931 0.421271
282 1 0.741604 0.419983 0.487916
210 1 0.749362 0.426912 0.342313
215 1 0.920619 0.342516 0.416551
286 1 0.920528 0.422164 0.489237
285 1 0.840994 0.339572 0.498562
599 1 0.923776 0.498842 0.405304
224 1 0.147903 0.106523 0.582472
219 1 0.0880178 0.0111282 0.583429
220 1 0.00149394 0.0841706 0.591462
290 1 0.0816209 0.0862348 0.66371
294 1 0.260155 0.0853637 0.647033
222 1 0.245769 0.0831813 0.500642
293 1 0.171006 0.00693029 0.664761
228 1 0.333745 0.0852562 0.570727
232 1 0.499395 0.0713735 0.579475
226 1 0.423226 0.0658138 0.50505
253 1 0.49444 0.153472 0.500693
302 1 0.577293 0.0857142 0.655242
255 1 0.587571 0.164963 0.590023
236 1 0.663906 0.0736974 0.589385
259 1 0.731979 0.153375 0.583757
235 1 0.750166 0.00613963 0.580212
239 1 0.897838 0.0047757 0.583678
240 1 0.8351 0.0955822 0.580242
217 1 0.992264 0.0128808 0.507835
289 1 0.998531 0.00406834 0.665107
243 1 0.0695446 0.176221 0.578077
248 1 0.154293 0.251891 0.576975
242 1 0.068424 0.257912 0.504745
313 1 0.0079279 0.177403 0.66188
247 1 0.243313 0.178891 0.574307
273 1 0.32679 0.324529 0.500735
271 1 0.243955 0.329085 0.586169
252 1 0.321563 0.246583 0.579181
321 1 0.33582 0.16929 0.665563
251 1 0.411175 0.171856 0.566287
322 1 0.421353 0.255112 0.645574
325 1 0.500087 0.177624 0.649032
256 1 0.503466 0.256926 0.57703
326 1 0.585124 0.253277 0.655232
260 1 0.663693 0.256981 0.57575
257 1 0.663181 0.169412 0.503168
329 1 0.667135 0.183649 0.664264
283 1 0.759057 0.329322 0.589102
264 1 0.819129 0.242919 0.595764
353 1 0.672462 0.330307 0.664856
261 1 0.831196 0.179839 0.504825
241 1 0.980951 0.167435 0.500567
263 1 0.908778 0.169705 0.605663
244 1 0.996197 0.258371 0.579245
262 1 0.92045 0.259049 0.50838
267 1 0.0875114 0.339856 0.597806
337 1 0.000433893 0.344596 0.663484
272 1 0.163156 0.40814 0.581687
651 1 0.0881219 0.494693 0.574896
725 1 0.160742 0.498239 0.665002
345 1 0.322332 0.334823 0.653202
276 1 0.32154 0.405361 0.573865
655 1 0.242755 0.494118 0.591407
277 1 0.499354 0.334209 0.501082
659 1 0.410503 0.496932 0.580996
275 1 0.404116 0.333366 0.580014
274 1 0.420775 0.417781 0.50308
346 1 0.414527 0.400658 0.662193
729 1 0.346815 0.482082 0.664284
349 1 0.500904 0.341176 0.662003
279 1 0.583642 0.337069 0.563215
280 1 0.500696 0.433307 0.579682
350 1 0.589914 0.409438 0.657174
284 1 0.656997 0.422479 0.570565
737 1 0.673488 0.497119 0.666596
354 1 0.744269 0.411352 0.663522
288 1 0.827269 0.415237 0.572625
669 1 0.836742 0.495863 0.500679
287 1 0.919469 0.336683 0.595154
268 1 0.990309 0.421285 0.590368
265 1 0.997373 0.350691 0.502582
358 1 0.901365 0.416307 0.660928
671 1 0.908364 0.49813 0.584264
296 1 0.166382 0.0921875 0.736704
292 1 0.00445376 0.0946207 0.737504
362 1 0.0799194 0.0974254 0.817469
291 1 0.0899192 0.00230655 0.728857
365 1 0.16344 0.000802348 0.815498
366 1 0.231802 0.0721729 0.820912
298 1 0.442971 0.0992723 0.670523
300 1 0.344846 0.0816473 0.756898
370 1 0.42573 0.0959069 0.830434
297 1 0.34118 0.0157132 0.670913
303 1 0.588174 0.000852115 0.743012
304 1 0.507229 0.0692758 0.757318
397 1 0.5125 0.166071 0.824965
308 1 0.658855 0.0977717 0.743996
374 1 0.584825 0.0757816 0.833177
306 1 0.7668 0.0746121 0.687933
305 1 0.682916 0.00197538 0.671731
331 1 0.743055 0.161855 0.763435
333 1 0.834345 0.151233 0.677165
310 1 0.913725 0.0745752 0.674802
312 1 0.839694 0.0726041 0.769086
335 1 0.916714 0.157553 0.75157
382 1 0.92793 0.0773567 0.826785
405 1 0.8387 0.159841 0.826404
317 1 0.157303 0.171671 0.667787
315 1 0.0841994 0.172311 0.753189
314 1 0.089034 0.265887 0.668166
339 1 0.0843978 0.328829 0.758117
320 1 0.163584 0.246626 0.756639
316 1 0.0106603 0.250071 0.756395
319 1 0.239337 0.168486 0.734299
318 1 0.23691 0.261121 0.666822
343 1 0.24908 0.326976 0.747001
389 1 0.173717 0.168106 0.828011
393 1 0.318927 0.171906 0.825738
323 1 0.428706 0.176542 0.75295
324 1 0.335441 0.252248 0.741327
347 1 0.406948 0.326695 0.743303
327 1 0.567861 0.171898 0.732299
328 1 0.504951 0.261598 0.745664
332 1 0.65735 0.245721 0.751067
425 1 0.663839 0.31859 0.825126
401 1 0.659686 0.175509 0.83225
398 1 0.579563 0.243315 0.825933
421 1 0.505827 0.324026 0.825897
330 1 0.749668 0.253052 0.672808
336 1 0.830502 0.243788 0.755952
402 1 0.741999 0.248094 0.821171
334 1 0.924111 0.250817 0.678813
357 1 0.838173 0.323694 0.668255
406 1 0.919286 0.255985 0.828418
338 1 0.0816762 0.408434 0.685163
410 1 0.0827105 0.427928 0.821303
341 1 0.166102 0.346205 0.675873
344 1 0.162629 0.417123 0.752327
342 1 0.246775 0.418076 0.669656
348 1 0.328778 0.396452 0.73703
727 1 0.25168 0.494086 0.743959
418 1 0.417932 0.408542 0.816813
801 1 0.340623 0.490058 0.827985
731 1 0.416167 0.499949 0.749735
352 1 0.508136 0.415318 0.752824
351 1 0.589378 0.333947 0.743281
356 1 0.661837 0.41574 0.74246
733 1 0.501213 0.490515 0.669491
735 1 0.594499 0.489847 0.738832
422 1 0.581193 0.418493 0.824441
355 1 0.75161 0.345055 0.755377
739 1 0.749269 0.499871 0.76088
359 1 0.926038 0.333472 0.75192
340 1 0.993308 0.418654 0.740149
793 1 0.999529 0.491621 0.830351
429 1 0.838227 0.340086 0.826378
360 1 0.843311 0.424181 0.746103
430 1 0.922919 0.419974 0.828239
743 1 0.924665 0.491669 0.743946
368 1 0.142332 0.0909868 0.906461
364 1 0.00592512 0.072034 0.904225
387 1 0.0870183 0.164319 0.946843
1 1 0.00524594 0.00371363 0.986429
363 1 0.0857072 0.00214114 0.899214
33 1 0.322478 0.165622 0.997372
372 1 0.323459 0.0889029 0.902359
391 1 0.250683 0.160608 0.912898
6 1 0.258187 0.0699838 0.998188
369 1 0.328595 0.0017032 0.838044
13 1 0.486191 0.0216291 0.993312
10 1 0.408 0.100842 0.987012
371 1 0.427434 0.00831401 0.915608
376 1 0.503205 0.0883659 0.905781
399 1 0.586681 0.162931 0.909641
380 1 0.657745 0.0844833 0.913366
14 1 0.579408 0.0906136 0.997474
375 1 0.58275 0.0114582 0.92938
18 1 0.754423 0.0999314 0.986096
378 1 0.751408 0.0726683 0.848256
22 1 0.926209 0.0803412 0.998847
383 1 0.917929 0.00209385 0.906372
384 1 0.841255 0.0847386 0.916703
21 1 0.847277 0.0121422 0.987402
386 1 0.0881588 0.245196 0.842921
388 1 0.00741748 0.244616 0.923008
392 1 0.158039 0.251091 0.917287
53 1 0.15574 0.331321 0.983037
30 1 0.244562 0.241624 0.981168
413 1 0.171132 0.331739 0.838159
390 1 0.243598 0.262895 0.83557
417 1 0.333046 0.330263 0.838921
34 1 0.423152 0.247552 0.997086
395 1 0.433304 0.169399 0.915593
394 1 0.421319 0.247108 0.844304
396 1 0.339854 0.242408 0.91964
38 1 0.585949 0.256977 0.988567
41 1 0.666386 0.170181 0.986756
400 1 0.502441 0.259504 0.914057
37 1 0.50011 0.177704 0.994481
404 1 0.658994 0.243298 0.900079
403 1 0.741148 0.178885 0.907744
408 1 0.823784 0.249882 0.897629
427 1 0.725206 0.320384 0.913726
42 1 0.744597 0.24775 0.992604
385 1 0.987415 0.171573 0.839002
407 1 0.91791 0.168202 0.912903
431 1 0.921293 0.321443 0.910496
409 1 0.0054719 0.340658 0.83364
411 1 0.0918834 0.344513 0.903506
412 1 0.0157186 0.423882 0.917882
50 1 0.0863162 0.42827 0.99743
414 1 0.25428 0.405897 0.833693
415 1 0.253241 0.334847 0.917655
416 1 0.170591 0.434253 0.923148
420 1 0.32705 0.412723 0.917864
58 1 0.410828 0.419975 0.995176
803 1 0.427381 0.490562 0.890426
419 1 0.432527 0.355338 0.913872
445 1 0.491283 0.493659 0.992148
62 1 0.580674 0.427028 0.99622
423 1 0.593808 0.335572 0.893465
424 1 0.52177 0.422358 0.907966
428 1 0.664587 0.421082 0.917164
65 1 0.651984 0.3424 0.991284
813 1 0.827533 0.486728 0.846845
449 1 0.671812 0.49463 0.994808
66 1 0.742923 0.404718 0.988061
426 1 0.749813 0.416024 0.845587
69 1 0.840932 0.33829 0.996718
432 1 0.838639 0.415245 0.929123
453 1 0.846021 0.498782 0.993612
440 1 0.161353 0.571652 0.086805
436 1 0.014629 0.577465 0.0972194
444 1 0.33272 0.584702 0.0836749
533 1 0.175768 0.653726 0.146786
439 1 0.246479 0.5005 0.0792744
510 1 0.250854 0.577457 0.15818
437 1 0.167124 0.502439 0.00307671
461 1 0.169102 0.658195 0.00408642
448 1 0.493529 0.576253 0.0679986
467 1 0.415747 0.661908 0.0702009
541 1 0.490224 0.65671 0.166086
443 1 0.413996 0.503132 0.0770282
441 1 0.33621 0.502984 0.000876825
452 1 0.66043 0.601389 0.0789578
518 1 0.583706 0.584082 0.154744
517 1 0.500244 0.500184 0.164878
522 1 0.737856 0.592828 0.155237
475 1 0.753702 0.665938 0.0765775
450 1 0.746841 0.584046 7.57658e-05
451 1 0.751316 0.505926 0.0842859
456 1 0.861921 0.574614 0.105324
477 1 0.843901 0.65469 0.0119926
455 1 0.948498 0.504324 0.090353
459 1 0.0755368 0.667574 0.0767932
530 1 0.10088 0.744894 0.159533
460 1 0.0150398 0.761368 0.076216
553 1 0.0269024 0.833129 0.157986
457 1 0.00291258 0.668103 0.00768423
464 1 0.175622 0.767799 0.0745465
463 1 0.249127 0.672913 0.0775135
537 1 0.331864 0.675342 0.161212
487 1 0.256757 0.83309 0.0706534
468 1 0.34915 0.749512 0.0875246
472 1 0.48951 0.748957 0.0763166
471 1 0.568813 0.677454 0.0960213
476 1 0.661658 0.748091 0.0760405
495 1 0.580917 0.822593 0.0699233
470 1 0.581129 0.744675 0.00207057
549 1 0.832377 0.674322 0.151937
497 1 0.670289 0.833269 0.000185846
499 1 0.75314 0.832199 0.0757804
573 1 0.822949 0.811209 0.155459
569 1 0.679656 0.82777 0.160128
546 1 0.738608 0.736574 0.165871
474 1 0.746653 0.744632 0.00287332
479 1 0.941826 0.672247 0.104308
480 1 0.848055 0.748922 0.0761658
550 1 0.92001 0.773174 0.161243
483 1 0.0850967 0.840783 0.0804244
484 1 0.000351536 0.912328 0.0871467
3 1 0.0867146 0.994951 0.0738302
481 1 0.000593019 0.842508 0.00582239
557 1 0.169058 0.847118 0.157582
488 1 0.170051 0.921583 0.0802462
558 1 0.255462 0.920517 0.150463
7 1 0.262628 0.98889 0.0747473
492 1 0.340568 0.912172 0.0690535
491 1 0.426085 0.839002 0.0687827
85 1 0.492021 0.994861 0.15304
561 1 0.334691 0.834497 0.149045
11 1 0.407292 0.997941 0.0882266
494 1 0.590636 0.918252 0.015846
496 1 0.508103 0.921638 0.0797807
500 1 0.663855 0.913165 0.0907727
566 1 0.58443 0.91975 0.161614
15 1 0.578527 0.996106 0.090385
89 1 0.661109 0.994297 0.156804
570 1 0.750878 0.91018 0.150501
498 1 0.754043 0.912177 0.00894085
19 1 0.757619 0.997975 0.0747026
503 1 0.920874 0.84178 0.0734945
504 1 0.840456 0.913086 0.085659
574 1 0.918226 0.912949 0.163739
502 1 0.926705 0.924745 0.000724997
506 1 0.0977651 0.57715 0.169736
529 1 0.0199021 0.656865 0.17713
581 1 0.166664 0.510068 0.327683
508 1 0.0174945 0.564712 0.257867
601 1 0.00494985 0.653885 0.320918
512 1 0.167644 0.590122 0.243963
582 1 0.255099 0.580074 0.332908
511 1 0.233211 0.504347 0.250638
513 1 0.323799 0.5017 0.180103
514 1 0.41528 0.574003 0.168861
515 1 0.419272 0.503593 0.255427
516 1 0.333946 0.586214 0.256417
593 1 0.66128 0.525107 0.32472
545 1 0.661717 0.666082 0.177503
519 1 0.577193 0.502704 0.24672
520 1 0.501539 0.593115 0.258695
524 1 0.665342 0.58117 0.233831
589 1 0.505814 0.506897 0.327721
594 1 0.760014 0.585268 0.31937
547 1 0.742749 0.663502 0.24683
617 1 0.671143 0.656372 0.330512
523 1 0.751079 0.503685 0.240371
526 1 0.937207 0.579791 0.18165
528 1 0.835062 0.584129 0.23532
598 1 0.915183 0.574674 0.315879
531 1 0.0991335 0.669863 0.252297
532 1 0.00709705 0.754305 0.255271
534 1 0.233522 0.748578 0.18235
535 1 0.258691 0.669118 0.252304
536 1 0.173469 0.75693 0.279487
540 1 0.330738 0.758525 0.24974
538 1 0.420974 0.738338 0.174057
539 1 0.413548 0.668463 0.265998
610 1 0.425806 0.747088 0.325953
563 1 0.41731 0.82912 0.243907
544 1 0.499936 0.742137 0.25174
543 1 0.581359 0.675504 0.260232
542 1 0.586005 0.751052 0.170895
567 1 0.598278 0.832456 0.239721
614 1 0.584673 0.771617 0.325129
548 1 0.671213 0.745111 0.249084
618 1 0.748323 0.744021 0.319857
552 1 0.826795 0.746196 0.246865
571 1 0.747773 0.831298 0.242163
641 1 0.669367 0.832124 0.320062
551 1 0.912743 0.686861 0.233753
575 1 0.920374 0.831653 0.248498
621 1 0.834135 0.670886 0.318363
622 1 0.916156 0.738982 0.324443
554 1 0.100743 0.920969 0.167635
555 1 0.102111 0.833815 0.249437
560 1 0.164049 0.924059 0.262568
556 1 0.004831 0.915149 0.225618
626 1 0.0725228 0.920303 0.321336
77 1 0.183553 0.990161 0.176728
559 1 0.246998 0.838102 0.254964
630 1 0.254555 0.920307 0.331584
79 1 0.259931 0.996865 0.259775
562 1 0.408783 0.905322 0.17143
83 1 0.427126 0.994914 0.248708
564 1 0.334347 0.900265 0.26588
81 1 0.346123 0.99037 0.175408
634 1 0.422961 0.906271 0.323997
565 1 0.502762 0.834487 0.167332
568 1 0.508064 0.908481 0.236654
638 1 0.585492 0.912722 0.31788
637 1 0.506833 0.835465 0.319027
161 1 0.652463 0.986849 0.322542
645 1 0.831507 0.837461 0.315037
572 1 0.669086 0.904236 0.233477
642 1 0.750299 0.916057 0.308945
145 1 0.988492 0.999088 0.324626
646 1 0.912862 0.917853 0.324074
576 1 0.836633 0.920507 0.243957
95 1 0.921071 0.994677 0.241645
579 1 0.0874652 0.509323 0.424667
650 1 0.0849826 0.58463 0.49522
578 1 0.0949841 0.582595 0.339932
580 1 0.00158808 0.582856 0.412867
605 1 0.184307 0.654232 0.338227
609 1 0.330687 0.657489 0.337773
584 1 0.170726 0.589753 0.420068
607 1 0.260126 0.663397 0.418082
583 1 0.24716 0.500454 0.40757
653 1 0.181491 0.500611 0.49868
658 1 0.408634 0.566311 0.490698
588 1 0.343817 0.593385 0.418386
586 1 0.420347 0.575483 0.334532
592 1 0.491081 0.582197 0.414127
662 1 0.569483 0.577551 0.486269
665 1 0.658957 0.504938 0.489865
591 1 0.580488 0.509097 0.40885
590 1 0.583867 0.599887 0.335048
596 1 0.659835 0.588187 0.411728
595 1 0.755518 0.527449 0.417864
597 1 0.831576 0.510812 0.334404
666 1 0.747821 0.603853 0.486568
649 1 0.990387 0.503833 0.48386
670 1 0.912333 0.576498 0.485264
600 1 0.84308 0.594699 0.40615
623 1 0.920803 0.665032 0.406536
674 1 0.08139 0.755963 0.481018
602 1 0.0790722 0.749545 0.338104
603 1 0.0916948 0.666784 0.406757
701 1 0.168809 0.829259 0.499714
606 1 0.264433 0.742625 0.338102
678 1 0.266172 0.738544 0.498079
608 1 0.17468 0.754798 0.386509
631 1 0.263738 0.82634 0.420269
677 1 0.174612 0.680176 0.493705
633 1 0.336478 0.827953 0.348478
611 1 0.411605 0.67204 0.420235
612 1 0.343657 0.761234 0.430485
616 1 0.498673 0.760727 0.411029
689 1 0.65792 0.687457 0.487851
613 1 0.501722 0.670492 0.342757
615 1 0.581852 0.671659 0.42314
690 1 0.746483 0.748142 0.499423
643 1 0.744251 0.832222 0.402686
619 1 0.758189 0.67016 0.399436
620 1 0.668898 0.751011 0.40595
624 1 0.812228 0.758282 0.401572
693 1 0.831788 0.671902 0.487687
697 1 0.988526 0.81929 0.489954
694 1 0.911377 0.735498 0.491613
604 1 0.995123 0.743473 0.405274
627 1 0.0788907 0.858386 0.407218
698 1 0.0760407 0.934033 0.499995
629 1 0.167344 0.850364 0.343346
702 1 0.2587 0.917766 0.492519
632 1 0.173245 0.915647 0.432715
635 1 0.415465 0.846107 0.427424
636 1 0.334635 0.929763 0.411239
709 1 0.496735 0.850844 0.491655
710 1 0.596025 0.912045 0.499722
640 1 0.505936 0.923518 0.407675
639 1 0.575493 0.840424 0.413764
229 1 0.506924 0.99866 0.496015
648 1 0.817778 0.909928 0.415642
644 1 0.672656 0.914862 0.413646
233 1 0.676584 0.999929 0.498916
625 1 0.999874 0.84399 0.333555
647 1 0.896443 0.839574 0.414555
628 1 0.970543 0.940876 0.416788
722 1 0.0874643 0.586683 0.661658
652 1 0.00499883 0.585214 0.598853
749 1 0.158245 0.666062 0.666238
673 1 0.00456175 0.654021 0.500066
656 1 0.167421 0.605089 0.575155
654 1 0.257252 0.578413 0.51119
726 1 0.244936 0.577212 0.661061
660 1 0.33336 0.569246 0.591136
730 1 0.411701 0.569296 0.661168
664 1 0.497394 0.56746 0.580784
683 1 0.409729 0.650877 0.574056
681 1 0.335897 0.664711 0.504055
663 1 0.59388 0.510661 0.580322
685 1 0.502684 0.657419 0.51008
734 1 0.57967 0.578921 0.665119
757 1 0.503937 0.645996 0.654826
667 1 0.74286 0.512305 0.567252
668 1 0.673202 0.596631 0.555331
738 1 0.746167 0.589069 0.647328
741 1 0.824526 0.503184 0.65494
672 1 0.835308 0.585819 0.563632
742 1 0.918752 0.581733 0.664712
675 1 0.0812774 0.679217 0.567392
745 1 0.0129643 0.671374 0.663735
746 1 0.0921501 0.752591 0.645158
769 1 0.0110993 0.829789 0.64853
679 1 0.245533 0.683844 0.599814
680 1 0.178007 0.757991 0.566816
684 1 0.332565 0.748029 0.57452
682 1 0.435197 0.738731 0.508592
754 1 0.429861 0.745948 0.646086
777 1 0.335471 0.8285 0.665526
753 1 0.33627 0.674609 0.650845
705 1 0.347888 0.830946 0.507226
688 1 0.510196 0.779176 0.58024
687 1 0.592665 0.668737 0.586497
686 1 0.570452 0.739654 0.50524
758 1 0.587063 0.753584 0.661191
713 1 0.669752 0.821913 0.501334
692 1 0.670616 0.753369 0.590472
691 1 0.758525 0.670624 0.576655
762 1 0.762953 0.751062 0.654344
715 1 0.745969 0.833056 0.578471
761 1 0.668791 0.670465 0.659955
789 1 0.829605 0.825038 0.658793
717 1 0.831127 0.821562 0.507968
676 1 0.99799 0.73558 0.577432
696 1 0.845953 0.739274 0.581949
695 1 0.915907 0.668703 0.584831
766 1 0.927673 0.749479 0.66039
719 1 0.925574 0.825003 0.56925
699 1 0.0757572 0.834958 0.562259
770 1 0.0722747 0.913473 0.650385
703 1 0.25134 0.841842 0.566668
704 1 0.167969 0.927461 0.565259
773 1 0.180992 0.839022 0.657939
774 1 0.246242 0.924375 0.655461
223 1 0.248705 0.999037 0.570539
707 1 0.404264 0.837858 0.594002
708 1 0.336833 0.934073 0.579473
781 1 0.494821 0.846758 0.663303
301 1 0.498348 0.994033 0.663463
778 1 0.41442 0.910172 0.664171
227 1 0.428795 0.994594 0.591537
706 1 0.419387 0.936704 0.500114
712 1 0.500605 0.915633 0.574121
711 1 0.599739 0.845061 0.586317
782 1 0.585288 0.928082 0.648071
231 1 0.585468 0.999594 0.58033
714 1 0.749408 0.909366 0.501378
716 1 0.6757 0.918291 0.582956
786 1 0.753197 0.928054 0.662403
720 1 0.825875 0.908277 0.589982
700 1 0.986702 0.926915 0.575553
790 1 0.919415 0.919088 0.652508
718 1 0.906963 0.926797 0.500035
797 1 0.162444 0.509519 0.822391
728 1 0.157465 0.581344 0.754779
723 1 0.0720245 0.51255 0.744922
732 1 0.331313 0.577984 0.741799
751 1 0.241624 0.661193 0.734911
821 1 0.180926 0.660934 0.831285
798 1 0.241018 0.580636 0.831998
736 1 0.495778 0.584881 0.736383
755 1 0.420375 0.65514 0.750414
802 1 0.415425 0.578023 0.818146
825 1 0.343813 0.662456 0.827162
829 1 0.496378 0.663298 0.826379
809 1 0.664657 0.506029 0.831803
806 1 0.57094 0.589226 0.823612
805 1 0.507631 0.503208 0.809406
740 1 0.66954 0.585999 0.730106
744 1 0.825558 0.568041 0.736348
810 1 0.752164 0.583226 0.828907
763 1 0.760375 0.662353 0.742528
765 1 0.838726 0.652265 0.667443
724 1 0.980014 0.581612 0.761983
814 1 0.900246 0.581005 0.831127
721 1 0.992728 0.509387 0.672224
747 1 0.0869599 0.675124 0.747102
748 1 0.00708581 0.757835 0.749622
771 1 0.0956824 0.830946 0.729131
818 1 0.0817888 0.754491 0.822512
845 1 0.162469 0.833035 0.830731
752 1 0.168217 0.755141 0.745646
750 1 0.249241 0.757594 0.673521
822 1 0.255414 0.739162 0.826841
756 1 0.339701 0.756985 0.766926
779 1 0.420991 0.823939 0.736461
826 1 0.43279 0.751665 0.825997
760 1 0.50262 0.755873 0.735578
759 1 0.587814 0.677458 0.740663
783 1 0.587532 0.831053 0.745779
830 1 0.585391 0.753568 0.825818
764 1 0.668098 0.74758 0.751851
834 1 0.75262 0.739023 0.833017
768 1 0.820769 0.763308 0.745741
785 1 0.674682 0.824911 0.681495
767 1 0.928279 0.677795 0.742631
837 1 0.836266 0.670821 0.829976
817 1 0.994906 0.672266 0.826098
838 1 0.916094 0.751813 0.816628
791 1 0.929575 0.830497 0.731916
861 1 0.835101 0.820056 0.829155
842 1 0.0689439 0.90001 0.826997
776 1 0.15685 0.911135 0.747987
772 1 0.00849944 0.917051 0.735069
775 1 0.25629 0.844267 0.744639
295 1 0.253883 0.988067 0.755316
299 1 0.425232 0.980693 0.743673
780 1 0.347299 0.904321 0.75161
784 1 0.501257 0.909134 0.746269
788 1 0.657338 0.921231 0.754743
787 1 0.750835 0.847378 0.757417
307 1 0.744186 0.991744 0.763927
361 1 0.994255 0.996734 0.821033
311 1 0.907157 0.989387 0.754344
309 1 0.835849 0.994612 0.671303
792 1 0.842143 0.900181 0.743594
862 1 0.925334 0.919422 0.827087
795 1 0.0855755 0.517576 0.911467
794 1 0.0911499 0.608056 0.841958
434 1 0.0714109 0.587246 0.994638
800 1 0.17394 0.587485 0.913564
804 1 0.331068 0.570488 0.897906
438 1 0.257306 0.5919 0.996389
799 1 0.248126 0.505771 0.91906
808 1 0.496267 0.590282 0.911591
442 1 0.411003 0.579934 0.996144
812 1 0.6571 0.58604 0.914478
807 1 0.577807 0.50766 0.915143
446 1 0.580797 0.587003 0.98901
811 1 0.76113 0.501813 0.931372
473 1 0.6692 0.66249 0.992906
433 1 0.998962 0.502055 0.993706
454 1 0.923267 0.584308 0.998829
815 1 0.916119 0.500099 0.906547
796 1 0.996913 0.595796 0.912068
816 1 0.843637 0.581408 0.917597
839 1 0.916511 0.66445 0.924167
458 1 0.107117 0.762295 0.992214
819 1 0.0896773 0.668042 0.926297
823 1 0.256417 0.667849 0.926904
824 1 0.175567 0.745908 0.907975
847 1 0.260074 0.827374 0.909565
828 1 0.328399 0.756529 0.914767
462 1 0.254144 0.749571 0.996297
466 1 0.421585 0.759931 0.986898
465 1 0.337207 0.673594 0.990379
469 1 0.499661 0.671915 0.996012
827 1 0.400532 0.670817 0.913385
832 1 0.523491 0.752768 0.910131
831 1 0.586001 0.667397 0.917012
836 1 0.665798 0.75346 0.915817
833 1 0.66858 0.66667 0.836089
835 1 0.755574 0.673363 0.921281
478 1 0.921473 0.750369 0.996643
820 1 0.991358 0.739925 0.914982
841 1 0.988317 0.826108 0.845032
840 1 0.848843 0.743183 0.917499
844 1 0.00872395 0.925783 0.911194
482 1 0.0729952 0.917679 0.992341
485 1 0.163691 0.85311 0.997105
848 1 0.158079 0.918652 0.891187
843 1 0.0791273 0.84063 0.919728
5 1 0.163662 0.994066 0.993002
846 1 0.251761 0.911365 0.842208
367 1 0.240545 0.993225 0.905885
486 1 0.253658 0.928035 0.990653
489 1 0.329328 0.839058 0.988448
852 1 0.337784 0.92529 0.913937
9 1 0.345176 0.999885 0.992916
856 1 0.499275 0.922398 0.923499
851 1 0.417648 0.84385 0.920954
849 1 0.348981 0.839252 0.837539
850 1 0.415651 0.925481 0.833785
490 1 0.416073 0.924241 0.992766
855 1 0.587879 0.837059 0.922611
373 1 0.506142 0.992868 0.837573
860 1 0.658907 0.930941 0.930062
377 1 0.654388 0.994256 0.840993
854 1 0.585829 0.912131 0.839166
853 1 0.501232 0.837165 0.853314
493 1 0.500568 0.838327 0.993541
381 1 0.830566 0.993055 0.843046
379 1 0.756277 0.981837 0.931296
857 1 0.673232 0.833384 0.837119
858 1 0.742174 0.916953 0.847522
859 1 0.760298 0.833501 0.926588
864 1 0.845393 0.905496 0.912159
501 1 0.842748 0.84116 0.998045
863 1 0.92908 0.835382 0.932257
