ITEM: TIMESTEP
250
ITEM: NUMBER OF ATOMS
864
ITEM: BOX BOUNDS pp pp pp
0.0000000000000000e+00 3.1559999999999999e+01
0.0000000000000000e+00 3.1559999999999999e+01
0.0000000000000000e+00 3.1559999999999999e+01
ITEM: ATOMS id type xs ys zs
577 1 0.987856 0.494553 0.326782
282 1 0.748479 0.418655 0.496996
258 1 0.749615 0.25205 0.492843
4 1 0.00629998 0.0675314 0.0831408
507 1 0.076947 0.493296 0.267598
77 1 0.166043 0.00176264 0.163385
216 1 0.826019 0.416807 0.412722
8 1 0.166971 0.0708039 0.0765278
93 1 0.827243 0.00656745 0.161626
583 1 0.253972 0.49713 0.412245
215 1 0.914997 0.340088 0.431691
12 1 0.340031 0.0995466 0.075662
234 1 0.739109 0.0719873 0.493877
14 1 0.577686 0.094117 0.0107685
214 1 0.919744 0.419504 0.345788
16 1 0.49211 0.064791 0.0785735
213 1 0.844128 0.333195 0.343737
18 1 0.753094 0.0825568 0.00123619
7 1 0.267105 0.00487754 0.0724386
20 1 0.664176 0.0741195 0.0782058
212 1 0.662433 0.423423 0.422198
525 1 0.819065 0.493576 0.158588
211 1 0.762502 0.322529 0.421967
24 1 0.830807 0.07215 0.0780574
25 1 0.00782739 0.161688 0.00432962
91 1 0.753867 0.00775497 0.246856
27 1 0.0881054 0.157977 0.0796066
28 1 0.0115005 0.24423 0.0854268
521 1 0.677683 0.492539 0.160708
515 1 0.407606 0.488302 0.259664
31 1 0.253383 0.158392 0.0722893
32 1 0.156482 0.240922 0.0923693
513 1 0.329795 0.496612 0.156119
13 1 0.518515 0.00196501 0.00159773
35 1 0.415886 0.172468 0.0822021
36 1 0.321095 0.258072 0.0796264
523 1 0.752673 0.495111 0.250997
455 1 0.922593 0.498235 0.0915712
39 1 0.588624 0.175821 0.0775372
40 1 0.506893 0.273436 0.0819266
661 1 0.504519 0.496226 0.497274
42 1 0.749222 0.258255 0.010838
43 1 0.74187 0.17129 0.0683495
44 1 0.658011 0.257242 0.0836828
45 1 0.838146 0.171598 0.0111761
443 1 0.413367 0.491442 0.0943593
47 1 0.923887 0.164236 0.0772865
48 1 0.845601 0.249083 0.0860892
49 1 0.0164717 0.332711 0.00621123
254 1 0.591894 0.245409 0.483752
51 1 0.0860686 0.340056 0.0750379
52 1 0.00341021 0.414819 0.078671
435 1 0.0844779 0.494688 0.0794868
585 1 0.324503 0.49929 0.333583
55 1 0.233692 0.326877 0.0817673
56 1 0.166681 0.406348 0.0835216
161 1 0.663197 0.00686425 0.325909
199 1 0.26625 0.333654 0.413353
59 1 0.411316 0.322113 0.0902197
60 1 0.338855 0.403395 0.080193
198 1 0.252574 0.41841 0.331426
197 1 0.176202 0.336381 0.323341
63 1 0.586086 0.342511 0.0890616
64 1 0.495115 0.423782 0.071968
65 1 0.670435 0.333271 0.0068915
196 1 0.0137051 0.417001 0.415031
67 1 0.761409 0.334036 0.0846717
68 1 0.670217 0.414905 0.0840001
653 1 0.166124 0.497475 0.489451
195 1 0.0982256 0.33288 0.400115
71 1 0.935024 0.322157 0.0759316
72 1 0.848326 0.404649 0.0833997
210 1 0.745863 0.426272 0.342312
74 1 0.082342 0.077917 0.168741
75 1 0.0817491 0.00482603 0.246912
76 1 0.994676 0.0813843 0.251531
29 1 0.170341 0.164093 0.00500975
78 1 0.249333 0.0657156 0.160783
439 1 0.250553 0.492525 0.0886851
80 1 0.162969 0.0861326 0.250438
209 1 0.685113 0.330588 0.345341
82 1 0.400042 0.0947978 0.162148
208 1 0.498715 0.407278 0.430002
84 1 0.329628 0.0906039 0.256058
153 1 0.339455 0.00113682 0.324227
86 1 0.59168 0.084606 0.168001
277 1 0.519985 0.321296 0.496585
88 1 0.48845 0.0965408 0.241932
207 1 0.59006 0.341215 0.41524
90 1 0.754273 0.0905301 0.154737
206 1 0.58466 0.4318 0.347757
92 1 0.671664 0.0806765 0.25118
242 1 0.0989035 0.259241 0.487243
94 1 0.931013 0.0859087 0.161696
205 1 0.515691 0.338232 0.334471
96 1 0.838632 0.0885767 0.227883
97 1 0.00202933 0.16314 0.165975
98 1 0.0827529 0.242697 0.174686
99 1 0.0875417 0.167635 0.254847
100 1 0.999492 0.247365 0.248319
101 1 0.179537 0.160577 0.170394
102 1 0.249333 0.257812 0.180637
103 1 0.253012 0.174527 0.251516
104 1 0.164567 0.252719 0.256339
105 1 0.318922 0.169123 0.163926
106 1 0.430864 0.240588 0.173993
107 1 0.415515 0.172043 0.261937
108 1 0.337622 0.256669 0.243732
109 1 0.516564 0.163262 0.164561
110 1 0.578552 0.24832 0.16565
111 1 0.596305 0.164513 0.24567
112 1 0.501021 0.250295 0.254091
113 1 0.671907 0.163102 0.159933
114 1 0.756872 0.237375 0.153798
115 1 0.753304 0.155461 0.235925
116 1 0.682397 0.24544 0.246531
117 1 0.836471 0.156775 0.146122
118 1 0.929023 0.255808 0.164785
119 1 0.912658 0.168264 0.243914
120 1 0.831869 0.244187 0.237568
121 1 0.00669419 0.336284 0.167945
122 1 0.0879724 0.410958 0.172313
123 1 0.0797488 0.325121 0.252482
124 1 0.997704 0.416507 0.25361
125 1 0.157527 0.330724 0.169867
126 1 0.248211 0.405321 0.154873
127 1 0.242658 0.341225 0.241956
128 1 0.167979 0.423362 0.253115
129 1 0.332221 0.334619 0.164134
130 1 0.42041 0.414028 0.162644
131 1 0.403185 0.343414 0.244339
132 1 0.327901 0.426379 0.240033
133 1 0.498877 0.329863 0.179957
134 1 0.576458 0.422156 0.163121
135 1 0.581505 0.355318 0.25573
136 1 0.488469 0.413123 0.247503
137 1 0.663577 0.330288 0.167073
138 1 0.748557 0.408491 0.159795
139 1 0.775619 0.336189 0.269174
140 1 0.662346 0.419026 0.266532
141 1 0.834251 0.329776 0.176931
142 1 0.916089 0.413333 0.16304
143 1 0.918186 0.339139 0.266122
144 1 0.843529 0.421727 0.247931
204 1 0.337416 0.424657 0.415789
146 1 0.078741 0.087748 0.337421
33 1 0.329903 0.189316 0.00296013
148 1 0.00902857 0.0815761 0.429951
203 1 0.423338 0.332419 0.418356
150 1 0.242522 0.0802252 0.326315
69 1 0.83633 0.324438 0.00320314
152 1 0.168101 0.0698002 0.414163
241 1 0.0125607 0.187332 0.499312
154 1 0.417114 0.0782278 0.329318
155 1 0.401986 0.0029901 0.414751
156 1 0.328406 0.0816488 0.412587
202 1 0.420497 0.415515 0.344724
158 1 0.581482 0.0670895 0.326833
87 1 0.576042 0.000846432 0.253686
160 1 0.48739 0.0801009 0.416071
11 1 0.393083 0.00022443 0.0828191
162 1 0.761695 0.0812509 0.331033
201 1 0.340997 0.345909 0.335934
164 1 0.669123 0.0742362 0.408421
200 1 0.179373 0.41254 0.412535
166 1 0.924731 0.0749017 0.327658
226 1 0.418241 0.0941432 0.494319
168 1 0.849356 0.0827852 0.419175
169 1 0.996931 0.159024 0.333446
170 1 0.0776164 0.239695 0.325193
171 1 0.0782116 0.171194 0.41039
172 1 0.0200813 0.254127 0.412594
173 1 0.166385 0.162721 0.327761
174 1 0.26138 0.256098 0.3212
175 1 0.247176 0.179987 0.415922
176 1 0.160611 0.243595 0.395116
177 1 0.330941 0.171608 0.325501
178 1 0.425176 0.260532 0.332496
179 1 0.423183 0.167518 0.406356
180 1 0.336511 0.247574 0.41485
181 1 0.49883 0.158131 0.326184
182 1 0.583393 0.246994 0.334449
183 1 0.572773 0.157364 0.39783
184 1 0.500644 0.262152 0.408647
185 1 0.67235 0.162689 0.328042
186 1 0.783759 0.242861 0.338859
187 1 0.756785 0.163338 0.41414
188 1 0.67093 0.248874 0.410391
189 1 0.855247 0.163783 0.330607
190 1 0.918875 0.255401 0.34932
191 1 0.921448 0.163317 0.428416
192 1 0.834221 0.236294 0.437037
193 1 0.00358337 0.33031 0.335286
194 1 0.087508 0.416156 0.340626
222 1 0.256711 0.0884841 0.489577
519 1 0.580972 0.497794 0.252397
230 1 0.576006 0.093687 0.490362
249 1 0.336733 0.18323 0.496955
61 1 0.474398 0.338392 0.000496785
589 1 0.496419 0.497146 0.329071
245 1 0.1613 0.170874 0.486274
246 1 0.241035 0.254218 0.493907
253 1 0.503346 0.178888 0.473664
38 1 0.58629 0.25797 0.00231208
257 1 0.670324 0.159443 0.489119
265 1 0.0135668 0.336466 0.491801
70 1 0.917435 0.418547 0.00450764
266 1 0.0942574 0.42101 0.495047
649 1 0.998928 0.494763 0.484523
269 1 0.166464 0.331301 0.492136
273 1 0.342891 0.322684 0.498249
281 1 0.669614 0.328897 0.487575
54 1 0.257323 0.402716 0.0104666
159 1 0.583609 0.0057832 0.429179
447 1 0.596768 0.496784 0.064432
83 1 0.41463 0.00205485 0.249925
165 1 0.835709 0.0110693 0.350416
85 1 0.497873 0.0172344 0.17019
451 1 0.761756 0.49977 0.0758315
432 1 0.838555 0.415894 0.92446
801 1 0.334595 0.494191 0.833161
250 1 0.438678 0.252296 0.511024
220 1 0.00773451 0.0860745 0.582049
431 1 0.919382 0.32801 0.925385
286 1 0.925404 0.418397 0.50756
223 1 0.242793 0.00298845 0.579614
224 1 0.168663 0.0768538 0.568284
428 1 0.666632 0.418039 0.917695
805 1 0.49648 0.487489 0.828845
227 1 0.416081 0.0019514 0.58528
228 1 0.334566 0.0732093 0.58989
239 1 0.906563 0.00591927 0.592608
10 1 0.430887 0.0880366 0.985356
231 1 0.573332 0.00819974 0.572868
232 1 0.499812 0.0852944 0.578126
218 1 0.0947952 0.0822161 0.501471
737 1 0.675173 0.49166 0.691016
427 1 0.751736 0.328592 0.906528
236 1 0.656753 0.0865258 0.585471
375 1 0.578255 0.00141303 0.911796
238 1 0.918996 0.0798954 0.501025
424 1 0.51412 0.411112 0.914171
240 1 0.818102 0.0754099 0.573004
233 1 0.661384 0.00876293 0.516092
813 1 0.838568 0.491795 0.833352
243 1 0.0858068 0.165746 0.588572
244 1 0.00453673 0.262767 0.576061
731 1 0.416688 0.491784 0.746342
274 1 0.410696 0.408451 0.501614
247 1 0.248847 0.165319 0.570004
248 1 0.170412 0.250481 0.579913
795 1 0.0737062 0.49868 0.922405
57 1 0.332692 0.33241 0.999656
251 1 0.420361 0.162108 0.579766
252 1 0.330726 0.255996 0.578894
665 1 0.657217 0.496767 0.511136
663 1 0.575605 0.493138 0.592596
255 1 0.585988 0.167133 0.571689
256 1 0.511732 0.255592 0.577586
50 1 0.0778886 0.417156 0.998732
659 1 0.426147 0.48895 0.58575
259 1 0.745296 0.163702 0.585342
260 1 0.669727 0.260981 0.582088
17 1 0.659299 0.00864419 0.993591
262 1 0.925549 0.249914 0.502903
263 1 0.907493 0.153433 0.581872
264 1 0.844495 0.240568 0.595481
655 1 0.272924 0.493681 0.58944
396 1 0.321684 0.266488 0.909988
267 1 0.0791425 0.328752 0.584307
268 1 0.014811 0.42483 0.576711
395 1 0.391731 0.174959 0.917191
449 1 0.670143 0.490091 0.994364
271 1 0.247674 0.332809 0.577122
272 1 0.164741 0.423269 0.586106
392 1 0.171373 0.252449 0.910803
739 1 0.760697 0.494683 0.752261
275 1 0.420282 0.332568 0.594355
276 1 0.340664 0.401262 0.583966
391 1 0.252392 0.168793 0.918568
278 1 0.592246 0.411425 0.508984
279 1 0.589319 0.328923 0.581783
280 1 0.51276 0.398999 0.571803
388 1 0.0163765 0.265905 0.913298
387 1 0.082906 0.173941 0.914631
283 1 0.745432 0.336145 0.582053
284 1 0.672245 0.417513 0.592176
384 1 0.842321 0.0948805 0.920218
383 1 0.916899 0.00533039 0.916962
287 1 0.91084 0.331294 0.581199
288 1 0.840666 0.425754 0.58135
22 1 0.921347 0.0717683 0.995734
290 1 0.0913753 0.0733662 0.667129
423 1 0.603299 0.335533 0.92088
292 1 0.997511 0.0793059 0.756942
420 1 0.330622 0.418526 0.917006
362 1 0.0732399 0.09038 0.832254
419 1 0.403588 0.334751 0.917794
294 1 0.243013 0.0817488 0.669438
437 1 0.161032 0.49779 0.997581
296 1 0.164166 0.0887775 0.746623
725 1 0.17209 0.489366 0.68394
366 1 0.22886 0.0694373 0.832616
416 1 0.155769 0.436089 0.912309
298 1 0.41639 0.0892049 0.668309
299 1 0.401577 0.00702837 0.750035
300 1 0.326982 0.0828758 0.742204
415 1 0.246165 0.347494 0.910341
370 1 0.419381 0.0813151 0.825306
412 1 0.999292 0.406001 0.927555
302 1 0.573704 0.0893047 0.663263
303 1 0.583152 0.0137157 0.747181
304 1 0.49539 0.0814392 0.745844
411 1 0.0839279 0.343408 0.906474
374 1 0.575128 0.0740687 0.836041
270 1 0.248284 0.416768 0.500561
306 1 0.755792 0.0757086 0.66206
408 1 0.835531 0.254719 0.914724
308 1 0.662994 0.10019 0.752425
407 1 0.92919 0.161603 0.924473
378 1 0.755429 0.071152 0.83294
404 1 0.680863 0.244253 0.916022
310 1 0.929328 0.0866779 0.668968
667 1 0.752014 0.494815 0.579175
312 1 0.834957 0.0814083 0.754717
403 1 0.758027 0.174012 0.924212
382 1 0.909132 0.0736909 0.829394
313 1 0.000801217 0.176305 0.654412
314 1 0.0987284 0.250389 0.659211
315 1 0.0755685 0.168945 0.732881
316 1 0.999784 0.261087 0.755115
385 1 0.00310661 0.178305 0.840704
386 1 0.0954266 0.25177 0.828183
317 1 0.171998 0.160146 0.669342
318 1 0.24692 0.247196 0.655304
319 1 0.250914 0.157742 0.749852
320 1 0.164432 0.236295 0.73973
389 1 0.171341 0.170784 0.832544
390 1 0.248228 0.246024 0.824532
321 1 0.333718 0.164642 0.654985
322 1 0.421418 0.245007 0.675039
323 1 0.407456 0.168932 0.752831
324 1 0.328465 0.246936 0.729497
393 1 0.322949 0.172558 0.833846
394 1 0.396861 0.257874 0.832052
325 1 0.501185 0.179054 0.666019
326 1 0.593648 0.237426 0.663967
327 1 0.575619 0.157604 0.762919
328 1 0.499319 0.250953 0.762482
397 1 0.497894 0.165107 0.850327
398 1 0.572702 0.261629 0.839047
329 1 0.687499 0.167925 0.665519
330 1 0.751936 0.263575 0.664756
331 1 0.756538 0.158281 0.740844
332 1 0.676103 0.245319 0.745858
401 1 0.675161 0.171114 0.831064
402 1 0.758754 0.242013 0.833877
333 1 0.829689 0.151095 0.656393
334 1 0.935405 0.259268 0.667727
335 1 0.930573 0.168724 0.756625
336 1 0.841756 0.255669 0.746874
405 1 0.849875 0.174301 0.828389
406 1 0.928353 0.252386 0.831547
337 1 0.0012492 0.346058 0.653306
338 1 0.0761022 0.420163 0.664083
339 1 0.0899286 0.328248 0.746881
340 1 0.0227284 0.422636 0.749061
409 1 0.00995488 0.34672 0.832202
410 1 0.0870306 0.428 0.836728
341 1 0.165436 0.346559 0.659828
342 1 0.259219 0.419937 0.665516
343 1 0.245719 0.328915 0.738477
344 1 0.162392 0.410383 0.752643
413 1 0.165046 0.33625 0.830664
414 1 0.256138 0.417142 0.818495
345 1 0.329041 0.33247 0.663549
346 1 0.429434 0.409855 0.668606
347 1 0.417959 0.323684 0.750994
348 1 0.343778 0.41133 0.749979
417 1 0.327168 0.336908 0.827559
418 1 0.41121 0.411015 0.843594
349 1 0.520117 0.328017 0.65915
350 1 0.594538 0.41888 0.678382
351 1 0.593533 0.334586 0.7576
352 1 0.505343 0.408201 0.744401
421 1 0.497837 0.334786 0.843465
422 1 0.589298 0.414334 0.827092
353 1 0.664758 0.336349 0.678681
354 1 0.754381 0.411576 0.655007
355 1 0.753171 0.325668 0.759944
356 1 0.676764 0.413902 0.757565
425 1 0.6717 0.339295 0.836148
426 1 0.755847 0.422789 0.846202
357 1 0.832377 0.325983 0.662206
358 1 0.909754 0.41206 0.655548
359 1 0.921381 0.350616 0.753339
360 1 0.828125 0.410618 0.760866
429 1 0.844828 0.330874 0.836413
430 1 0.92567 0.418395 0.840314
400 1 0.500954 0.256182 0.919149
364 1 0.0032098 0.0735731 0.911583
399 1 0.593155 0.166425 0.901928
368 1 0.154333 0.0956087 0.903414
34 1 0.414975 0.256105 0.997878
372 1 0.324226 0.0893634 0.919246
727 1 0.261873 0.498824 0.750541
376 1 0.511041 0.0809799 0.921903
229 1 0.489953 0.00744713 0.502064
380 1 0.667413 0.0822799 0.919693
2 1 0.0843973 0.0843392 0.983655
6 1 0.239173 0.0659373 0.986545
9 1 0.346979 0.0148398 0.993667
37 1 0.502694 0.167424 0.989221
799 1 0.251561 0.498146 0.914517
671 1 0.925856 0.497668 0.575052
26 1 0.088681 0.252747 0.99762
30 1 0.2394 0.25898 0.987434
46 1 0.941341 0.243068 0.985111
309 1 0.837226 0.00079451 0.672502
41 1 0.659937 0.166798 0.989435
225 1 0.334981 0.00656985 0.500772
53 1 0.162149 0.337883 0.983606
379 1 0.74903 0.00116983 0.913903
733 1 0.510153 0.485061 0.671148
58 1 0.403115 0.424555 0.992644
433 1 0.991365 0.493936 0.990438
373 1 0.488736 0.001922 0.821331
62 1 0.587584 0.422954 0.988031
291 1 0.075172 0.00742228 0.752466
815 1 0.923876 0.498276 0.910925
285 1 0.831752 0.342701 0.511456
377 1 0.655085 0.00501292 0.828644
66 1 0.762931 0.424772 0.999478
261 1 0.831884 0.154456 0.500222
648 1 0.835746 0.898574 0.43925
678 1 0.240378 0.741636 0.491679
646 1 0.919009 0.91247 0.330301
436 1 0.0101361 0.567007 0.0865523
81 1 0.330055 0.994335 0.175975
434 1 0.0763564 0.575956 0.0025716
454 1 0.931683 0.584606 0.00603181
440 1 0.150004 0.581675 0.0881348
644 1 0.665397 0.919935 0.421696
15 1 0.588811 0.999579 0.0763615
89 1 0.669663 0.994063 0.15176
444 1 0.330303 0.577535 0.0782296
461 1 0.176908 0.657177 0.00691868
157 1 0.485912 0.993366 0.337491
221 1 0.169012 0.986127 0.496276
448 1 0.494273 0.573133 0.0754809
642 1 0.748348 0.928816 0.340968
685 1 0.492028 0.656731 0.498144
640 1 0.496026 0.932477 0.423655
452 1 0.672127 0.575516 0.082657
638 1 0.570636 0.923429 0.334763
702 1 0.243225 0.914628 0.491957
636 1 0.331757 0.904124 0.427523
456 1 0.840445 0.584205 0.0865242
658 1 0.414082 0.576236 0.496751
458 1 0.0790456 0.751 0.000586863
459 1 0.0820527 0.669946 0.0750041
460 1 0.00459735 0.754711 0.0856861
481 1 0.995628 0.830372 0.00968163
483 1 0.077065 0.841404 0.0899038
149 1 0.167857 0.984712 0.330861
145 1 0.00246921 0.994241 0.330518
463 1 0.25317 0.658584 0.0926245
464 1 0.18258 0.759552 0.0680022
681 1 0.33065 0.669817 0.494499
487 1 0.242797 0.839201 0.0711147
167 1 0.922869 0.989549 0.411018
466 1 0.423029 0.741067 0.0169369
467 1 0.419912 0.644165 0.0772594
468 1 0.331859 0.754173 0.0749367
489 1 0.327807 0.82528 0.00186351
491 1 0.420214 0.837903 0.0755411
79 1 0.234642 0.99621 0.244221
163 1 0.748739 0.986965 0.42598
471 1 0.582644 0.661126 0.0802631
472 1 0.496955 0.729548 0.0967356
527 1 0.912104 0.501574 0.244327
495 1 0.579837 0.827089 0.0788259
657 1 0.33301 0.506712 0.497969
517 1 0.491141 0.50486 0.163698
475 1 0.753834 0.665637 0.0744274
476 1 0.666903 0.737246 0.0834852
19 1 0.740735 0.995029 0.0708916
499 1 0.75287 0.846964 0.0756896
595 1 0.736638 0.501864 0.417914
73 1 0.99894 0.997628 0.174425
479 1 0.925957 0.663176 0.0744083
480 1 0.830741 0.769948 0.0800877
23 1 0.91861 0.999754 0.0830522
503 1 0.913855 0.83952 0.0932501
482 1 0.0679581 0.915454 0.00682253
484 1 0.997365 0.923612 0.08677
95 1 0.911413 0.997767 0.250358
488 1 0.154581 0.910322 0.0813481
490 1 0.427 0.922726 0.00733208
492 1 0.324907 0.915474 0.0650593
465 1 0.334439 0.661908 0.0103174
496 1 0.500421 0.915441 0.0815061
718 1 0.923008 0.916521 0.497945
500 1 0.657192 0.907691 0.082033
502 1 0.921191 0.912383 0.00409047
504 1 0.819915 0.926221 0.0871799
505 1 0.00611319 0.508469 0.175926
506 1 0.0943074 0.586655 0.178704
597 1 0.832521 0.502326 0.335426
508 1 0.00602718 0.599361 0.245952
3 1 0.0773144 0.997709 0.0880076
510 1 0.240083 0.585879 0.171656
511 1 0.23773 0.502962 0.247357
512 1 0.161712 0.575007 0.254046
634 1 0.402793 0.91375 0.345523
514 1 0.420946 0.595773 0.177961
632 1 0.166634 0.909024 0.417549
516 1 0.322061 0.575554 0.244968
509 1 0.16747 0.500537 0.169472
518 1 0.584669 0.550922 0.157302
630 1 0.242941 0.90275 0.348308
520 1 0.509448 0.574165 0.246767
147 1 0.0882889 0.999599 0.422914
522 1 0.756334 0.590061 0.155671
474 1 0.763972 0.744843 0.00264169
524 1 0.67359 0.569731 0.248736
628 1 0.0067685 0.915216 0.418991
526 1 0.912208 0.579064 0.166755
626 1 0.0811022 0.913015 0.320395
528 1 0.832021 0.586804 0.250592
529 1 0.00186069 0.658107 0.156562
530 1 0.0829619 0.752273 0.160697
531 1 0.085053 0.671805 0.251494
532 1 0.000654147 0.756491 0.246362
553 1 0.00156572 0.825212 0.167246
555 1 0.0891063 0.822626 0.25608
533 1 0.164555 0.668397 0.178418
534 1 0.257099 0.746676 0.165134
535 1 0.242842 0.6643 0.241004
536 1 0.167741 0.746601 0.253353
557 1 0.167069 0.826051 0.164868
559 1 0.255632 0.818673 0.249484
537 1 0.336884 0.671133 0.174256
538 1 0.407808 0.754564 0.156036
539 1 0.419003 0.671347 0.254852
540 1 0.34491 0.760945 0.243045
561 1 0.330107 0.837004 0.156539
563 1 0.410818 0.838193 0.239762
541 1 0.512499 0.659707 0.180764
542 1 0.584916 0.755576 0.173022
543 1 0.588604 0.658031 0.257119
544 1 0.504771 0.753007 0.239979
565 1 0.497232 0.828597 0.162952
567 1 0.588802 0.839634 0.246011
545 1 0.643973 0.649906 0.164128
546 1 0.750064 0.751205 0.164773
547 1 0.732845 0.656602 0.251851
548 1 0.670211 0.739353 0.257779
569 1 0.68081 0.832975 0.159606
571 1 0.740459 0.828255 0.269814
549 1 0.83676 0.677501 0.158756
550 1 0.91186 0.760889 0.17081
551 1 0.917643 0.673923 0.22571
552 1 0.825535 0.771917 0.247574
573 1 0.841502 0.844321 0.169314
575 1 0.914927 0.839134 0.24895
554 1 0.0716321 0.91271 0.175404
556 1 0.996002 0.929672 0.253468
558 1 0.249562 0.9147 0.162364
560 1 0.16881 0.912599 0.241273
562 1 0.407302 0.918714 0.16791
564 1 0.32393 0.906383 0.257334
566 1 0.58492 0.910936 0.166266
568 1 0.500282 0.919676 0.247649
570 1 0.758655 0.918442 0.171445
572 1 0.668949 0.915169 0.245755
574 1 0.913854 0.927108 0.162232
576 1 0.828768 0.926186 0.248208
697 1 0.996558 0.831462 0.492664
578 1 0.0865017 0.595144 0.327544
579 1 0.0813494 0.502694 0.410159
580 1 0.00358301 0.59847 0.413233
151 1 0.26073 0.988278 0.416235
582 1 0.247779 0.583769 0.33647
647 1 0.925361 0.840589 0.409694
584 1 0.173173 0.588112 0.419426
694 1 0.921185 0.758226 0.496754
586 1 0.416984 0.583927 0.316867
587 1 0.414099 0.507584 0.405694
588 1 0.332563 0.595498 0.396048
645 1 0.831399 0.839556 0.332659
590 1 0.576696 0.573831 0.336337
591 1 0.592291 0.515049 0.426558
592 1 0.498184 0.587448 0.424544
593 1 0.662854 0.520826 0.353423
594 1 0.755821 0.584567 0.336415
624 1 0.840988 0.751039 0.406548
596 1 0.666127 0.591974 0.430982
623 1 0.913661 0.671821 0.415708
598 1 0.926756 0.598074 0.328143
599 1 0.921991 0.506767 0.411576
600 1 0.837603 0.586229 0.416509
601 1 0.999524 0.674614 0.336043
602 1 0.0901966 0.744683 0.340941
603 1 0.0852625 0.67684 0.425043
604 1 0.00950569 0.75416 0.41709
625 1 0.0077056 0.837032 0.331007
627 1 0.0839511 0.836656 0.419554
605 1 0.167995 0.666664 0.323794
606 1 0.243273 0.75992 0.347813
607 1 0.251789 0.667236 0.408221
608 1 0.16155 0.750416 0.424552
629 1 0.169829 0.832221 0.344982
631 1 0.244721 0.834899 0.432462
609 1 0.322262 0.680982 0.31579
610 1 0.428574 0.749114 0.336995
611 1 0.421231 0.657044 0.415401
612 1 0.340565 0.763557 0.421242
633 1 0.332595 0.827208 0.334847
635 1 0.43184 0.837705 0.414925
613 1 0.494479 0.657426 0.330147
614 1 0.584648 0.74426 0.337498
615 1 0.575923 0.658419 0.415489
616 1 0.509305 0.754125 0.414564
637 1 0.497748 0.826151 0.326949
639 1 0.593131 0.833402 0.427016
617 1 0.650729 0.658319 0.3398
618 1 0.761838 0.727005 0.332246
619 1 0.754783 0.671337 0.423483
620 1 0.664215 0.740207 0.415933
641 1 0.671769 0.836796 0.342522
643 1 0.743002 0.816533 0.412806
621 1 0.841738 0.660635 0.327503
622 1 0.924126 0.762945 0.329417
693 1 0.840425 0.663487 0.498968
650 1 0.0735737 0.583705 0.498501
670 1 0.928471 0.579056 0.493652
669 1 0.838231 0.509083 0.495943
706 1 0.407925 0.916442 0.487884
5 1 0.159303 0.994741 0.00125068
581 1 0.161105 0.500415 0.349802
673 1 0.991507 0.688883 0.49903
485 1 0.154499 0.841417 0.000251831
864 1 0.83945 0.917378 0.913146
743 1 0.904567 0.503137 0.755245
305 1 0.661702 0.99154 0.67516
652 1 0.990943 0.585218 0.582121
450 1 0.754696 0.575184 0.999301
381 1 0.830378 0.994622 0.827098
860 1 0.665834 0.909063 0.925609
656 1 0.174612 0.574089 0.557546
856 1 0.506115 0.914889 0.925896
295 1 0.259958 0.991109 0.753453
723 1 0.0876065 0.51158 0.75039
660 1 0.336717 0.576454 0.579606
852 1 0.341496 0.916842 0.937682
662 1 0.579308 0.586764 0.508611
848 1 0.159426 0.914401 0.917958
664 1 0.501448 0.575235 0.578137
844 1 0.995766 0.90657 0.924386
478 1 0.908416 0.741464 0.998175
797 1 0.173551 0.500772 0.828303
668 1 0.660965 0.554347 0.593815
494 1 0.591556 0.911597 0.999177
21 1 0.835453 0.997059 0.993408
863 1 0.918 0.821434 0.92487
672 1 0.844145 0.577854 0.585739
453 1 0.850447 0.50419 0.997029
674 1 0.0775754 0.752166 0.503023
675 1 0.0703258 0.656262 0.582541
676 1 0.995617 0.743692 0.583072
713 1 0.670142 0.818278 0.501653
699 1 0.0783178 0.834298 0.579164
469 1 0.502621 0.65718 0.999699
307 1 0.746776 0.995392 0.743746
679 1 0.259193 0.660564 0.58858
680 1 0.16951 0.752623 0.576652
701 1 0.164222 0.84142 0.504555
703 1 0.253745 0.826857 0.57183
682 1 0.413038 0.753431 0.504766
237 1 0.844577 0.988795 0.517337
683 1 0.414767 0.659725 0.584073
684 1 0.332651 0.741733 0.585911
705 1 0.339649 0.824563 0.513433
707 1 0.421545 0.835169 0.587234
811 1 0.774914 0.501641 0.926332
301 1 0.489627 0.99006 0.655111
687 1 0.583068 0.661735 0.585226
688 1 0.512457 0.754104 0.587719
709 1 0.500595 0.82554 0.512829
711 1 0.583135 0.825679 0.590085
689 1 0.663681 0.666063 0.514235
690 1 0.756452 0.743567 0.511257
691 1 0.760633 0.655735 0.597577
692 1 0.663657 0.747415 0.581963
369 1 0.342913 0.990387 0.835479
715 1 0.753132 0.832134 0.581728
297 1 0.316164 0.993351 0.661628
457 1 0.00137655 0.673046 0.976558
695 1 0.910381 0.669636 0.585832
696 1 0.839265 0.749708 0.58803
501 1 0.835659 0.839939 0.99101
719 1 0.9264 0.83089 0.581665
698 1 0.082428 0.926148 0.501751
700 1 0.996738 0.92544 0.583429
371 1 0.43663 0.998538 0.920739
704 1 0.164566 0.916415 0.58936
361 1 0.997872 0.982303 0.834607
708 1 0.320277 0.912785 0.577428
438 1 0.242488 0.579352 0.988614
712 1 0.495191 0.92283 0.567875
363 1 0.0769829 0.9889 0.905337
716 1 0.662984 0.912672 0.593085
477 1 0.842087 0.64926 0.992861
720 1 0.843658 0.902373 0.588175
721 1 0.0121173 0.510001 0.673808
722 1 0.0962077 0.578732 0.659746
840 1 0.837223 0.748792 0.913796
724 1 0.0118357 0.590664 0.756763
793 1 0.999598 0.502814 0.840111
794 1 0.0905945 0.585499 0.834181
809 1 0.671503 0.506193 0.839526
726 1 0.243147 0.577024 0.658296
729 1 0.34484 0.500652 0.671047
728 1 0.179932 0.596378 0.747548
293 1 0.183671 0.998822 0.668878
798 1 0.257767 0.580922 0.838785
677 1 0.180355 0.664343 0.500601
730 1 0.424761 0.577535 0.659379
486 1 0.24854 0.926435 0.994149
732 1 0.33479 0.580939 0.747084
839 1 0.922699 0.670141 0.905207
802 1 0.421126 0.577053 0.826541
717 1 0.835427 0.825828 0.515173
734 1 0.579898 0.589103 0.676288
859 1 0.762977 0.819933 0.909759
736 1 0.491929 0.595759 0.73815
651 1 0.0986099 0.508666 0.576791
806 1 0.568672 0.579222 0.832723
836 1 0.677406 0.75016 0.90778
738 1 0.745416 0.565879 0.659244
217 1 0.000184981 0.995471 0.507419
740 1 0.65211 0.59068 0.753248
710 1 0.586671 0.923065 0.509803
810 1 0.760089 0.567465 0.829308
442 1 0.402242 0.571716 0.993882
742 1 0.923952 0.579483 0.668026
835 1 0.757156 0.669489 0.911269
744 1 0.829721 0.581121 0.740047
855 1 0.590498 0.826254 0.917052
814 1 0.925657 0.585029 0.818696
745 1 0.00381312 0.663749 0.676198
746 1 0.08516 0.728913 0.661366
747 1 0.0900628 0.655989 0.741569
748 1 0.999246 0.746414 0.76108
769 1 0.00575676 0.817854 0.677766
771 1 0.0831083 0.830288 0.75425
817 1 0.0123459 0.657692 0.840505
818 1 0.0809708 0.74822 0.833762
841 1 0.0101919 0.836745 0.83875
749 1 0.167286 0.661734 0.656367
750 1 0.241766 0.75232 0.66768
751 1 0.24895 0.666391 0.729246
752 1 0.16238 0.761178 0.7611
773 1 0.15455 0.836715 0.663746
775 1 0.251082 0.834687 0.742635
821 1 0.164541 0.657575 0.829996
822 1 0.259046 0.761429 0.82975
845 1 0.168096 0.82561 0.843994
753 1 0.357585 0.661031 0.676673
754 1 0.431079 0.738369 0.659412
755 1 0.419573 0.681183 0.757979
756 1 0.340449 0.757052 0.747054
777 1 0.326739 0.828952 0.659926
779 1 0.42129 0.834698 0.762873
825 1 0.339961 0.672523 0.830057
826 1 0.422285 0.751661 0.84392
849 1 0.331683 0.846375 0.852562
757 1 0.500987 0.656594 0.650194
758 1 0.592197 0.741594 0.660014
759 1 0.579207 0.673922 0.74091
760 1 0.507796 0.75446 0.751948
781 1 0.491232 0.834972 0.671106
783 1 0.585373 0.831811 0.746044
829 1 0.501782 0.660506 0.827407
830 1 0.598133 0.756572 0.826181
853 1 0.508613 0.83245 0.839008
761 1 0.680749 0.660168 0.66717
762 1 0.745564 0.763613 0.662194
763 1 0.745492 0.657369 0.757466
764 1 0.676868 0.740049 0.756288
785 1 0.658648 0.832501 0.662552
787 1 0.746322 0.847843 0.76803
833 1 0.660404 0.659105 0.837759
834 1 0.76152 0.749708 0.82246
857 1 0.667221 0.83855 0.835955
765 1 0.837388 0.664734 0.676568
766 1 0.921843 0.740383 0.661949
767 1 0.918195 0.666452 0.742679
768 1 0.833575 0.748506 0.742951
789 1 0.85403 0.825947 0.663137
791 1 0.92464 0.829316 0.761716
837 1 0.826997 0.672478 0.825816
838 1 0.90975 0.746421 0.833938
861 1 0.837614 0.839277 0.835339
770 1 0.0866498 0.924128 0.670231
772 1 0.99835 0.911071 0.752124
842 1 0.0949506 0.901741 0.8356
774 1 0.248104 0.906639 0.664078
776 1 0.177869 0.910823 0.751211
846 1 0.247721 0.910016 0.834786
778 1 0.4015 0.924207 0.653873
780 1 0.340885 0.909814 0.755701
850 1 0.418957 0.910316 0.842155
782 1 0.572499 0.920007 0.666262
784 1 0.498236 0.926043 0.74177
854 1 0.573998 0.92708 0.831367
786 1 0.751144 0.903264 0.679462
788 1 0.65447 0.913405 0.755259
858 1 0.743974 0.919242 0.839909
790 1 0.923645 0.903206 0.675177
792 1 0.828018 0.916102 0.758186
862 1 0.925294 0.909213 0.844833
832 1 0.497788 0.735906 0.917208
796 1 0.999751 0.584737 0.913968
219 1 0.072951 0.999397 0.581848
800 1 0.169483 0.573485 0.910691
803 1 0.412154 0.501891 0.905949
804 1 0.327492 0.581278 0.913955
807 1 0.593829 0.50369 0.910279
808 1 0.492115 0.583396 0.914543
654 1 0.260804 0.581851 0.503993
812 1 0.683142 0.572055 0.927645
1 1 0.998971 0.99493 0.989777
816 1 0.850105 0.582473 0.907843
819 1 0.0927814 0.653732 0.914267
820 1 0.0067869 0.75922 0.918399
843 1 0.0875341 0.829026 0.915008
823 1 0.250391 0.664082 0.902507
824 1 0.163897 0.739972 0.912323
847 1 0.240074 0.831967 0.929406
827 1 0.41958 0.666669 0.916647
828 1 0.340305 0.750663 0.927149
851 1 0.420143 0.83226 0.926694
831 1 0.590568 0.670375 0.911422
365 1 0.152766 0.992163 0.82699
714 1 0.731605 0.913936 0.50367
235 1 0.741197 0.988882 0.594794
441 1 0.311025 0.504345 0.99972
445 1 0.507463 0.503803 0.988844
446 1 0.587183 0.593907 0.993174
289 1 0.997784 0.997339 0.672694
462 1 0.243764 0.740987 0.986805
735 1 0.579697 0.502685 0.75733
498 1 0.754728 0.917857 0.988479
497 1 0.671228 0.832487 0.99324
493 1 0.509724 0.822063 0.996227
473 1 0.678398 0.65795 0.991333
311 1 0.917932 0.981974 0.752556
666 1 0.750501 0.582583 0.503272
367 1 0.259311 0.999088 0.908082
470 1 0.593051 0.736156 0.993207
686 1 0.582457 0.734485 0.50443
741 1 0.836444 0.500127 0.661347
