ITEM: TIMESTEP
4250
ITEM: NUMBER OF ATOMS
864
ITEM: BOX BOUNDS pp pp pp
0.0000000000000000e+00 3.1559999999999999e+01
0.0000000000000000e+00 3.1559999999999999e+01
0.0000000000000000e+00 3.1559999999999999e+01
ITEM: ATOMS id type xs ys zs
173 1 0.185537 0.165249 0.175781
3 1 0.0915828 0.998882 0.0616435
146 1 0.0929684 0.07814 0.17704
145 1 0.00696482 0.00640894 0.167446
8 1 0.179532 0.0632333 0.0821744
12 1 0.350106 0.0760301 0.0841028
31 1 0.252638 0.163644 0.0820896
150 1 0.251818 0.0706474 0.156076
10 1 0.422178 0.0880463 1.00178
16 1 0.500224 0.0808744 0.100782
35 1 0.431062 0.16878 0.0894417
9 1 0.350802 0.0050897 0.997846
37 1 0.498579 0.164395 0.00239501
39 1 0.57839 0.166402 0.0905191
14 1 0.57782 0.0887 0.997937
20 1 0.65057 0.0814195 0.0871627
161 1 0.654478 0.0144444 0.179447
43 1 0.740401 0.163569 0.0998062
19 1 0.749188 0.99403 0.0869774
185 1 0.670536 0.176794 0.171873
18 1 0.746952 0.0838701 -0.00328913
4 1 0.0148596 0.0799485 0.077241
24 1 0.830053 0.0726562 0.0834051
23 1 0.928027 0.989157 0.0855867
166 1 0.918499 0.0689126 0.157197
27 1 0.107247 0.152716 0.0832357
29 1 0.188264 0.15699 0.979969
32 1 0.187544 0.246447 0.104066
170 1 0.105147 0.238079 0.174609
26 1 0.0956274 0.23657 0.99901
177 1 0.324648 0.171884 0.166718
174 1 0.252585 0.268427 0.186734
36 1 0.343524 0.253229 0.0852689
55 1 0.272314 0.333444 0.0778334
59 1 0.437664 0.340975 0.0854472
178 1 0.422553 0.255486 0.174393
40 1 0.501613 0.251155 0.0914249
63 1 0.581039 0.337427 0.0837254
182 1 0.574953 0.232663 0.173121
44 1 0.668921 0.248128 0.0813841
65 1 0.659946 0.335179 0.99362
67 1 0.750849 0.33307 0.0717164
48 1 0.830522 0.232652 0.0745598
47 1 0.925265 0.147812 0.0628682
28 1 0.0153849 0.230262 0.0911718
190 1 0.92133 0.222486 0.158612
46 1 0.916639 0.233595 1.00155
49 1 -0.00179359 0.315701 0.00665433
51 1 0.0808788 0.317978 0.0800579
56 1 0.169661 0.403722 0.0995143
197 1 0.163765 0.32662 0.164664
194 1 0.085904 0.412717 0.168812
217 1 -0.00495646 0.491615 0.163972
50 1 0.0942077 0.41539 0.00245924
198 1 0.261917 0.419165 0.171715
60 1 0.332345 0.420146 0.0808531
201 1 0.341555 0.328907 0.163432
83 1 0.413304 0.504735 0.0716387
58 1 0.436205 0.415604 -0.00647157
64 1 0.488997 0.430057 0.0785568
81 1 0.334107 0.494894 0.996735
61 1 0.508265 0.335425 1.00812
62 1 0.579199 0.418741 0.00681575
85 1 0.500037 0.515541 0.00264483
68 1 0.663824 0.416307 0.0882936
69 1 0.843453 0.321044 -0.00257866
66 1 0.739233 0.425 0.971009
52 1 0.00288364 0.399259 0.0860695
72 1 0.829769 0.419779 0.0669875
71 1 0.923864 0.306073 0.0842321
214 1 0.908461 0.406127 0.158461
70 1 0.926188 0.411137 0.00183028
75 1 0.0795945 0.490933 0.0932922
99 1 0.0978833 0.673857 0.0742667
76 1 0.0312967 0.580147 0.0783398
73 1 0.00138457 0.489514 0.000123861
79 1 0.248539 0.493817 0.0837645
80 1 0.174348 0.595047 0.0969697
245 1 0.180591 0.679304 0.168658
222 1 0.255661 0.57583 0.163448
84 1 0.323626 0.577071 0.0811728
82 1 0.419504 0.587499 0.997653
87 1 0.587623 0.504968 0.0816793
88 1 0.493664 0.58518 0.0843911
86 1 0.587831 0.580266 -0.00742134
111 1 0.578405 0.657468 0.0970968
92 1 0.669542 0.573182 0.0681123
91 1 0.752019 0.500545 0.0680725
115 1 0.759863 0.655269 0.0790137
233 1 0.679659 0.498265 0.146893
117 1 0.845873 0.661497 -0.00819446
95 1 0.924504 0.479955 0.0867781
96 1 0.852082 0.567389 0.0772656
237 1 0.83055 0.50264 0.157929
238 1 0.928105 0.575906 0.154404
94 1 0.936166 0.564177 0.0153554
123 1 0.0902288 0.818552 0.0719515
104 1 0.165302 0.753905 0.081597
103 1 0.25578 0.688498 0.0796375
246 1 0.254061 0.75558 0.168151
127 1 0.25926 0.83878 0.0936584
269 1 0.171701 0.834049 0.164604
107 1 0.415769 0.6686 0.0853903
108 1 0.332734 0.755011 0.0699293
250 1 0.405156 0.757439 0.151321
129 1 0.352648 0.839724 0.993073
112 1 0.499834 0.748127 0.0801372
257 1 0.664444 0.665139 0.154811
110 1 0.585322 0.763981 0.00650376
116 1 0.676956 0.749289 0.0776318
258 1 0.744265 0.750297 0.165633
114 1 0.757875 0.739081 1.01318
100 1 1.00112 0.760956 0.0934006
265 1 -0.0184528 0.842775 0.186561
120 1 0.828335 0.758895 0.0983657
119 1 0.917351 0.666008 0.089729
118 1 0.936686 0.747732 0.994056
128 1 0.190074 0.921968 0.0760166
124 1 1.00895 0.906489 0.0692096
149 1 0.163985 1.00099 0.167303
121 1 0.00952677 0.833198 0.990986
5 1 0.189838 0.996675 0.998148
7 1 0.269621 1.00198 0.0749841
126 1 0.271782 0.916847 0.00163492
132 1 0.331013 0.915429 0.0922594
131 1 0.424104 0.837896 0.0848108
11 1 0.418773 -0.00714312 0.089914
130 1 0.43067 0.918532 -0.00131563
15 1 0.571912 0.00296567 0.080551
135 1 0.596603 0.82998 0.0960408
136 1 0.49652 0.919286 0.0817489
278 1 0.581858 0.923808 0.191405
134 1 0.583719 0.914981 0.998985
139 1 0.752058 0.843504 0.0833607
140 1 0.647885 0.924589 0.0931819
285 1 0.821716 0.835358 0.178009
143 1 0.921188 0.83949 0.0695988
165 1 0.835619 0.987476 0.178828
144 1 0.843165 0.908386 0.0827961
142 1 0.926616 0.913954 -0.00482561
148 1 0.00821569 0.0927226 0.252236
169 1 0.0165695 0.150247 0.16804
152 1 0.176717 0.0691592 0.258691
321 1 0.319643 0.164615 0.333291
156 1 0.316918 0.0720911 0.253136
154 1 0.404958 0.0821849 0.176655
179 1 0.394865 0.160675 0.249293
160 1 0.491068 0.0757806 0.269614
325 1 0.488816 0.156911 0.343278
157 1 0.493594 -0.00260875 0.172232
158 1 0.576535 0.0869321 0.181387
183 1 0.577966 0.166831 0.260869
302 1 0.587624 0.080676 0.352708
159 1 0.560594 1.04567e-05 0.260188
162 1 0.740911 0.0876547 0.169966
164 1 0.669517 0.0923776 0.259906
187 1 0.746158 0.171665 0.248132
163 1 0.754281 -0.000504268 0.26339
189 1 0.828933 0.158734 0.155321
168 1 0.84968 0.0728209 0.246592
191 1 0.925446 0.166365 0.241458
310 1 0.936531 0.0991801 0.34492
193 1 1.00108 0.318213 0.160742
171 1 0.11143 0.164258 0.263021
195 1 0.0802181 0.33579 0.243527
176 1 0.17491 0.270198 0.25825
175 1 0.25236 0.179845 0.253657
318 1 0.261281 0.260192 0.336954
180 1 0.337046 0.2558 0.259656
181 1 0.478588 0.16762 0.199031
345 1 0.332053 0.338936 0.345434
205 1 0.511386 0.336732 0.162814
184 1 0.497382 0.254288 0.247511
203 1 0.414314 0.331429 0.247884
349 1 0.500243 0.344565 0.346588
326 1 0.565422 0.246712 0.332118
207 1 0.573231 0.344552 0.254931
186 1 0.759556 0.25453 0.15688
209 1 0.651066 0.332276 0.171033
188 1 0.663628 0.246543 0.256
330 1 0.75294 0.240218 0.330225
172 1 0.0214897 0.233895 0.252272
192 1 0.838328 0.246149 0.246583
215 1 0.937009 0.309914 0.261467
200 1 0.168703 0.400649 0.244339
199 1 0.268643 0.344684 0.249911
204 1 0.342132 0.427667 0.254088
221 1 0.163825 0.481469 0.179514
225 1 0.345271 0.503999 0.16239
223 1 0.267334 0.49446 0.2472
202 1 0.420108 0.414687 0.167712
208 1 0.493228 0.41202 0.251454
373 1 0.49862 0.504422 0.334363
227 1 0.421595 0.500972 0.25324
206 1 0.581436 0.418156 0.167776
350 1 0.586545 0.41677 0.323279
212 1 0.669059 0.42904 0.233457
231 1 0.574495 0.488879 0.255593
211 1 0.764504 0.322557 0.257034
353 1 0.694528 0.332201 0.333448
357 1 0.850183 0.34019 0.341267
210 1 0.780771 0.408012 0.160873
354 1 0.761617 0.42099 0.325936
216 1 0.855996 0.394945 0.244293
213 1 0.846634 0.311891 0.169147
196 1 0.992774 0.402083 0.239847
219 1 0.0881893 0.501724 0.25228
218 1 0.0940686 0.576645 0.176066
362 1 0.0994451 0.575 0.322609
224 1 0.179013 0.571126 0.248991
228 1 0.347074 0.573844 0.248305
226 1 0.425403 0.579814 0.171611
249 1 0.326622 0.67169 0.157435
251 1 0.41584 0.651003 0.247881
393 1 0.329167 0.657751 0.333289
230 1 0.581536 0.574665 0.174312
229 1 0.495937 0.494297 0.168212
232 1 0.493181 0.571587 0.255897
377 1 0.669863 0.497261 0.331679
236 1 0.674179 0.564962 0.233025
397 1 0.502273 0.67991 0.31689
234 1 0.757304 0.59045 0.157542
235 1 0.756647 0.498928 0.245138
361 1 0.995353 0.504362 0.32633
239 1 0.911068 0.503941 0.237676
220 1 1.00082 0.585334 0.242654
240 1 0.83675 0.578404 0.243367
242 1 0.0883191 0.752296 0.159501
241 1 0.00761115 0.665565 0.151566
243 1 0.0960542 0.662266 0.24013
248 1 0.161608 0.755594 0.247528
247 1 0.261051 0.666142 0.244961
271 1 0.253099 0.837933 0.247295
390 1 0.25426 0.757772 0.319785
413 1 0.15903 0.832023 0.331364
417 1 0.332168 0.835369 0.326585
273 1 0.341067 0.841641 0.172846
252 1 0.342567 0.753509 0.23987
275 1 0.413698 0.839535 0.246165
394 1 0.416728 0.757978 0.332268
253 1 0.491894 0.656291 0.168105
255 1 0.577573 0.663084 0.24794
254 1 0.589572 0.742063 0.172057
256 1 0.477699 0.751435 0.242842
398 1 0.59457 0.757286 0.339001
421 1 0.504768 0.825035 0.335721
401 1 0.652424 0.665089 0.320394
260 1 0.668868 0.751186 0.249815
259 1 0.75612 0.658847 0.23469
264 1 0.83166 0.736365 0.252168
261 1 0.844819 0.653493 0.160933
262 1 0.918593 0.752062 0.173729
244 1 0.000470197 0.723647 0.241562
263 1 0.909312 0.666273 0.239786
287 1 0.91854 0.832949 0.264535
267 1 0.0860383 0.8317 0.254544
147 1 0.083468 1.00033 0.252685
266 1 0.0784971 0.914996 0.164628
268 1 0.980601 0.915733 0.271328
151 1 0.244966 0.987343 0.264244
272 1 0.163271 0.914632 0.247469
270 1 0.250579 0.93575 0.162045
276 1 0.326512 0.909973 0.243782
414 1 0.247138 0.911737 0.339298
153 1 0.334254 1.00037 0.170314
274 1 0.418742 0.910068 0.167333
155 1 0.419446 -0.00590161 0.265971
277 1 0.509447 0.844554 0.165072
279 1 0.586958 0.833318 0.253064
280 1 0.494247 0.918336 0.262831
281 1 0.66939 0.835503 0.171198
282 1 0.733817 0.92709 0.172192
283 1 0.732456 0.840014 0.260244
305 1 0.668121 1.00538 0.351696
284 1 0.662141 0.942477 0.263393
426 1 0.7454 0.927981 0.361969
286 1 0.918029 0.920258 0.172932
167 1 0.920571 0.00366488 0.255792
288 1 0.848199 0.912302 0.254984
290 1 0.101906 0.0906761 0.353481
313 1 0.0223949 0.164471 0.339694
317 1 0.190136 0.164068 0.333525
292 1 -0.00617876 0.0843264 0.434855
457 1 -0.0014532 0.167592 0.503434
296 1 0.177442 0.0740343 0.423904
433 1 0.981956 1.00179 0.506748
294 1 0.259114 0.0789517 0.346601
300 1 0.329218 0.0733837 0.428171
319 1 0.252432 0.168394 0.422704
465 1 0.322022 0.165643 0.506883
298 1 0.395129 0.0848438 0.33561
323 1 0.400178 0.17251 0.412304
301 1 0.492279 -0.00574801 0.348555
304 1 0.474209 0.0786143 0.413738
327 1 0.578993 0.165141 0.408104
469 1 0.493455 0.156124 0.498837
329 1 0.672337 0.173453 0.353775
306 1 0.747889 0.0993702 0.345203
308 1 0.662245 0.100691 0.431836
450 1 0.756984 0.0991753 0.490887
309 1 0.824391 1.01188 0.335131
312 1 0.838354 0.0892371 0.427131
477 1 0.841912 0.1805 0.504579
333 1 0.837161 0.16483 0.327548
335 1 0.927561 0.175215 0.429136
311 1 0.915642 0.0113492 0.411069
314 1 0.0881257 0.257457 0.331576
315 1 0.0948773 0.165667 0.424912
458 1 0.0833277 0.249414 0.507338
341 1 0.175562 0.339662 0.34242
320 1 0.174447 0.250619 0.412133
324 1 0.324182 0.245149 0.419159
343 1 0.257684 0.336833 0.42868
322 1 0.420366 0.250661 0.340076
347 1 0.398845 0.343454 0.427207
489 1 0.329044 0.325048 0.518249
466 1 0.398381 0.245281 0.495389
328 1 0.496471 0.254752 0.425315
351 1 0.577795 0.329494 0.411416
332 1 0.670237 0.260367 0.429649
493 1 0.505222 0.339365 0.504221
470 1 0.586914 0.253654 0.502362
331 1 0.754611 0.188908 0.431294
355 1 0.761258 0.334677 0.412408
497 1 0.6732 0.341342 0.509694
474 1 0.752437 0.27059 0.497556
334 1 0.912268 0.238017 0.336022
316 1 0.0092079 0.250247 0.411699
336 1 0.84393 0.252052 0.415564
359 1 0.931564 0.334834 0.422394
478 1 0.941134 0.248127 0.51212
338 1 0.0867181 0.420279 0.33378
339 1 0.08066 0.34812 0.412742
340 1 0.00885511 0.444535 0.411398
481 1 0.0093153 0.343183 0.48774
482 1 0.081746 0.415386 0.503842
365 1 0.176757 0.482362 0.311802
344 1 0.170423 0.417546 0.420933
342 1 0.255637 0.418347 0.341233
367 1 0.2506 0.496067 0.417439
485 1 0.165694 0.321005 0.498667
346 1 0.414696 0.423834 0.335972
348 1 0.322978 0.423869 0.422087
490 1 0.411822 0.429265 0.497711
371 1 0.412979 0.504961 0.406107
352 1 0.48873 0.422801 0.414566
494 1 0.5974 0.421743 0.493124
356 1 0.672021 0.406472 0.412744
379 1 0.75354 0.499137 0.421376
498 1 0.750681 0.416145 0.510285
360 1 0.84854 0.413029 0.413992
501 1 0.837133 0.343781 0.497921
337 1 0.00633086 0.344235 0.339848
358 1 0.919705 0.418343 0.331152
502 1 0.929428 0.402752 0.500897
363 1 0.0918375 0.508604 0.424311
385 1 0.00430354 0.668331 0.336891
387 1 0.0952312 0.659012 0.419468
368 1 0.195356 0.584111 0.412247
366 1 0.245767 0.580614 0.321869
510 1 0.252162 0.573061 0.495388
389 1 0.169718 0.662637 0.323445
370 1 0.41609 0.58437 0.330482
369 1 0.32921 0.513204 0.339262
372 1 0.34662 0.588508 0.426618
514 1 0.417866 0.584143 0.496431
376 1 0.500071 0.586303 0.393899
395 1 0.421763 0.670977 0.399732
374 1 0.594447 0.577631 0.311547
375 1 0.58001 0.50887 0.41447
518 1 0.585536 0.582421 0.490893
380 1 0.672497 0.584463 0.392674
378 1 0.746774 0.587734 0.32068
521 1 0.66579 0.510444 0.491786
403 1 0.750661 0.661931 0.404828
384 1 0.835643 0.585857 0.414823
405 1 0.838017 0.67041 0.334015
522 1 0.752411 0.590366 0.48932
381 1 0.84342 0.486051 0.322712
383 1 0.913187 0.506396 0.407983
382 1 0.918781 0.581699 0.315507
364 1 -0.00395852 0.581283 0.418725
526 1 0.913496 0.576169 0.502099
386 1 0.087078 0.744529 0.333084
392 1 0.178004 0.737443 0.401778
388 1 1.00665 0.741966 0.419396
553 1 1.00352 0.837649 0.495835
391 1 0.259009 0.664227 0.42109
415 1 0.252983 0.836599 0.41432
537 1 0.320627 0.689885 0.501331
396 1 0.329992 0.738096 0.403946
538 1 0.424004 0.733839 0.497204
400 1 0.501277 0.753393 0.414986
419 1 0.406203 0.806505 0.416741
541 1 0.513641 0.662506 0.491396
399 1 0.597006 0.6555 0.418916
423 1 0.581903 0.83514 0.425037
402 1 0.751932 0.748024 0.333829
429 1 0.834556 0.831717 0.340648
404 1 0.682974 0.750251 0.423279
408 1 0.844833 0.746598 0.419826
406 1 0.922288 0.742059 0.330672
407 1 0.928063 0.661829 0.413268
431 1 0.928961 0.830736 0.410848
529 1 1.01366 0.661535 0.491976
410 1 0.0747692 0.911635 0.33083
291 1 0.0730974 1.00267 0.420015
411 1 0.0789063 0.820486 0.412047
289 1 0.00534146 0.00286667 0.335358
412 1 -0.0061698 0.922027 0.409942
297 1 0.332302 0.997969 0.337247
295 1 0.23703 0.984001 0.419563
416 1 0.156615 0.909652 0.427251
293 1 0.143779 0.993987 0.339607
299 1 0.402114 1.00169 0.408614
418 1 0.411143 0.910223 0.338221
420 1 0.333637 0.895867 0.436927
562 1 0.415109 0.910466 0.501301
303 1 0.576418 0.990845 0.428885
422 1 0.56981 0.915784 0.335192
424 1 0.494033 0.914564 0.417601
428 1 0.666107 0.923575 0.427228
449 1 0.669657 0.000448965 0.497304
425 1 0.661831 0.851053 0.347174
307 1 0.757063 0.0216007 0.41199
427 1 0.753751 0.832348 0.424244
570 1 0.754172 0.90824 0.501501
409 1 1.0063 0.823004 0.316242
432 1 0.837187 0.918153 0.425622
430 1 0.904917 0.919051 0.349942
574 1 0.907958 0.906393 0.499984
453 1 0.822559 0.00342295 0.508814
573 1 0.837371 0.820939 0.498193
434 1 0.0790198 0.0844981 0.510692
436 1 0.988273 0.0780916 0.596747
605 1 0.158382 0.165612 0.673493
441 1 0.321042 -0.0108255 0.497832
438 1 0.243498 0.0877201 0.521144
439 1 0.2506 -0.00986559 0.587933
440 1 0.149121 0.0729506 0.583236
444 1 0.336374 0.0765458 0.577596
442 1 0.412935 0.0847083 0.509801
467 1 0.412572 0.16343 0.588767
448 1 0.480902 0.0826917 0.584032
585 1 0.34043 0.999958 0.663467
586 1 0.394453 0.0877752 0.666322
446 1 0.572276 0.0800085 0.483519
471 1 0.593718 0.156795 0.579928
590 1 0.570874 0.0854343 0.654491
452 1 0.672348 0.0920707 0.564287
473 1 0.673855 0.182991 0.502816
475 1 0.748996 0.176321 0.586436
594 1 0.74452 0.0872016 0.673638
617 1 0.669731 0.171377 0.659799
454 1 0.91417 0.0893792 0.50041
456 1 0.837054 0.108145 0.577057
598 1 0.906023 0.0903165 0.664083
455 1 0.907538 0.0051441 0.579062
621 1 0.822323 0.168324 0.656679
459 1 0.0804459 0.16783 0.600162
464 1 0.155281 0.263874 0.59025
601 1 1.00603 0.167565 0.66593
461 1 0.173027 0.176344 0.515285
462 1 0.243378 0.256929 0.517178
463 1 0.256115 0.177297 0.60006
468 1 0.342014 0.244524 0.584581
606 1 0.226916 0.258892 0.671075
491 1 0.413137 0.351355 0.576622
610 1 0.418567 0.257238 0.656475
633 1 0.327565 0.333331 0.675403
472 1 0.486541 0.24001 0.564799
495 1 0.577931 0.351247 0.590907
637 1 0.492022 0.340053 0.655905
613 1 0.494901 0.174699 0.657017
614 1 0.57668 0.267038 0.65845
476 1 0.668121 0.257333 0.585002
499 1 0.751403 0.338489 0.584387
480 1 0.839617 0.252915 0.58746
618 1 0.760233 0.252267 0.681226
479 1 0.928434 0.178706 0.590978
460 1 0.0100478 0.2453 0.60124
503 1 0.918301 0.322676 0.588411
622 1 0.91211 0.244423 0.686224
625 1 0.0047784 0.335039 0.685094
509 1 0.167846 0.498279 0.506492
483 1 0.0768765 0.331897 0.580699
488 1 0.152983 0.42232 0.575777
507 1 0.0804678 0.505941 0.590319
629 1 0.155329 0.339508 0.678007
487 1 0.250424 0.331582 0.594735
486 1 0.243808 0.412882 0.513174
511 1 0.266857 0.509387 0.584707
630 1 0.260703 0.429572 0.669073
653 1 0.185232 0.514114 0.648186
513 1 0.326383 0.49898 0.503303
492 1 0.330779 0.426108 0.585564
515 1 0.421077 0.509715 0.576966
634 1 0.422831 0.433037 0.660559
661 1 0.508603 0.504491 0.674027
496 1 0.502895 0.42366 0.574742
500 1 0.668701 0.42007 0.58116
519 1 0.594362 0.49219 0.582079
638 1 0.59433 0.419845 0.693541
641 1 0.676049 0.34381 0.671604
523 1 0.747336 0.513613 0.575496
525 1 0.850994 0.489022 0.498584
484 1 0.995 0.405833 0.597368
504 1 0.835739 0.413249 0.588801
646 1 0.913511 0.419454 0.671864
527 1 0.932533 0.489272 0.574843
506 1 0.10077 0.583656 0.498943
533 1 0.16676 0.669885 0.489375
531 1 0.0830764 0.667461 0.570775
677 1 0.159735 0.664789 0.660075
650 1 0.0896578 0.58925 0.665359
512 1 0.166209 0.589102 0.58333
654 1 0.254732 0.589692 0.670255
535 1 0.245569 0.667198 0.576104
516 1 0.337024 0.586528 0.563587
517 1 0.488472 0.504218 0.492323
657 1 0.344456 0.499304 0.668706
539 1 0.439608 0.660638 0.569846
665 1 0.681162 0.503109 0.672321
520 1 0.50955 0.570929 0.589544
662 1 0.599004 0.572448 0.660344
543 1 0.56647 0.653212 0.583744
524 1 0.660484 0.577037 0.576344
528 1 0.833864 0.583855 0.581384
666 1 0.757725 0.578829 0.671284
669 1 0.82957 0.496422 0.669949
505 1 0.0143874 0.486987 0.508515
508 1 0.998209 0.590732 0.5757
549 1 0.839318 0.666555 0.491638
551 1 0.916598 0.676351 0.589853
530 1 0.0861753 0.744831 0.497587
532 1 1.00007 0.748142 0.579329
534 1 0.233417 0.757279 0.507306
536 1 0.155085 0.747058 0.581519
681 1 0.344689 0.658934 0.658339
561 1 0.341923 0.817525 0.507525
565 1 0.493603 0.832432 0.489963
685 1 0.505514 0.656235 0.670504
540 1 0.337553 0.737339 0.591561
544 1 0.503908 0.745298 0.569873
563 1 0.412581 0.824076 0.58484
542 1 0.598815 0.73868 0.489066
709 1 0.511002 0.81171 0.656078
545 1 0.674225 0.654782 0.49174
546 1 0.758175 0.748808 0.501335
547 1 0.750188 0.666469 0.59185
548 1 0.666471 0.755089 0.571929
690 1 0.754071 0.747661 0.654788
689 1 0.675835 0.656061 0.678904
552 1 0.839823 0.745295 0.573527
550 1 0.927429 0.734778 0.494073
575 1 0.900984 0.83674 0.581638
554 1 0.0707321 0.910665 0.485844
557 1 0.146168 0.825659 0.502268
435 1 0.0725421 -0.0113026 0.589197
555 1 0.0620213 0.840025 0.580465
556 1 -0.0171822 0.913189 0.575242
560 1 0.158102 0.904433 0.576366
437 1 0.143891 0.995103 0.501777
558 1 0.24371 0.915598 0.504981
705 1 0.330119 0.820798 0.670648
559 1 0.264875 0.825884 0.587597
702 1 0.249813 0.915332 0.665315
445 1 0.493688 0.99806 0.497902
443 1 0.414785 -0.00831714 0.583822
564 1 0.33993 0.910957 0.574353
568 1 0.492074 0.907062 0.579976
447 1 0.578377 -0.00582956 0.568508
567 1 0.582227 0.82365 0.573253
566 1 0.576488 0.90798 0.495733
569 1 0.673514 0.833547 0.502459
451 1 0.750218 0.00897505 0.582995
571 1 0.767664 0.829254 0.586349
593 1 0.653153 -0.00118856 0.653133
572 1 0.666003 0.92501 0.569925
714 1 0.748073 0.934252 0.653551
713 1 0.668496 0.837131 0.644551
576 1 0.829723 0.915586 0.575548
578 1 0.0738425 0.0829498 0.664415
580 1 0.988131 0.085925 0.733342
581 1 0.160319 0.992073 0.650768
722 1 0.0694113 0.0825371 0.829661
584 1 0.162873 0.0734818 0.734797
582 1 0.257712 0.0902075 0.665132
583 1 0.248915 0.00352039 0.733464
725 1 0.162208 0.014078 0.822249
588 1 0.334814 0.0718825 0.74889
611 1 0.419503 0.182074 0.735249
587 1 0.414861 1.00221 0.737116
591 1 0.575482 0.994246 0.726413
592 1 0.488624 0.0862749 0.731211
734 1 0.576528 0.0861798 0.841942
596 1 0.642348 0.0867779 0.729196
619 1 0.746302 0.155432 0.748635
738 1 0.761582 0.0654179 0.851105
595 1 0.719883 0.00916035 0.740864
737 1 0.644531 1.01063 0.827359
597 1 0.828573 1.02171 0.674114
577 1 0.995341 0.991127 0.665588
600 1 0.832373 0.0898003 0.759574
623 1 0.904717 0.161996 0.753202
741 1 0.83533 0.980694 0.846
603 1 0.0918331 0.15358 0.75944
602 1 0.0834434 0.246012 0.682066
608 1 0.169602 0.236318 0.761425
749 1 0.170034 0.15758 0.83795
609 1 0.332072 0.173648 0.66806
607 1 0.251034 0.165969 0.754746
631 1 0.247056 0.332016 0.750883
612 1 0.329188 0.246122 0.74424
750 1 0.254272 0.246052 0.840538
616 1 0.4923 0.256746 0.74129
753 1 0.336227 0.157047 0.824184
615 1 0.578896 0.175872 0.73175
639 1 0.577414 0.328445 0.758837
758 1 0.559094 0.233701 0.832901
620 1 0.669473 0.244572 0.739112
643 1 0.75144 0.348119 0.751437
761 1 0.673905 0.163342 0.821423
604 1 1.00526 0.239503 0.748584
645 1 0.84245 0.329512 0.664882
624 1 0.83359 0.278871 0.753916
766 1 0.919264 0.248237 0.819092
626 1 0.0739487 0.42405 0.665395
627 1 0.0765943 0.331021 0.767016
770 1 0.0917768 0.419546 0.823632
632 1 0.174763 0.413821 0.755489
628 1 -0.00442412 0.417611 0.764275
651 1 0.0917812 0.498088 0.737322
797 1 0.173453 0.501548 0.835624
793 1 0.00236726 0.477704 0.846347
655 1 0.254347 0.504207 0.74624
801 1 0.336788 0.487638 0.841671
773 1 0.174586 0.318159 0.829927
774 1 0.254271 0.412445 0.84542
636 1 0.339789 0.42312 0.760301
635 1 0.417339 0.339332 0.742208
659 1 0.43137 0.500258 0.742063
777 1 0.333844 0.32536 0.825003
778 1 0.427681 0.427367 0.827593
640 1 0.497383 0.412503 0.74105
644 1 0.658056 0.400138 0.779684
782 1 0.563064 0.42366 0.826015
805 1 0.491959 0.512092 0.841835
642 1 0.745501 0.423513 0.674414
785 1 0.657259 0.315368 0.834531
786 1 0.742363 0.390228 0.841429
809 1 0.662016 0.510288 0.833627
647 1 0.92041 0.34028 0.749255
648 1 0.833344 0.413441 0.763399
671 1 0.925611 0.504137 0.751879
813 1 0.838141 0.48753 0.838297
789 1 0.842744 0.338132 0.837746
673 1 1.00522 0.670485 0.660753
794 1 0.0775747 0.582603 0.846388
817 1 1.00232 0.655618 0.829447
649 1 0.00216104 0.515628 0.667293
652 1 0.0104536 0.583001 0.755754
656 1 0.15111 0.581282 0.77043
679 1 0.270801 0.656168 0.749174
798 1 0.26307 0.572987 0.830487
660 1 0.349989 0.578369 0.746437
825 1 0.346246 0.673963 0.817863
821 1 0.176805 0.67583 0.82233
658 1 0.426256 0.584744 0.653952
664 1 0.507228 0.579606 0.752808
802 1 0.421006 0.586913 0.829763
829 1 0.490546 0.66529 0.828206
663 1 0.589031 0.502226 0.751665
668 1 0.679196 0.581305 0.751562
687 1 0.589114 0.666226 0.742695
806 1 0.582083 0.590822 0.837507
667 1 0.753268 0.493368 0.753727
810 1 0.753424 0.581952 0.828135
691 1 0.763061 0.668838 0.736424
693 1 0.842477 0.665915 0.669151
672 1 0.841755 0.566759 0.745893
670 1 0.922485 0.577527 0.663855
814 1 0.917152 0.572384 0.839997
695 1 0.9249 0.656296 0.746115
674 1 0.0750861 0.764766 0.666468
675 1 0.0826542 0.664719 0.753375
676 1 0.000505364 0.74032 0.745359
818 1 0.0946269 0.751905 0.821164
841 1 -0.0039284 0.83088 0.824915
845 1 0.181844 0.826251 0.830275
678 1 0.249711 0.743476 0.66619
680 1 0.173138 0.747869 0.747536
684 1 0.347903 0.748733 0.746443
682 1 0.415491 0.74812 0.664214
683 1 0.431758 0.662017 0.741716
688 1 0.509807 0.746183 0.743667
826 1 0.409181 0.756358 0.834697
686 1 0.586973 0.737188 0.659368
833 1 0.661445 0.660628 0.822903
711 1 0.581574 0.830857 0.735659
692 1 0.678028 0.752057 0.730376
834 1 0.741445 0.747963 0.813201
717 1 0.838122 0.853462 0.671455
694 1 0.901164 0.765412 0.656087
696 1 0.830899 0.75911 0.747284
698 1 0.0792295 0.919414 0.662076
579 1 0.0765801 0.992868 0.757357
699 1 0.0923776 0.855606 0.74855
697 1 0.990289 0.852771 0.668502
700 1 -0.00208511 0.920569 0.755388
704 1 0.18267 0.918746 0.75733
701 1 0.164389 0.830267 0.654901
703 1 0.249098 0.829781 0.741732
849 1 0.337993 0.835649 0.821856
589 1 0.487911 0.991222 0.658249
707 1 0.43261 0.823426 0.740376
708 1 0.341522 0.922305 0.736104
706 1 0.412723 0.903085 0.657814
710 1 0.589079 0.902874 0.655107
733 1 0.516759 0.999059 0.820221
712 1 0.496172 0.91397 0.741446
854 1 0.582342 0.916979 0.8124
715 1 0.746286 0.845016 0.733817
716 1 0.667215 0.917803 0.748783
718 1 0.904401 0.931488 0.653257
599 1 0.922847 0.990189 0.771632
719 1 0.9114 0.836249 0.755467
720 1 0.83242 0.925771 0.748485
2 1 0.104387 0.0814746 0.994626
724 1 0.993541 0.0897501 0.917185
723 1 0.0811968 0.00208701 0.921262
728 1 0.169835 0.0731795 0.906564
6 1 0.265063 0.08633 0.00162242
726 1 0.249881 0.0838837 0.818086
751 1 0.265908 0.160128 0.911296
732 1 0.354142 0.0802327 0.908622
730 1 0.426509 0.0852367 0.826827
736 1 0.497576 0.089867 0.91581
759 1 0.563381 0.165317 0.92302
735 1 0.594534 0.998143 0.924156
740 1 0.664327 0.0820518 0.905849
763 1 0.749535 0.162262 0.912912
17 1 0.658319 0.00199834 1.01448
22 1 0.905369 0.0651771 1.00159
1 1 0.00510732 1.00064 0.990919
744 1 0.846156 0.100251 0.915771
742 1 0.91942 0.0859295 0.83979
21 1 0.832277 0.995872 0.988042
743 1 0.921578 1.00038 0.919131
745 1 1.00579 0.167213 0.831726
746 1 0.0830724 0.241746 0.831752
747 1 0.0752161 0.157897 0.91617
752 1 0.170759 0.239883 0.903763
25 1 0.0134098 0.156817 1.00289
30 1 0.249564 0.239358 0.00748353
33 1 0.341096 0.15678 -0.00955392
756 1 0.338669 0.264454 0.913559
34 1 0.424575 0.246238 1.0098
57 1 0.353237 0.337143 0.00711604
755 1 0.42187 0.168294 0.915984
754 1 0.411826 0.250662 0.828618
38 1 0.57757 0.259108 0.989226
41 1 0.658763 0.152796 -0.00698702
757 1 0.492246 0.159955 0.819781
760 1 0.494866 0.251706 0.91079
764 1 0.661388 0.221808 0.914332
45 1 0.827786 0.162247 0.993314
42 1 0.740659 0.239134 0.00106188
762 1 0.745995 0.252087 0.823165
787 1 0.735508 0.312247 0.923492
765 1 0.82278 0.170269 0.824125
769 1 0.987292 0.317764 0.840685
767 1 0.908537 0.181732 0.899354
748 1 -0.00499851 0.237827 0.92194
768 1 0.826012 0.254695 0.908985
771 1 0.092517 0.330534 0.903435
772 1 1.00248 0.393245 0.924592
795 1 0.072502 0.497891 0.927245
77 1 0.160554 0.501042 0.00839485
54 1 0.256164 0.417444 -0.0126933
775 1 0.24664 0.326401 0.912726
53 1 0.163703 0.328717 1.00012
776 1 0.165183 0.422034 0.916904
799 1 0.252392 0.498409 0.925171
779 1 0.422106 0.341629 0.899561
780 1 0.340918 0.410518 0.923925
784 1 0.497775 0.422369 0.91327
803 1 0.415708 0.503865 0.921425
89 1 0.66471 0.495358 0.99777
781 1 0.490258 0.336729 0.821321
783 1 0.56839 0.327936 0.91087
807 1 0.577902 0.507161 0.911731
788 1 0.645269 0.416735 0.906408
792 1 0.833623 0.405823 0.923659
811 1 0.745818 0.506719 0.899859
790 1 0.921032 0.414164 0.837485
791 1 0.919417 0.321375 0.922422
93 1 0.831592 0.498667 0.985249
74 1 0.0951038 0.590959 0.987984
819 1 0.0925369 0.670908 0.902945
796 1 0.997979 0.582098 0.917033
101 1 0.170469 0.675751 1.00187
78 1 0.240839 0.589962 1.00049
800 1 0.168361 0.580685 0.90122
823 1 0.253613 0.668165 0.923146
105 1 0.337506 0.665096 0.00131691
804 1 0.323089 0.579186 0.933113
827 1 0.409185 0.657635 0.914909
808 1 0.493071 0.594526 0.910312
831 1 0.582344 0.676683 0.918937
812 1 0.66864 0.579621 0.915752
109 1 0.493644 0.666586 0.99972
113 1 0.651037 0.670142 1.01407
837 1 0.8222 0.660362 0.829605
90 1 0.749042 0.584486 0.996665
815 1 0.914174 0.491401 0.925747
816 1 0.829261 0.592685 0.917321
97 1 0.0137375 0.667513 0.0140615
98 1 0.0891332 0.74952 0.983278
843 1 0.0963003 0.829338 0.902847
102 1 0.242616 0.768942 1.01316
822 1 0.258327 0.747951 0.816333
824 1 0.178038 0.744914 0.912567
828 1 0.34093 0.751992 0.912438
106 1 0.418813 0.747792 0.00328934
851 1 0.419034 0.839802 0.895629
832 1 0.485962 0.762815 0.910484
830 1 0.587404 0.745322 0.821721
855 1 0.586722 0.83419 0.917944
835 1 0.741786 0.66423 0.904495
836 1 0.67029 0.743732 0.941645
141 1 0.83653 0.801713 0.998742
840 1 0.835768 0.738677 0.908113
859 1 0.734903 0.825173 0.913984
861 1 0.80968 0.826691 0.832562
838 1 0.912749 0.745835 0.809285
839 1 0.921406 0.665161 0.920046
820 1 0.00826797 0.742312 0.916212
863 1 0.919115 0.821326 0.899366
122 1 0.0895837 0.91382 1.00148
842 1 0.108149 0.918764 0.832571
848 1 0.177625 0.909387 0.919466
727 1 0.268616 0.00439747 0.910705
729 1 0.35388 0.989875 0.834926
125 1 0.164645 0.836057 0.994999
847 1 0.267818 0.839149 0.907537
846 1 0.260375 0.931327 0.832623
133 1 0.510633 0.83591 1.00363
853 1 0.510729 0.832967 0.82342
852 1 0.359374 0.928398 0.922385
850 1 0.43394 0.921126 0.831403
731 1 0.438735 0.998489 0.913049
13 1 0.514505 1.00319 0.994108
856 1 0.50782 0.920769 0.916003
138 1 0.750133 0.90581 0.992702
857 1 0.654277 0.829232 0.817705
858 1 0.739258 0.916535 0.825943
137 1 0.662893 0.844708 0.0154214
739 1 0.752396 0.976889 0.91686
860 1 0.66178 0.913294 0.909729
862 1 0.904414 0.904937 0.834887
721 1 0.00356866 0.996725 0.843337
844 1 -0.000414918 0.905759 0.914339
864 1 0.842969 0.889296 0.93021
