ITEM: TIMESTEP
6250
ITEM: NUMBER OF ATOMS
864
ITEM: BOX BOUNDS pp pp pp
0.0000000000000000e+00 3.1559999999999999e+01
0.0000000000000000e+00 3.1559999999999999e+01
0.0000000000000000e+00 3.1559999999999999e+01
ITEM: ATOMS id type xs ys zs
4 1 0.000557312 0.094091 0.105011
8 1 0.174827 0.0959168 0.0928636
29 1 0.163994 0.179392 1.01281
27 1 0.0829066 0.185422 0.0847537
3 1 0.089406 0.00845654 0.0962165
146 1 0.0912989 0.0972408 0.160111
145 1 0.0100242 0.994887 0.17135
7 1 0.238593 -0.00343935 0.0873412
149 1 0.170837 0.0168853 0.177769
6 1 0.253331 0.084691 0.00147607
12 1 0.324788 0.0748553 0.0827118
153 1 0.332992 0.00767132 0.166236
31 1 0.254722 0.180754 0.0874732
150 1 0.248907 0.090637 0.172832
11 1 0.416766 1.00071 0.0837864
35 1 0.409729 0.151836 0.0635982
16 1 0.496554 0.0865196 0.083545
14 1 0.589943 0.0752647 1.00283
20 1 0.658561 0.0753133 0.0909373
18 1 0.732902 0.0666266 0.0053723
162 1 0.733545 0.0760186 0.177156
24 1 0.836786 0.0882061 0.0942369
41 1 0.66665 0.157303 0.99612
166 1 0.921183 0.0747319 0.170457
23 1 0.921351 1.00464 0.0899533
28 1 1.01111 0.268919 0.0823796
26 1 0.0829151 0.246831 0.98938
32 1 0.150589 0.267904 0.0721934
170 1 0.0795077 0.266731 0.172963
30 1 0.261614 0.253005 -0.0124593
36 1 0.340912 0.249805 0.0787543
33 1 0.337306 0.169369 0.993375
40 1 0.485393 0.236935 0.0838548
178 1 0.411848 0.23704 0.170442
34 1 0.414291 0.238912 0.999588
39 1 0.576866 0.160302 0.0729132
44 1 0.658151 0.245462 0.0816717
63 1 0.580513 0.335927 0.0771464
37 1 0.49283 0.149462 1.00374
38 1 0.573728 0.241575 1.00216
43 1 0.728717 0.155349 0.0799422
67 1 0.74274 0.346123 0.0838451
47 1 0.910974 0.173668 0.105875
189 1 0.818308 0.169142 0.17223
48 1 0.826173 0.249795 0.0790293
213 1 0.822293 0.337821 0.172035
71 1 0.908237 0.332848 0.0951321
46 1 0.928929 0.251694 0.0223571
51 1 0.0748134 0.344351 0.0858518
50 1 0.0843017 0.422629 0.990656
56 1 0.190979 0.412684 0.0936622
77 1 0.16807 0.481529 0.979642
75 1 0.086017 0.485742 0.088505
73 1 -0.00464984 0.493526 0.983853
55 1 0.249992 0.330638 0.0740966
53 1 0.158526 0.349231 0.00221818
60 1 0.330962 0.401693 0.0690856
198 1 0.263892 0.407696 0.172759
57 1 0.341188 0.321688 0.990105
79 1 0.26611 0.485076 0.0783035
59 1 0.415964 0.32302 0.0684262
205 1 0.496677 0.327955 0.156899
64 1 0.503578 0.409932 0.0745474
202 1 0.418088 0.411436 0.165964
68 1 0.660206 0.422319 0.0851309
206 1 0.584199 0.402861 0.168969
87 1 0.576568 0.494306 0.0857328
233 1 0.664798 0.507728 0.155499
72 1 0.837207 0.413676 0.0777107
66 1 0.732994 0.397815 0.984724
52 1 -0.00893725 0.432044 0.0765584
214 1 0.918131 0.425548 0.168817
70 1 0.909592 0.414978 -0.0137398
80 1 0.180185 0.565331 0.0936579
99 1 0.0929287 0.657441 0.107183
74 1 0.0996353 0.577886 -0.0141001
221 1 0.182659 0.483556 0.181701
222 1 0.255354 0.58967 0.162346
249 1 0.344143 0.666594 0.169758
78 1 0.249996 0.573024 1.0014
225 1 0.334895 0.506535 0.161874
84 1 0.332971 0.586885 0.0803805
83 1 0.433524 0.493489 0.0829857
226 1 0.434202 0.567448 0.159501
105 1 0.33956 0.683329 0.993954
88 1 0.516723 0.586272 0.0717099
92 1 0.663908 0.582943 0.076535
91 1 0.739533 0.50821 0.0593554
234 1 0.759655 0.578676 0.148403
93 1 0.826151 0.493806 0.996622
95 1 0.904082 0.504744 0.0915799
76 1 0.0156414 0.580619 0.0832694
96 1 0.827459 0.585348 0.0683975
119 1 0.911352 0.668091 0.0839681
237 1 0.819205 0.48317 0.156528
261 1 0.828915 0.65536 0.164667
238 1 0.919911 0.581033 0.163289
97 1 0.0109632 0.653059 0.00328655
100 1 -0.00312146 0.745366 0.0897818
123 1 0.0958508 0.856969 0.0916958
104 1 0.162569 0.744839 0.0874805
101 1 0.17699 0.671163 0.00984617
98 1 0.0770179 0.742247 -0.00484967
121 1 0.0141106 0.840158 0.00985818
103 1 0.246105 0.671175 0.0919906
127 1 0.243338 0.830968 0.101315
125 1 0.165539 0.821001 -0.00281432
102 1 0.252813 0.75188 0.0195369
107 1 0.420563 0.681267 0.0663459
108 1 0.347901 0.761188 0.0860022
112 1 0.505262 0.762973 0.0800363
253 1 0.501953 0.658591 0.147225
250 1 0.414708 0.748048 0.164311
106 1 0.428707 0.767453 0.994295
277 1 0.505375 0.81727 0.177216
111 1 0.590456 0.666866 0.0754432
115 1 0.763213 0.661177 0.0800286
116 1 0.666866 0.742864 0.0787403
114 1 0.744736 0.758214 1.00179
120 1 0.846066 0.7575 0.0800142
118 1 0.926406 0.748797 -0.00345828
143 1 0.923363 0.836262 0.0888378
285 1 0.84223 0.826588 0.16221
266 1 0.107815 0.940172 0.173961
122 1 0.0998577 0.905417 1.00235
128 1 0.178801 0.915301 0.0890452
132 1 0.34342 0.912891 0.094728
270 1 0.256326 0.923662 0.168046
5 1 0.164473 0.0161973 1.0174
129 1 0.316148 0.84069 -0.00082213
157 1 0.489911 1.00679 0.164273
131 1 0.427107 0.839239 0.088717
15 1 0.58968 0.995527 0.0911492
135 1 0.588646 0.835783 0.0918649
136 1 0.508785 0.922552 0.0971328
139 1 0.755328 0.82986 0.0800712
140 1 0.667817 0.918431 0.0946254
19 1 0.751287 0.00869527 0.0913958
124 1 0.0175258 0.92056 0.0940493
165 1 0.826183 0.984202 0.168966
144 1 0.833842 0.927705 0.0728801
286 1 0.919218 0.9084 0.169775
142 1 0.915747 0.918793 0.000504873
1 1 1.00238 0.995387 0.0086332
290 1 0.084018 0.103782 0.341846
152 1 0.162947 0.104148 0.262872
171 1 0.0823863 0.173995 0.256462
177 1 0.3319 0.157468 0.160698
175 1 0.255692 0.167415 0.251309
151 1 0.255074 0.00878789 0.251739
156 1 0.332541 0.0821717 0.247666
321 1 0.339043 0.166657 0.350249
297 1 0.334026 0.00787882 0.338253
154 1 0.419149 0.0834708 0.157502
160 1 0.490834 0.0751897 0.253315
181 1 0.486032 0.153512 0.179967
179 1 0.3999 0.177434 0.253061
158 1 0.571622 0.0842612 0.168741
302 1 0.57086 0.0855859 0.336305
305 1 0.655568 1.00468 0.324444
164 1 0.655806 0.0964444 0.261283
185 1 0.660776 0.166513 0.16737
163 1 0.755429 0.992977 0.239562
187 1 0.743987 0.172528 0.251336
148 1 0.0103737 0.0920518 0.248175
168 1 0.831088 0.0877171 0.232921
310 1 0.90318 0.0797163 0.320318
169 1 0.00102811 0.181126 0.168364
193 1 -0.0126195 0.349995 0.169477
197 1 0.176475 0.321705 0.169734
173 1 0.17232 0.185923 0.146795
176 1 0.167368 0.246102 0.265784
195 1 0.098703 0.330895 0.256187
174 1 0.261414 0.249986 0.17494
180 1 0.331917 0.2652 0.248719
199 1 0.248496 0.337159 0.254902
341 1 0.183357 0.346372 0.344552
184 1 0.505162 0.248135 0.246377
325 1 0.491934 0.163123 0.317657
349 1 0.495657 0.341508 0.347632
183 1 0.57699 0.163564 0.251906
182 1 0.581081 0.239634 0.151381
188 1 0.653888 0.240445 0.245109
186 1 0.742438 0.257801 0.149217
329 1 0.664545 0.174924 0.328782
211 1 0.749226 0.316445 0.266305
191 1 0.915884 0.16836 0.250233
172 1 0.993687 0.260099 0.239023
190 1 0.905939 0.24907 0.171228
192 1 0.834356 0.252676 0.249409
215 1 0.911338 0.347051 0.244117
337 1 0.999558 0.336965 0.315754
194 1 0.0941739 0.411745 0.172524
196 1 0.000325768 0.416505 0.252433
338 1 0.0739745 0.405776 0.334637
200 1 0.183847 0.418456 0.26623
201 1 0.338016 0.339468 0.152309
342 1 0.258562 0.424935 0.34392
203 1 0.412363 0.336295 0.235667
204 1 0.330076 0.401867 0.251887
227 1 0.40032 0.491194 0.251468
346 1 0.41166 0.406646 0.336277
209 1 0.657329 0.312134 0.165765
208 1 0.493726 0.407668 0.254906
207 1 0.576012 0.325989 0.246154
212 1 0.674253 0.407025 0.260806
210 1 0.73604 0.409842 0.170342
235 1 0.753138 0.509452 0.244732
354 1 0.764569 0.435198 0.322818
377 1 0.67363 0.513004 0.32092
217 1 0.00728322 0.510692 0.180268
216 1 0.827337 0.415634 0.247276
239 1 0.921034 0.504222 0.249629
358 1 0.883233 0.414248 0.359323
361 1 0.997204 0.498324 0.335839
219 1 0.0843466 0.501077 0.262275
218 1 0.109879 0.561572 0.177377
385 1 0.00653416 0.676651 0.326241
362 1 0.107431 0.580505 0.337948
223 1 0.268449 0.488361 0.257803
224 1 0.187273 0.579929 0.253572
247 1 0.254106 0.665495 0.244173
245 1 0.170231 0.660902 0.169566
389 1 0.191789 0.652241 0.334048
366 1 0.262148 0.576982 0.330921
228 1 0.326277 0.589403 0.23904
232 1 0.503437 0.567841 0.245571
251 1 0.423138 0.650918 0.238498
229 1 0.503064 0.470534 0.165661
231 1 0.592785 0.497931 0.240436
230 1 0.572776 0.569269 0.156191
401 1 0.664033 0.673182 0.330035
374 1 0.577517 0.586595 0.324153
236 1 0.657119 0.585939 0.22492
240 1 0.824908 0.590006 0.256233
259 1 0.74205 0.661214 0.242691
241 1 -0.00300047 0.662111 0.188703
220 1 0.0157628 0.591778 0.268515
382 1 0.922894 0.591208 0.338725
242 1 0.0648412 0.745165 0.169263
269 1 0.171685 0.844504 0.178043
243 1 0.0941121 0.662661 0.247091
413 1 0.178281 0.836406 0.347142
246 1 0.258342 0.738055 0.173221
248 1 0.170046 0.753751 0.250091
252 1 0.338144 0.74307 0.262521
256 1 0.490302 0.739865 0.252429
275 1 0.411757 0.824785 0.253489
393 1 0.340299 0.663047 0.333287
255 1 0.565697 0.660303 0.245259
254 1 0.578212 0.741112 0.173659
257 1 0.652324 0.665687 0.156777
258 1 0.751568 0.749048 0.155844
260 1 0.670593 0.73723 0.247055
283 1 0.753149 0.831754 0.24428
262 1 0.932081 0.754888 0.1737
265 1 0.0118546 0.832154 0.179648
263 1 0.899866 0.666529 0.24531
244 1 1.00661 0.758222 0.258181
264 1 0.827589 0.744475 0.234938
287 1 0.925843 0.83215 0.242727
267 1 0.0916366 0.844942 0.278276
147 1 0.0911311 0.0170157 0.274379
272 1 0.179422 0.919843 0.260624
273 1 0.327381 0.829478 0.175208
271 1 0.249149 0.831888 0.254626
293 1 0.179106 0.0108478 0.335627
274 1 0.404243 0.924453 0.186257
155 1 0.403946 0.00570432 0.254551
276 1 0.32755 0.915268 0.261869
280 1 0.4939 0.910408 0.253727
418 1 0.407598 0.913712 0.334051
279 1 0.591135 0.836552 0.262346
159 1 0.564886 0.985464 0.254824
278 1 0.579934 0.90604 0.171638
421 1 0.496221 0.832152 0.33136
282 1 0.745345 0.899259 0.159725
161 1 0.657219 1.0038 0.179752
309 1 0.829659 0.00306507 0.336491
281 1 0.663374 0.82386 0.173383
284 1 0.684395 0.920695 0.254621
268 1 -0.00371179 0.91568 0.252991
167 1 0.918217 0.993608 0.242907
288 1 0.829931 0.919556 0.249691
430 1 0.924943 0.921165 0.331361
434 1 0.0792223 0.0814793 0.501122
461 1 0.162429 0.155858 0.513412
292 1 0.990408 0.0880299 0.411845
315 1 0.0894274 0.181789 0.431285
317 1 0.167445 0.172487 0.357487
294 1 0.254256 0.0890636 0.343883
296 1 0.164818 0.0900986 0.432611
438 1 0.251187 0.0840869 0.507653
298 1 0.415588 0.0915038 0.319467
300 1 0.332298 0.0856175 0.428284
323 1 0.412918 0.163709 0.421579
299 1 0.420648 0.00918062 0.416202
304 1 0.493864 0.0844353 0.418052
445 1 0.505312 -0.00928049 0.500241
303 1 0.60228 0.990615 0.417182
308 1 0.668569 0.0751676 0.416505
327 1 0.59139 0.154649 0.421363
469 1 0.489594 0.162572 0.514559
306 1 0.744791 0.0781813 0.329672
450 1 0.755549 0.0953025 0.513136
477 1 0.832369 0.16954 0.499784
312 1 0.829495 0.0829597 0.41066
331 1 0.754061 0.153624 0.422195
333 1 0.823776 0.152918 0.333671
454 1 0.927852 0.0949292 0.496965
335 1 0.903792 0.162899 0.414219
314 1 0.0913688 0.258803 0.339876
313 1 1.00071 0.159628 0.336136
320 1 0.175201 0.257049 0.42146
316 1 0.00187427 0.251398 0.415682
339 1 0.0677988 0.330684 0.416139
485 1 0.155227 0.32895 0.503544
319 1 0.257342 0.175764 0.424138
318 1 0.254009 0.240313 0.336139
343 1 0.255685 0.342431 0.426851
324 1 0.337551 0.247755 0.434031
322 1 0.415747 0.256209 0.326522
328 1 0.515508 0.251162 0.434266
347 1 0.421811 0.330062 0.42661
326 1 0.581337 0.246348 0.3263
351 1 0.590527 0.340014 0.422068
332 1 0.646949 0.254087 0.4198
470 1 0.582228 0.228753 0.505366
330 1 0.745657 0.234152 0.339231
474 1 0.747276 0.244914 0.50938
357 1 0.833297 0.318311 0.341244
336 1 0.822575 0.243261 0.422733
334 1 0.911609 0.24314 0.343977
359 1 0.922349 0.32602 0.404086
478 1 0.916906 0.236477 0.494853
363 1 0.0795264 0.503356 0.418418
344 1 0.1594 0.423486 0.416498
482 1 0.0744512 0.409858 0.494335
505 1 0.98657 0.485792 0.49081
365 1 0.181453 0.509327 0.33377
348 1 0.324845 0.416895 0.429949
509 1 0.173891 0.497125 0.507846
345 1 0.324588 0.330782 0.340446
369 1 0.344924 0.498733 0.348312
371 1 0.417536 0.500745 0.428901
490 1 0.421082 0.420505 0.498592
353 1 0.66553 0.319816 0.336132
350 1 0.588575 0.42984 0.335639
352 1 0.502122 0.413244 0.423777
494 1 0.573613 0.428333 0.50481
497 1 0.660631 0.316824 0.513858
521 1 0.674157 0.506891 0.481795
355 1 0.732534 0.31456 0.423464
356 1 0.665627 0.414739 0.410353
379 1 0.755523 0.505253 0.405524
360 1 0.806188 0.395673 0.419878
340 1 0.996108 0.408101 0.408892
381 1 0.840246 0.51632 0.328054
368 1 0.182007 0.591162 0.412226
364 1 0.979026 0.589207 0.427445
387 1 0.0968275 0.672919 0.415926
367 1 0.267208 0.519956 0.435906
510 1 0.252694 0.593474 0.517293
372 1 0.339836 0.591221 0.424328
537 1 0.338207 0.669409 0.498365
370 1 0.419586 0.583265 0.324408
373 1 0.49711 0.470329 0.342827
514 1 0.424681 0.582993 0.503759
395 1 0.407498 0.673938 0.411456
376 1 0.494712 0.572837 0.402991
375 1 0.57775 0.505126 0.401439
380 1 0.66516 0.590404 0.402972
378 1 0.747418 0.594092 0.327954
403 1 0.76015 0.683599 0.408865
383 1 0.908193 0.505919 0.414937
384 1 0.832236 0.594767 0.413069
526 1 0.902878 0.5679 0.511896
525 1 0.820807 0.489261 0.494439
549 1 0.841702 0.660171 0.495145
407 1 0.926331 0.678815 0.403647
386 1 0.0962233 0.75855 0.335908
388 1 0.00471091 0.74796 0.415279
390 1 0.256615 0.741223 0.325104
392 1 0.177708 0.752718 0.41316
391 1 0.260864 0.66064 0.422811
415 1 0.248101 0.847189 0.424794
396 1 0.328419 0.757935 0.428407
394 1 0.420987 0.752205 0.342243
397 1 0.489879 0.656558 0.330835
419 1 0.408896 0.839018 0.427544
538 1 0.42336 0.744933 0.49359
399 1 0.586611 0.658649 0.406499
398 1 0.574769 0.755895 0.326387
400 1 0.507306 0.75053 0.419548
542 1 0.579679 0.751664 0.508847
402 1 0.761429 0.737809 0.315014
404 1 0.655383 0.737407 0.40799
425 1 0.66818 0.814376 0.340953
427 1 0.759401 0.828036 0.402507
409 1 0.00229626 0.834273 0.339938
405 1 0.843679 0.665226 0.339369
408 1 0.842706 0.753684 0.427223
406 1 0.922152 0.755713 0.321575
429 1 0.838457 0.829537 0.321387
289 1 -0.00781028 0.0223243 0.332074
410 1 0.0561604 0.927039 0.342264
291 1 0.0816773 0.018589 0.420796
411 1 0.0914296 0.844287 0.405235
412 1 0.989758 0.926739 0.422011
554 1 0.0959381 0.923312 0.491398
417 1 0.33929 0.83081 0.335616
414 1 0.254795 0.921677 0.339713
416 1 0.160859 0.920917 0.399541
295 1 0.240052 1.00645 0.430367
437 1 0.162792 0.00254366 0.506936
301 1 0.496336 0.99724 0.346186
420 1 0.353987 0.921984 0.421893
424 1 0.49918 0.898168 0.417439
422 1 0.590636 0.914169 0.334605
423 1 0.58662 0.821077 0.415126
428 1 0.679626 0.916619 0.415376
426 1 0.762213 0.918539 0.33516
307 1 0.749606 1.00934 0.416395
432 1 0.845855 0.91949 0.3967
311 1 0.91441 1.00827 0.416691
433 1 0.995946 0.00681597 0.497221
431 1 0.922809 0.83287 0.419868
459 1 0.0798119 0.157973 0.588096
578 1 0.0726943 0.0794568 0.66832
436 1 1.00393 0.0828377 0.586026
457 1 1.01082 0.163294 0.50608
605 1 0.179925 0.170688 0.664412
601 1 0.00381293 0.161972 0.685369
465 1 0.335579 0.164024 0.505559
440 1 0.162411 0.0762979 0.59348
463 1 0.254541 0.170125 0.579468
444 1 0.338191 0.0709835 0.587544
609 1 0.33457 0.150697 0.663117
442 1 0.412435 0.0779888 0.493059
448 1 0.494451 0.0679379 0.58582
446 1 0.578678 0.0760615 0.522672
590 1 0.587854 0.0709284 0.660777
452 1 0.683205 0.0727924 0.594077
471 1 0.576666 0.164267 0.599415
451 1 0.760949 1.00862 0.584119
594 1 0.756326 0.0829869 0.680535
456 1 0.84467 0.0804803 0.565929
621 1 0.839931 0.175137 0.669389
617 1 0.662501 0.159928 0.671354
453 1 0.828514 0.991737 0.490726
455 1 0.913306 0.999399 0.569118
479 1 0.904849 0.162323 0.581968
458 1 0.0673673 0.251495 0.515604
464 1 0.157899 0.23768 0.58786
460 1 0.997146 0.243704 0.595445
481 1 0.984959 0.330865 0.511637
462 1 0.256008 0.255178 0.514973
633 1 0.339163 0.326037 0.668889
487 1 0.247426 0.362764 0.575325
489 1 0.331751 0.333807 0.500517
606 1 0.255361 0.246896 0.679104
468 1 0.330783 0.260376 0.590879
467 1 0.411373 0.16363 0.59244
466 1 0.420653 0.245825 0.504849
610 1 0.42507 0.24034 0.67354
472 1 0.495186 0.245034 0.590761
476 1 0.665989 0.244573 0.594387
613 1 0.503579 0.156056 0.689904
473 1 0.653082 0.156853 0.507133
475 1 0.749193 0.168277 0.585982
499 1 0.738785 0.337145 0.586737
618 1 0.757314 0.256825 0.654534
480 1 0.846152 0.256607 0.584216
503 1 0.913415 0.335112 0.600199
645 1 0.822635 0.340452 0.664349
483 1 0.0820348 0.325744 0.586644
626 1 0.0850232 0.407751 0.662458
507 1 0.0557631 0.496491 0.567473
488 1 0.151541 0.41261 0.574404
484 1 1.0022 0.407688 0.576314
486 1 0.257418 0.437294 0.500382
511 1 0.237977 0.483271 0.603623
492 1 0.351075 0.402715 0.572705
630 1 0.271863 0.41588 0.679881
657 1 0.348661 0.499485 0.656213
513 1 0.344271 0.496399 0.526408
493 1 0.50848 0.330993 0.501027
491 1 0.425678 0.322275 0.592028
495 1 0.587582 0.326535 0.597612
496 1 0.511011 0.421806 0.587768
500 1 0.661232 0.413758 0.588152
641 1 0.663596 0.333544 0.672152
498 1 0.727635 0.399596 0.503527
523 1 0.735406 0.487783 0.576931
501 1 0.837462 0.326951 0.493761
502 1 0.907267 0.410569 0.492759
504 1 0.821602 0.417265 0.579222
527 1 0.920477 0.494337 0.583715
646 1 0.906693 0.420621 0.66968
506 1 0.0587996 0.576179 0.498172
508 1 0.987682 0.582352 0.585922
529 1 0.0150552 0.674596 0.501807
512 1 0.170911 0.563911 0.59523
516 1 0.341238 0.585567 0.587703
535 1 0.26001 0.674748 0.587398
533 1 0.169556 0.667198 0.485097
681 1 0.349844 0.670856 0.653168
515 1 0.438387 0.503115 0.590161
539 1 0.413913 0.662745 0.572731
661 1 0.504375 0.509105 0.688312
658 1 0.427623 0.58984 0.668529
685 1 0.502986 0.664589 0.673278
517 1 0.50357 0.503613 0.484363
519 1 0.593182 0.50744 0.599064
520 1 0.518587 0.588723 0.575841
518 1 0.586334 0.579929 0.487447
662 1 0.575858 0.587048 0.675168
543 1 0.587352 0.679226 0.599301
545 1 0.656585 0.665434 0.504455
522 1 0.748764 0.588585 0.503148
524 1 0.667783 0.579056 0.593072
666 1 0.760064 0.580283 0.675648
689 1 0.67309 0.674313 0.663646
547 1 0.746009 0.666123 0.577357
693 1 0.836969 0.665237 0.664698
528 1 0.821127 0.566877 0.578931
669 1 0.822948 0.484354 0.669078
531 1 0.0936411 0.658153 0.570998
530 1 0.0992664 0.752747 0.492977
673 1 1.00903 0.66926 0.653475
674 1 0.0976523 0.735918 0.658557
557 1 0.149771 0.837734 0.495223
536 1 0.166808 0.76524 0.578143
534 1 0.255951 0.744378 0.505805
540 1 0.332567 0.749031 0.580229
563 1 0.409906 0.822096 0.581142
544 1 0.49934 0.738123 0.581832
561 1 0.322069 0.832878 0.504587
541 1 0.505317 0.664149 0.483014
567 1 0.590756 0.846387 0.586598
686 1 0.592359 0.764735 0.664131
709 1 0.504692 0.823148 0.655876
546 1 0.749015 0.739332 0.499078
569 1 0.67586 0.818469 0.474516
548 1 0.669935 0.760605 0.581537
571 1 0.767284 0.843886 0.577896
573 1 0.825404 0.839832 0.488097
532 1 -0.0132321 0.761324 0.587418
551 1 0.909554 0.669858 0.581527
552 1 0.836551 0.762832 0.565729
550 1 0.921947 0.754267 0.495186
553 1 0.0147804 0.830373 0.497859
435 1 0.0847641 0.998564 0.585036
555 1 0.0860329 0.838758 0.585023
556 1 -0.000355498 0.919806 0.567528
698 1 0.0842853 0.926232 0.674539
558 1 0.2427 0.92384 0.512422
441 1 0.329188 -0.00634854 0.502782
581 1 0.157201 1.00417 0.665295
439 1 0.245674 0.00943341 0.592379
560 1 0.173468 0.909933 0.583308
559 1 0.247732 0.826127 0.579215
702 1 0.244749 0.907544 0.664823
564 1 0.338922 0.910978 0.584294
443 1 0.419351 -0.00455752 0.572656
562 1 0.43723 0.915869 0.4989
568 1 0.506045 0.913673 0.5909
449 1 0.683426 0.00704297 0.502372
566 1 0.591211 0.907913 0.501834
447 1 0.593473 -0.00799095 0.585196
565 1 0.501732 0.826872 0.521275
713 1 0.673144 0.836481 0.671573
710 1 0.582672 0.914674 0.674349
570 1 0.745383 0.924836 0.504271
572 1 0.680172 0.922074 0.588854
576 1 0.839749 0.921398 0.588353
597 1 0.84309 0.00313154 0.659527
575 1 0.922193 0.83455 0.559752
574 1 0.904802 0.915773 0.487646
577 1 0.990234 -0.00126793 0.651384
603 1 0.0889506 0.166798 0.744317
722 1 0.0841732 0.076656 0.835683
582 1 0.256953 0.075737 0.67636
584 1 0.171855 0.082248 0.754334
588 1 0.340706 0.0671907 0.755605
753 1 0.330895 0.155651 0.839712
586 1 0.413699 0.0770774 0.672808
730 1 0.413466 0.0735333 0.834039
611 1 0.409106 0.151312 0.7609
587 1 0.409186 0.979876 0.749278
592 1 0.492244 0.0697783 0.753203
757 1 0.50196 0.154712 0.833938
596 1 0.682376 0.0717172 0.751668
591 1 0.596929 0.00363741 0.763654
761 1 0.672926 0.150726 0.829887
619 1 0.745632 0.16998 0.743281
595 1 0.759384 0.990523 0.741787
737 1 0.675957 0.00235321 0.826873
598 1 0.923012 0.0854172 0.680261
580 1 1.00067 0.0849875 0.75486
600 1 0.833204 0.072866 0.751239
623 1 0.914143 0.161929 0.755545
765 1 0.822216 0.157862 0.821983
602 1 0.0856568 0.24359 0.666343
627 1 0.0883385 0.329289 0.763347
773 1 0.169558 0.327662 0.844009
608 1 0.161366 0.257968 0.744458
607 1 0.245339 0.166858 0.769062
629 1 0.171024 0.328631 0.65926
750 1 0.248051 0.249061 0.83043
612 1 0.326237 0.23609 0.759407
777 1 0.343615 0.32847 0.816044
616 1 0.507685 0.247715 0.760534
635 1 0.425786 0.319212 0.736791
615 1 0.592162 0.144894 0.763163
614 1 0.575628 0.24216 0.668521
758 1 0.592527 0.230588 0.830018
620 1 0.666057 0.24398 0.736935
624 1 0.846361 0.241348 0.744162
622 1 0.919883 0.24428 0.674798
604 1 1.02013 0.247565 0.752975
632 1 0.161143 0.40604 0.762402
628 1 0.995441 0.416698 0.736228
769 1 1.00913 0.336126 0.838754
631 1 0.25448 0.331856 0.755384
636 1 0.354306 0.413677 0.741061
634 1 0.424622 0.421972 0.650418
778 1 0.42138 0.399403 0.817316
640 1 0.500707 0.411084 0.747169
659 1 0.415829 0.501607 0.752846
805 1 0.506781 0.495712 0.813293
637 1 0.513981 0.336747 0.664538
638 1 0.588048 0.425095 0.670064
639 1 0.585648 0.337263 0.754116
782 1 0.598366 0.41875 0.831122
642 1 0.741534 0.413963 0.670434
643 1 0.75571 0.312515 0.748032
644 1 0.671734 0.411294 0.764601
813 1 0.838048 0.493447 0.835855
667 1 0.752269 0.487327 0.747399
625 1 1.00389 0.323729 0.675068
647 1 0.913913 0.339233 0.750961
648 1 0.817203 0.402049 0.754788
671 1 0.915336 0.499297 0.740222
653 1 0.144868 0.485975 0.661276
649 1 -0.0010263 0.483411 0.657827
650 1 0.0756897 0.581341 0.654618
651 1 0.087631 0.487064 0.749015
677 1 0.178652 0.656824 0.664261
652 1 0.00253105 0.560002 0.733663
654 1 0.258151 0.585528 0.645744
655 1 0.246014 0.505515 0.73894
656 1 0.16807 0.580618 0.735893
798 1 0.264714 0.580441 0.818608
660 1 0.340085 0.57746 0.735178
664 1 0.498984 0.590957 0.761093
683 1 0.415175 0.674251 0.767462
665 1 0.674997 0.506995 0.665369
663 1 0.589551 0.51113 0.746639
668 1 0.672636 0.58779 0.744984
806 1 0.598816 0.590054 0.823882
691 1 0.753621 0.66546 0.746233
810 1 0.741701 0.583764 0.836039
670 1 0.906323 0.585717 0.65677
672 1 0.848072 0.582693 0.760295
695 1 0.921944 0.651039 0.742921
675 1 0.0774669 0.648062 0.733535
680 1 0.169328 0.734441 0.746627
818 1 0.0941985 0.725716 0.816674
678 1 0.248463 0.750491 0.667997
679 1 0.267238 0.664854 0.75291
703 1 0.252916 0.82841 0.749476
682 1 0.432246 0.753514 0.668941
705 1 0.336363 0.824841 0.66442
684 1 0.337212 0.75661 0.744379
707 1 0.417093 0.834688 0.732955
688 1 0.486525 0.757654 0.750374
826 1 0.403648 0.756034 0.843734
687 1 0.588322 0.661099 0.744884
711 1 0.585127 0.841382 0.746283
690 1 0.769751 0.753929 0.648179
692 1 0.669552 0.739843 0.74605
715 1 0.765749 0.822776 0.740376
696 1 0.841371 0.754092 0.746654
837 1 0.827039 0.671965 0.824064
857 1 0.662724 0.818184 0.829417
861 1 0.85491 0.826268 0.848937
717 1 0.844055 0.840561 0.665442
697 1 0.01631 0.83061 0.671717
694 1 0.915179 0.756275 0.669419
676 1 0.998733 0.746189 0.736009
719 1 0.920542 0.83553 0.749213
579 1 0.094104 0.00657818 0.751063
699 1 0.0934671 0.812861 0.751799
700 1 0.995059 0.912526 0.751712
841 1 0.993382 0.841595 0.837899
842 1 0.0798467 0.908678 0.830158
721 1 -0.00454631 0.996522 0.83657
585 1 0.338525 0.989561 0.667211
583 1 0.244889 0.990926 0.744877
701 1 0.153724 0.843449 0.665514
704 1 0.171597 0.918077 0.757593
846 1 0.251223 0.910466 0.824302
708 1 0.327305 0.908629 0.737295
589 1 0.5165 0.995549 0.68341
706 1 0.425376 0.923631 0.657991
850 1 0.399604 0.905945 0.820983
712 1 0.499169 0.919534 0.752376
733 1 0.486099 0.98831 0.83709
714 1 0.769071 0.919966 0.669001
593 1 0.664051 0.998323 0.673727
716 1 0.673819 0.910978 0.747745
718 1 0.923128 0.90822 0.661866
599 1 0.922694 0.00376774 0.757644
720 1 0.841299 0.926842 0.764678
725 1 0.166661 0.994378 0.83905
2 1 0.0773559 0.0974409 0.020603
724 1 -0.00659897 0.0715604 0.920864
729 1 0.329665 0.990543 0.833317
749 1 0.156149 0.177966 0.826547
726 1 0.246717 0.0658298 0.834265
728 1 0.172734 0.0810545 0.925781
732 1 0.328898 0.0705792 0.914896
9 1 0.321105 0.984067 0.0159587
10 1 0.403861 0.0664121 0.996964
731 1 0.407314 0.966962 0.914086
13 1 0.503699 -0.00615162 -0.00543726
734 1 0.573003 0.0756658 0.843944
736 1 0.485766 0.0631777 0.920261
735 1 0.585062 0.985057 0.923237
738 1 0.763438 0.0680267 0.840693
740 1 0.665061 0.0674831 0.917572
744 1 0.840715 0.0777389 0.926163
742 1 0.922958 0.0889736 0.837353
745 1 -0.000503181 0.171819 0.82872
22 1 0.920482 0.0851108 0.00614761
747 1 0.0880969 0.160481 0.922185
746 1 0.0727336 0.250969 0.845177
25 1 0.995859 0.173903 0.00721321
752 1 0.1741 0.254265 0.921556
751 1 0.252618 0.161695 0.908824
775 1 0.268496 0.336846 0.901027
756 1 0.337385 0.23447 0.90856
755 1 0.416517 0.150825 0.911904
754 1 0.415724 0.254184 0.829914
779 1 0.423694 0.330425 0.902103
61 1 0.502377 0.320063 0.993614
781 1 0.495785 0.331601 0.823591
759 1 0.582498 0.162081 0.91089
760 1 0.502947 0.238266 0.918448
783 1 0.575949 0.313789 0.899032
764 1 0.674466 0.239931 0.91646
45 1 0.841304 0.167862 0.0101248
69 1 0.812142 0.329257 1.00583
789 1 0.821401 0.330835 0.826079
763 1 0.749771 0.138933 0.92241
42 1 0.749023 0.239522 -0.00053899
762 1 0.745676 0.248105 0.830545
768 1 0.813145 0.230164 0.919734
785 1 0.665902 0.327029 0.836122
49 1 0.994624 0.3358 0.999004
767 1 0.915452 0.180264 0.928122
766 1 0.919607 0.25155 0.826223
748 1 0.996338 0.25831 0.92494
791 1 0.888551 0.311579 0.909761
771 1 0.0955147 0.332194 0.922621
770 1 0.07902 0.417036 0.831518
795 1 0.0756574 0.501337 0.901989
772 1 -0.00497771 0.416099 0.911888
797 1 0.166844 0.512665 0.822423
776 1 0.186651 0.41547 0.903144
54 1 0.258699 0.402348 0.989906
774 1 0.249642 0.433415 0.822094
801 1 0.33285 0.492677 0.817826
58 1 0.4284 0.4185 0.986065
780 1 0.331916 0.422311 0.902858
784 1 0.503274 0.399244 0.910909
803 1 0.412233 0.499391 0.904642
65 1 0.656006 0.325235 0.00524055
62 1 0.58364 0.415546 0.981905
788 1 0.664483 0.416643 0.909186
807 1 0.59842 0.508449 0.910747
787 1 0.754067 0.32311 0.913023
786 1 0.757888 0.407962 0.840854
792 1 0.835263 0.407978 0.910878
811 1 0.744306 0.504003 0.911184
793 1 0.992058 0.496737 0.82011
790 1 0.913681 0.411949 0.829883
815 1 0.913264 0.497384 0.91586
817 1 0.998665 0.651666 0.813293
794 1 0.0690518 0.573776 0.824031
819 1 0.0797078 0.658432 0.91209
800 1 0.170292 0.581985 0.908665
796 1 1.00013 0.578491 0.9145
799 1 0.249988 0.49992 0.904822
81 1 0.343498 0.485909 0.00169129
804 1 0.330258 0.578979 0.923825
82 1 0.432416 0.584095 0.992842
85 1 0.508519 0.497307 0.977415
802 1 0.407593 0.583545 0.833131
89 1 0.660835 0.495418 -0.0076016
86 1 0.58562 0.577971 0.994153
808 1 0.496143 0.57839 0.903363
829 1 0.500966 0.676247 0.840192
812 1 0.665457 0.593349 0.922479
90 1 0.759025 0.591583 0.974192
833 1 0.670491 0.669679 0.828437
809 1 0.668663 0.503192 0.819948
816 1 0.84526 0.578633 0.908853
814 1 0.920173 0.571718 0.831824
94 1 0.933517 0.572354 0.0068027
839 1 0.92386 0.656797 0.933274
820 1 -0.00462024 0.748958 0.911003
843 1 0.0925129 0.824772 0.916826
821 1 0.171279 0.647596 0.817002
824 1 0.159776 0.736778 0.916782
823 1 0.238566 0.672464 0.912359
822 1 0.227827 0.74254 0.832673
825 1 0.325223 0.672649 0.842676
828 1 0.329808 0.754577 0.925009
849 1 0.323094 0.831219 0.842931
827 1 0.423396 0.660013 0.916449
109 1 0.514139 0.679034 -0.00526382
851 1 0.407518 0.850517 0.911063
113 1 0.680798 0.676949 0.989623
830 1 0.581007 0.744913 0.819948
831 1 0.58559 0.662805 0.90836
832 1 0.52026 0.747177 0.919059
110 1 0.586989 0.760411 0.00778294
855 1 0.576309 0.840553 0.923365
836 1 0.650837 0.763383 0.924339
137 1 0.671361 0.849506 1.00883
835 1 0.761434 0.682869 0.907002
834 1 0.749084 0.760768 0.813864
859 1 0.755345 0.817544 0.902566
117 1 0.835796 0.665633 0.996725
840 1 0.845077 0.756779 0.930417
141 1 0.839066 0.837769 0.0102211
838 1 0.92535 0.735519 0.82304
863 1 0.933652 0.830167 0.930906
723 1 0.0946798 1.01033 0.932882
848 1 0.167458 0.912016 0.909853
126 1 0.225201 0.908927 0.00283094
845 1 0.16432 0.834791 0.840202
847 1 0.240813 0.825334 0.915298
727 1 0.24292 0.983449 0.920485
852 1 0.312496 0.911519 0.91497
130 1 0.428599 0.922368 0.00898815
133 1 0.497228 0.839086 0.00197046
134 1 0.580292 0.915986 0.0115959
853 1 0.506789 0.83289 0.837359
854 1 0.579068 0.91835 0.840681
856 1 0.488659 0.913558 0.910345
138 1 0.758181 0.902674 0.990196
858 1 0.760332 0.900595 0.825022
17 1 0.67769 0.973855 0.998151
739 1 0.744841 0.975243 0.895917
21 1 0.831645 0.00418386 0.00849683
860 1 0.671399 0.901144 0.904251
741 1 0.847948 1.00562 0.835611
862 1 0.924455 0.913476 0.841383
844 1 0.027436 0.915536 0.92132
743 1 0.93055 0.99618 0.91261
864 1 0.842045 0.909217 0.917255
