ITEM: TIMESTEP
3000
ITEM: NUMBER OF ATOMS
864
ITEM: BOX BOUNDS pp pp pp
0.0000000000000000e+00 3.1559999999999999e+01
0.0000000000000000e+00 3.1559999999999999e+01
0.0000000000000000e+00 3.1559999999999999e+01
ITEM: ATOMS id type xs ys zs
3 1 0.0781904 0.00381121 0.0866922
145 1 0.998779 1.00321 0.159497
146 1 0.0929768 0.0772126 0.170866
169 1 1.00089 0.169648 0.154503
2 1 0.0854138 0.0827441 1.00426
5 1 0.178569 0.988195 -0.00865191
7 1 0.245358 0.994104 0.0732935
8 1 0.167103 0.0863846 0.0834615
12 1 0.32857 0.0738539 0.0892352
149 1 0.155868 0.989235 0.164884
6 1 0.254604 0.0840916 0.000295177
29 1 0.167699 0.161901 -0.000286359
16 1 0.505921 0.0825094 0.08462
35 1 0.420191 0.163887 0.0812786
11 1 0.417069 0.99335 0.0833418
154 1 0.418081 0.0757321 0.161515
14 1 0.577841 0.0786342 0.992105
39 1 0.571497 0.17143 0.0833142
15 1 0.578456 0.00026242 0.0819468
158 1 0.579863 0.0907575 0.166211
20 1 0.684215 0.0790363 0.0808895
43 1 0.75191 0.182045 0.0818133
165 1 0.817121 0.00507557 0.171545
18 1 0.749325 0.0929626 0.992546
4 1 0.993135 0.0822032 0.0751294
23 1 0.890916 0.0117028 0.0933092
24 1 0.82722 0.0988591 0.0702578
47 1 0.913758 0.174833 0.0766158
27 1 0.0788421 0.156679 0.0839247
28 1 0.9951 0.253738 0.0896873
51 1 0.0826373 0.322709 0.0719714
26 1 0.0842984 0.242916 0.995969
32 1 0.160079 0.246361 0.0892152
31 1 0.261493 0.165712 0.0963043
36 1 0.338906 0.244629 0.0891475
173 1 0.1604 0.155575 0.169343
55 1 0.246443 0.335187 0.0931531
57 1 0.326724 0.337872 0.0153815
37 1 0.502068 0.15837 -0.00867556
178 1 0.414342 0.26753 0.165753
59 1 0.422289 0.346057 0.0886841
38 1 0.585175 0.238329 0.993175
40 1 0.493629 0.252858 0.0904085
182 1 0.573929 0.238982 0.178655
44 1 0.671881 0.257446 0.0695187
48 1 0.836585 0.252969 0.0691411
41 1 0.667206 0.160475 0.00857173
71 1 0.905062 0.338961 0.0716787
46 1 0.924286 0.258121 0.994448
53 1 0.172085 0.34015 0.00528833
50 1 0.0699487 0.409098 0.00591297
56 1 0.166265 0.411493 0.090247
54 1 0.251302 0.423238 0.0105932
60 1 0.333595 0.42949 0.0912887
81 1 0.326065 0.509783 0.997988
77 1 0.166097 0.484628 0.00440882
64 1 0.498456 0.432432 0.0961874
83 1 0.408762 0.507135 0.101283
63 1 0.580088 0.322169 0.0793202
68 1 0.662937 0.411569 0.0808144
229 1 0.494112 0.503051 0.188205
67 1 0.756839 0.328091 0.0744206
210 1 0.753658 0.420774 0.17529
209 1 0.67227 0.335321 0.167165
213 1 0.834182 0.323704 0.154722
49 1 1.00532 0.325095 0.99025
52 1 0.993666 0.417426 0.0795922
72 1 0.821077 0.412727 0.0725523
75 1 0.0741384 0.485119 0.0809842
74 1 0.0816457 0.566401 0.999031
80 1 0.168452 0.570816 0.0769346
218 1 0.0680711 0.571557 0.164669
217 1 0.983325 0.495455 0.164145
73 1 -0.010575 0.504853 0.00406308
79 1 0.251358 0.50325 0.0862286
103 1 0.249315 0.666918 0.0770059
78 1 0.242877 0.588597 1.00248
105 1 0.334563 0.657595 1.00309
84 1 0.33404 0.587201 0.0915673
88 1 0.494128 0.586535 0.0847219
85 1 0.496301 0.495864 0.0102564
82 1 0.421412 0.578631 0.00701591
87 1 0.58051 0.503018 0.0857019
230 1 0.591769 0.586691 0.163779
91 1 0.747107 0.493641 0.0886315
90 1 0.740105 0.579178 -0.0141658
92 1 0.658975 0.585911 0.0812392
96 1 0.833598 0.58784 0.0931684
233 1 0.66908 0.506444 0.173971
234 1 0.753918 0.587176 0.181488
237 1 0.829581 0.507071 0.176162
95 1 0.911606 0.496111 0.0811606
76 1 0.000755391 0.584698 0.0839262
93 1 0.835757 0.49117 0.998395
99 1 0.0971431 0.653916 0.0846357
98 1 0.0796978 0.73408 -0.00920206
104 1 0.159011 0.750302 0.0867581
101 1 0.162812 0.663766 0.00133308
108 1 0.340694 0.746979 0.0819619
106 1 0.411502 0.742129 -0.00260825
107 1 0.418771 0.66363 0.0804117
112 1 0.500887 0.74551 0.0861779
111 1 0.587034 0.672379 0.0794736
254 1 0.573969 0.757068 0.175717
115 1 0.752408 0.669937 0.0857138
116 1 0.671793 0.761099 0.0811511
120 1 0.841394 0.746693 0.0767219
137 1 0.671143 0.856099 0.00118199
261 1 0.833752 0.660818 0.173411
119 1 0.913107 0.661916 0.0855967
100 1 1.00225 0.747048 0.072046
262 1 0.920238 0.74352 0.163867
123 1 0.073574 0.84445 0.0870569
128 1 0.15593 0.910098 0.0813177
266 1 0.0853856 0.914469 0.176732
127 1 0.241942 0.841916 0.089939
131 1 0.418061 0.815418 0.0922823
132 1 0.317511 0.916904 0.0881369
274 1 0.406961 0.915066 0.164834
135 1 0.580989 0.827812 0.0931135
136 1 0.490236 0.90575 0.0809341
17 1 0.65974 0.996894 0.998331
140 1 0.659028 0.907639 0.0874848
13 1 0.500428 0.984842 1.00417
139 1 0.754007 0.845552 0.0832087
19 1 0.756179 0.00514459 0.0866411
282 1 0.758574 0.903113 0.183664
144 1 0.832663 0.92412 0.0926607
124 1 0.00237473 0.927552 0.070689
143 1 0.917789 0.835826 0.0847263
265 1 0.989697 0.842962 0.164028
148 1 0.994301 0.0748147 0.25705
152 1 0.171525 0.0794578 0.25058
150 1 0.247312 0.0734172 0.165409
175 1 0.256592 0.173 0.252727
321 1 0.333592 0.167739 0.33549
151 1 0.24717 0.988078 0.252481
181 1 0.490287 0.157041 0.17383
153 1 0.319348 0.986453 0.165826
156 1 0.33406 0.0857388 0.258111
160 1 0.496385 0.0673293 0.247595
179 1 0.422211 0.16998 0.259402
298 1 0.413577 0.0811781 0.330612
325 1 0.494146 0.171409 0.333359
161 1 0.672258 0.990949 0.167004
157 1 0.500552 0.990836 0.168449
159 1 0.58222 0.997796 0.237659
164 1 0.667412 0.0756714 0.258947
183 1 0.58249 0.152331 0.247669
162 1 0.751894 0.0855009 0.164195
163 1 0.762443 1.00903 0.264856
168 1 0.848025 0.10183 0.246316
187 1 0.750844 0.168556 0.23531
306 1 0.765604 0.0933162 0.338032
166 1 0.9215 0.0897832 0.166852
191 1 0.927859 0.171678 0.259312
167 1 0.929912 0.994255 0.250777
333 1 0.828203 0.170585 0.335859
171 1 0.0843324 0.15838 0.249534
170 1 0.0761495 0.2591 0.161213
176 1 0.160717 0.24346 0.23895
195 1 0.080215 0.340276 0.253373
174 1 0.255079 0.248942 0.167504
197 1 0.169819 0.325387 0.174076
199 1 0.259368 0.348907 0.253893
177 1 0.345412 0.158083 0.167659
180 1 0.340362 0.280008 0.252338
322 1 0.41382 0.247027 0.337752
184 1 0.493219 0.264919 0.245394
203 1 0.412906 0.348489 0.247985
207 1 0.5887 0.324215 0.25074
185 1 0.660889 0.172722 0.15018
349 1 0.490014 0.331467 0.343062
326 1 0.584783 0.244916 0.333352
186 1 0.739475 0.251355 0.163275
188 1 0.665701 0.251729 0.245433
353 1 0.676708 0.338831 0.332692
330 1 0.746592 0.257748 0.334028
189 1 0.842349 0.175312 0.157084
192 1 0.839584 0.243607 0.246214
172 1 -0.00720475 0.252969 0.247408
190 1 0.926374 0.252704 0.166578
194 1 0.0761783 0.414688 0.164467
200 1 0.150815 0.425704 0.25463
196 1 -0.00439579 0.412258 0.254588
219 1 0.0744688 0.497898 0.247457
338 1 0.0828514 0.405848 0.341311
365 1 0.162169 0.497354 0.338155
201 1 0.332342 0.336383 0.151815
198 1 0.254008 0.422975 0.175748
225 1 0.331751 0.498496 0.188432
342 1 0.24231 0.413658 0.335016
202 1 0.41255 0.427841 0.170805
204 1 0.330597 0.423031 0.27015
346 1 0.422068 0.418353 0.34809
205 1 0.510299 0.342584 0.167139
227 1 0.417929 0.494753 0.260565
206 1 0.585245 0.418386 0.16662
208 1 0.500763 0.405766 0.254239
350 1 0.581522 0.413703 0.322153
373 1 0.504098 0.498184 0.32717
211 1 0.753532 0.3326 0.248834
212 1 0.657957 0.414983 0.249658
216 1 0.836572 0.413856 0.258963
214 1 0.909433 0.417575 0.169921
193 1 0.979839 0.336111 0.159381
215 1 0.914347 0.338148 0.247758
358 1 0.913688 0.413792 0.334666
221 1 0.155792 0.504217 0.170454
220 1 0.990149 0.577454 0.240935
224 1 0.159033 0.571903 0.258508
362 1 0.0775877 0.595809 0.33409
249 1 0.335361 0.659527 0.173868
223 1 0.244266 0.499881 0.263737
222 1 0.243529 0.579355 0.173041
245 1 0.171712 0.661538 0.182226
366 1 0.257516 0.580735 0.327138
247 1 0.25021 0.655923 0.249169
226 1 0.422771 0.594381 0.165806
228 1 0.338088 0.574406 0.251613
251 1 0.4097 0.660487 0.250916
369 1 0.338907 0.505815 0.338191
370 1 0.417871 0.593817 0.33365
231 1 0.590346 0.494791 0.244396
232 1 0.513504 0.587517 0.260401
374 1 0.587872 0.5912 0.343668
236 1 0.656715 0.578182 0.250447
235 1 0.744492 0.498086 0.25796
377 1 0.660011 0.502645 0.331067
378 1 0.750362 0.592954 0.322442
239 1 0.915024 0.488717 0.258283
241 1 1.00479 0.658006 0.164511
240 1 0.837549 0.578125 0.253109
238 1 0.91129 0.58403 0.166609
382 1 0.921659 0.576333 0.327136
242 1 0.0683265 0.757768 0.150439
243 1 0.0748318 0.665978 0.237346
244 1 1.00096 0.748995 0.239479
246 1 0.250545 0.732607 0.168693
248 1 0.163377 0.750307 0.2501
269 1 0.156317 0.827131 0.164332
271 1 0.241385 0.8398 0.265155
250 1 0.413056 0.746251 0.169729
273 1 0.332524 0.8284 0.163588
252 1 0.318934 0.749561 0.254851
393 1 0.321769 0.668521 0.33264
253 1 0.502851 0.662364 0.162107
257 1 0.671711 0.668314 0.163391
255 1 0.592786 0.666942 0.249696
256 1 0.499391 0.745968 0.263889
279 1 0.580239 0.830085 0.25203
260 1 0.668928 0.74623 0.249036
258 1 0.752581 0.766731 0.161373
259 1 0.741465 0.675999 0.238351
402 1 0.740736 0.75333 0.336115
405 1 0.835709 0.659626 0.339981
429 1 0.834873 0.830315 0.337112
263 1 0.918592 0.658546 0.248039
264 1 0.821876 0.739604 0.256687
406 1 0.918174 0.753221 0.341927
147 1 0.0758 1.01667 0.253022
267 1 0.0762326 0.828668 0.237631
268 1 1.00131 0.914444 0.245524
293 1 0.17172 0.989839 0.336084
270 1 0.234006 0.908487 0.178209
272 1 0.163265 0.908656 0.259404
276 1 0.330379 0.899405 0.248652
155 1 0.404046 0.993582 0.237605
297 1 0.332965 1.0001 0.330723
275 1 0.420661 0.830157 0.25702
281 1 0.662549 0.829695 0.171853
277 1 0.5073 0.837924 0.174366
278 1 0.578779 0.914742 0.165503
280 1 0.486802 0.921754 0.253004
284 1 0.674382 0.917549 0.263232
283 1 0.745587 0.825863 0.256646
288 1 0.841579 0.90813 0.259255
426 1 0.758831 0.910817 0.333087
285 1 0.841431 0.82087 0.162777
286 1 0.91044 0.919239 0.165798
287 1 0.918421 0.827503 0.252063
290 1 0.089151 0.0677922 0.344405
317 1 0.170909 0.165443 0.328034
315 1 0.0844701 0.171776 0.413983
292 1 0.0144352 0.0721121 0.417052
434 1 0.0718464 0.0948941 0.507644
294 1 0.252881 0.086755 0.339221
296 1 0.164809 0.0964932 0.420717
461 1 0.176851 0.187663 0.492017
437 1 0.16223 0.0160033 0.518707
438 1 0.246904 0.0980058 0.492837
300 1 0.335851 0.0786294 0.407547
469 1 0.504315 0.157789 0.497329
304 1 0.500168 0.0828984 0.412801
299 1 0.409658 -0.00631358 0.41203
442 1 0.411253 0.0760599 0.49454
329 1 0.669744 0.163429 0.332738
302 1 0.579372 0.0759846 0.332607
327 1 0.585723 0.158562 0.41285
303 1 0.580994 0.997978 0.417618
308 1 0.677873 0.0819108 0.407745
312 1 0.850532 0.078122 0.432233
331 1 0.754473 0.165552 0.425479
449 1 0.669754 -0.000378606 0.494461
313 1 -0.00562773 0.154134 0.345133
310 1 0.914616 0.0787641 0.333414
335 1 0.917852 0.171629 0.413695
454 1 0.935314 0.0865009 0.497972
314 1 0.0818761 0.248436 0.321412
318 1 0.268196 0.247161 0.321658
319 1 0.247874 0.172944 0.409141
320 1 0.162697 0.266908 0.403864
345 1 0.334626 0.339622 0.339714
323 1 0.412528 0.15865 0.415636
324 1 0.333519 0.247502 0.417993
465 1 0.336737 0.173102 0.496905
347 1 0.416451 0.342062 0.431649
489 1 0.326884 0.333332 0.493717
328 1 0.496272 0.245746 0.413153
332 1 0.670049 0.256372 0.416042
336 1 0.835724 0.263881 0.409303
334 1 0.911495 0.256126 0.329426
316 1 0.987269 0.251764 0.403722
478 1 0.921383 0.262511 0.50127
339 1 0.0689691 0.326613 0.41773
341 1 0.166195 0.330172 0.316211
343 1 0.244562 0.338659 0.402767
344 1 0.167248 0.416739 0.425451
485 1 0.164972 0.329735 0.493422
348 1 0.336215 0.42273 0.404622
352 1 0.512669 0.420591 0.418826
351 1 0.580901 0.338519 0.414079
494 1 0.576635 0.425698 0.501531
354 1 0.748411 0.418328 0.335244
355 1 0.742294 0.33603 0.429718
357 1 0.820327 0.339519 0.339442
356 1 0.67137 0.429005 0.420205
360 1 0.833341 0.418614 0.417754
337 1 0.997989 0.3345 0.331379
340 1 1.01087 0.420414 0.417347
359 1 0.926632 0.345807 0.424913
363 1 0.0952081 0.504196 0.420449
385 1 0.990548 0.671544 0.333705
368 1 0.167381 0.599981 0.416916
389 1 0.171074 0.653799 0.322308
387 1 0.086421 0.66869 0.423464
367 1 0.248046 0.495649 0.41358
391 1 0.24248 0.674382 0.421486
371 1 0.418902 0.50955 0.415791
372 1 0.332241 0.58793 0.416795
514 1 0.410082 0.582256 0.493026
376 1 0.502637 0.587291 0.414011
517 1 0.503094 0.505217 0.505221
375 1 0.585908 0.501008 0.419374
399 1 0.588421 0.676024 0.423908
379 1 0.746266 0.500608 0.415462
380 1 0.671601 0.58967 0.414862
521 1 0.665339 0.508809 0.494731
522 1 0.759436 0.592117 0.503284
381 1 0.831721 0.503248 0.324998
361 1 0.00132838 0.504032 0.326653
383 1 0.921652 0.505068 0.435563
364 1 0.00647777 0.576679 0.428152
384 1 0.850553 0.587273 0.424442
386 1 0.0825552 0.742265 0.336679
409 1 -0.0047871 0.825791 0.329335
388 1 0.00646475 0.754116 0.415695
411 1 0.0703349 0.846171 0.405966
553 1 -0.00237216 0.840207 0.498727
413 1 0.157675 0.833208 0.328083
390 1 0.237942 0.751247 0.341979
392 1 0.157068 0.764055 0.415547
415 1 0.252579 0.823528 0.423885
557 1 0.167207 0.831495 0.500762
394 1 0.406788 0.74781 0.334218
397 1 0.506467 0.672923 0.340326
395 1 0.418558 0.670467 0.416259
396 1 0.326201 0.755868 0.422795
419 1 0.421445 0.833418 0.418747
545 1 0.652468 0.680089 0.504111
398 1 0.588537 0.752614 0.335296
400 1 0.497262 0.751402 0.416543
404 1 0.665656 0.756633 0.414911
541 1 0.494338 0.67698 0.498795
401 1 0.680318 0.670143 0.338276
403 1 0.763496 0.650177 0.41536
427 1 0.756526 0.831075 0.415482
546 1 0.751554 0.752496 0.486798
407 1 0.924259 0.667545 0.409816
408 1 0.832859 0.747856 0.414697
431 1 0.911078 0.844638 0.425903
549 1 0.835815 0.669415 0.500997
550 1 0.918258 0.753674 0.502399
289 1 1.00368 -1.06627e-05 0.340634
291 1 0.0997496 -0.0118756 0.416189
410 1 0.0823818 0.927627 0.33327
412 1 -0.00156032 0.935011 0.426954
295 1 0.240305 0.00211491 0.43206
414 1 0.255541 0.922621 0.340681
416 1 0.163301 0.911043 0.424953
441 1 0.331456 0.00399075 0.497311
417 1 0.321494 0.837761 0.33969
418 1 0.406664 0.910611 0.342086
420 1 0.328053 0.929549 0.422733
424 1 0.502403 0.913612 0.423199
301 1 0.492814 0.994179 0.338128
422 1 0.578563 0.920184 0.318452
425 1 0.667052 0.836379 0.341319
421 1 0.508154 0.840821 0.3514
423 1 0.576958 0.82521 0.429966
309 1 0.844245 -0.0142421 0.338083
305 1 0.673502 0.99699 0.332844
307 1 0.75757 -0.00215721 0.404965
428 1 0.670095 0.921199 0.41569
430 1 0.928795 0.909905 0.334106
311 1 0.924504 1.00675 0.423183
432 1 0.830786 0.921147 0.428853
433 1 0.00907642 1.003 0.507963
574 1 0.912255 0.914216 0.505337
457 1 0.996548 0.174034 0.492179
436 1 1.00154 0.0828923 0.595816
578 1 0.0870606 0.0825286 0.665317
440 1 0.17154 0.10618 0.574938
444 1 0.32395 0.0823642 0.584208
582 1 0.240921 0.0850577 0.658649
446 1 0.579778 0.0781896 0.496252
448 1 0.489382 0.0792351 0.571687
452 1 0.656588 0.0879467 0.583758
450 1 0.740282 0.0808367 0.498786
473 1 0.670782 0.167268 0.506192
617 1 0.681491 0.1673 0.656074
475 1 0.7611 0.154393 0.567496
477 1 0.840741 0.191698 0.49425
456 1 0.846472 0.0828817 0.579954
479 1 0.922361 0.167546 0.578472
598 1 0.909316 0.0737296 0.686273
621 1 0.836731 0.163836 0.66688
459 1 0.0806276 0.171294 0.589976
458 1 0.0795961 0.243836 0.499042
460 1 0.0136637 0.257086 0.589677
629 1 0.175573 0.335706 0.663716
462 1 0.255249 0.255546 0.483593
463 1 0.254009 0.172488 0.572584
464 1 0.167323 0.249287 0.575042
468 1 0.344731 0.255585 0.576296
605 1 0.16729 0.172446 0.656319
606 1 0.252793 0.244253 0.658532
633 1 0.332922 0.328853 0.66122
466 1 0.419522 0.243599 0.487822
467 1 0.408444 0.163291 0.590243
610 1 0.412405 0.244253 0.6724
472 1 0.498003 0.243328 0.594119
470 1 0.586144 0.244697 0.504726
471 1 0.575932 0.163599 0.583277
614 1 0.586074 0.249988 0.663154
476 1 0.663735 0.257371 0.586917
474 1 0.745651 0.246376 0.502526
480 1 0.838032 0.247055 0.586227
618 1 0.755368 0.252197 0.667723
622 1 0.928973 0.23284 0.663234
482 1 0.0877978 0.418452 0.500786
505 1 0.0110068 0.504512 0.504552
483 1 0.0899011 0.336511 0.574912
488 1 0.170158 0.412851 0.568058
507 1 0.0892268 0.493944 0.573141
509 1 0.176879 0.498599 0.492907
487 1 0.255772 0.323686 0.577936
486 1 0.253713 0.409574 0.50392
630 1 0.251719 0.422724 0.660342
490 1 0.43471 0.420728 0.498529
513 1 0.343542 0.500062 0.506502
491 1 0.434265 0.340922 0.578309
492 1 0.339573 0.412441 0.595231
496 1 0.507377 0.420472 0.592839
637 1 0.510124 0.331836 0.663616
493 1 0.505463 0.326791 0.498955
495 1 0.58856 0.346831 0.585494
519 1 0.586713 0.507352 0.585794
497 1 0.648139 0.337871 0.504849
499 1 0.761117 0.341051 0.582107
500 1 0.659752 0.425461 0.577262
498 1 0.748483 0.430691 0.500336
504 1 0.832913 0.415809 0.580227
642 1 0.751286 0.42127 0.666342
501 1 0.849583 0.34418 0.508526
481 1 0.00278045 0.328816 0.504781
503 1 0.907284 0.333698 0.596873
484 1 0.00407112 0.41582 0.585275
502 1 0.928308 0.423206 0.50788
533 1 0.175718 0.66188 0.500103
506 1 0.0937309 0.592664 0.503381
650 1 0.0839926 0.57937 0.650135
512 1 0.168497 0.587206 0.578529
508 1 0.00701423 0.583976 0.57477
529 1 -0.00199754 0.672013 0.495699
531 1 0.0948385 0.665107 0.584646
510 1 0.260477 0.592698 0.49146
511 1 0.262962 0.501223 0.579639
516 1 0.329525 0.595107 0.575784
535 1 0.25751 0.671633 0.577441
515 1 0.42409 0.500409 0.581803
658 1 0.429084 0.583744 0.667836
681 1 0.340688 0.672712 0.671237
537 1 0.352677 0.67853 0.49843
539 1 0.418977 0.665472 0.591953
518 1 0.581393 0.592511 0.494718
520 1 0.499746 0.583729 0.580476
524 1 0.685916 0.603439 0.579436
662 1 0.593956 0.59578 0.6647
543 1 0.576436 0.665466 0.581651
669 1 0.83408 0.505586 0.651712
523 1 0.739789 0.506965 0.59222
525 1 0.829891 0.506877 0.503716
528 1 0.830997 0.585813 0.581094
665 1 0.665146 0.503742 0.675429
527 1 0.926215 0.503215 0.581532
526 1 0.924102 0.592546 0.50716
551 1 0.907907 0.670417 0.582329
673 1 1.00586 0.668186 0.658548
693 1 0.825412 0.675168 0.668472
670 1 0.914717 0.591581 0.660124
530 1 0.076889 0.757347 0.506647
555 1 0.0839773 0.831274 0.583606
674 1 0.0826825 0.748027 0.684191
536 1 0.173401 0.740126 0.58481
534 1 0.256617 0.744057 0.496804
705 1 0.338172 0.84181 0.665409
559 1 0.261681 0.836334 0.575605
701 1 0.152929 0.83862 0.665945
678 1 0.25395 0.754892 0.655971
538 1 0.414477 0.761416 0.514168
561 1 0.339974 0.837703 0.487929
565 1 0.500539 0.823607 0.499859
540 1 0.337271 0.764807 0.582759
563 1 0.421777 0.835419 0.588622
542 1 0.578696 0.758546 0.52161
544 1 0.488571 0.756577 0.585281
567 1 0.577524 0.838692 0.60056
548 1 0.666296 0.764584 0.59165
686 1 0.580586 0.755288 0.668845
569 1 0.682254 0.835102 0.493007
547 1 0.762293 0.681007 0.578238
571 1 0.759869 0.839759 0.573733
690 1 0.754353 0.759521 0.662561
573 1 0.837221 0.821259 0.49805
532 1 1.00422 0.748957 0.587981
552 1 0.841061 0.751691 0.582115
694 1 0.914703 0.750951 0.668373
575 1 0.914611 0.837011 0.589913
717 1 0.845607 0.829833 0.666514
697 1 0.00297579 0.832137 0.66117
435 1 0.076867 0.0014949 0.59801
554 1 0.0865842 0.911599 0.515629
560 1 0.167606 0.911101 0.586785
698 1 0.075555 0.911327 0.672436
439 1 0.249371 -0.00730238 0.593317
558 1 0.239892 0.914982 0.504408
564 1 0.331524 0.920276 0.570536
581 1 0.16279 0.00994557 0.665687
585 1 0.338629 -1.95463e-05 0.660947
445 1 0.496623 0.989075 0.497543
443 1 0.412129 0.00540448 0.566481
562 1 0.417669 0.919311 0.492346
706 1 0.4097 0.916044 0.66377
568 1 0.483 0.924907 0.579542
709 1 0.493848 0.846308 0.66896
589 1 0.501245 0.987347 0.665981
447 1 0.582929 0.984798 0.582979
566 1 0.589153 0.909594 0.505172
713 1 0.667828 0.836571 0.666188
451 1 0.747842 0.00660666 0.581043
570 1 0.746811 0.925347 0.49855
572 1 0.674909 0.915178 0.578771
714 1 0.757564 0.905404 0.660173
453 1 0.843468 0.998626 0.508478
455 1 0.934966 1.00196 0.590204
576 1 0.84268 0.925887 0.592668
556 1 0.998374 0.912273 0.589534
577 1 -0.00312212 -0.00565046 0.676739
718 1 0.919565 0.924117 0.66689
597 1 0.829809 0.00536943 0.676228
584 1 0.179405 0.0884934 0.744024
603 1 0.089596 0.157703 0.743698
601 1 -0.00386088 0.146301 0.686816
607 1 0.243875 0.16772 0.747048
583 1 0.262677 0.996234 0.736738
726 1 0.256335 0.0866735 0.837611
586 1 0.411228 0.0823521 0.66618
588 1 0.327401 0.0829132 0.7434
592 1 0.498663 0.071808 0.742407
611 1 0.423161 0.153559 0.745083
587 1 0.413455 0.993431 0.753674
729 1 0.333374 -0.00244143 0.835036
590 1 0.581151 0.0825646 0.652783
613 1 0.499233 0.153795 0.667568
615 1 0.574035 0.173728 0.748165
734 1 0.572633 0.0800024 0.826711
596 1 0.660651 0.0890597 0.735604
594 1 0.752314 0.082319 0.66646
765 1 0.829524 0.160425 0.832998
738 1 0.75021 0.0848829 0.825783
741 1 0.825282 0.00598474 0.836317
580 1 0.00585458 0.067966 0.76032
600 1 0.833684 0.0785784 0.753232
742 1 0.910998 0.0930708 0.837697
623 1 0.904236 0.177459 0.752908
602 1 0.0750613 0.244043 0.674822
625 1 0.00325669 0.326566 0.672857
604 1 0.995015 0.247704 0.743478
627 1 0.102926 0.333468 0.742469
769 1 1.00434 0.331958 0.819535
608 1 0.170808 0.249584 0.731529
631 1 0.250864 0.335491 0.745002
612 1 0.333147 0.247107 0.745655
773 1 0.167868 0.312393 0.818093
609 1 0.327248 0.166198 0.674411
754 1 0.418198 0.248501 0.819098
616 1 0.498493 0.242121 0.747429
620 1 0.662151 0.244675 0.761882
639 1 0.583413 0.319443 0.744647
757 1 0.496257 0.167407 0.83645
619 1 0.741797 0.168907 0.75084
762 1 0.755193 0.239071 0.839624
624 1 0.832318 0.252843 0.748335
766 1 0.918659 0.249934 0.841463
789 1 0.827351 0.326418 0.829815
647 1 0.916849 0.331281 0.754565
745 1 -0.00663698 0.17205 0.825878
649 1 0.0099515 0.497299 0.650357
626 1 0.0913762 0.414151 0.659693
651 1 0.0909934 0.497852 0.730064
632 1 0.170267 0.41607 0.752067
628 1 0.992665 0.408643 0.747826
770 1 0.0867668 0.402015 0.822645
653 1 0.17099 0.4956 0.646684
657 1 0.335891 0.501995 0.670247
634 1 0.416552 0.41848 0.666252
635 1 0.417439 0.337298 0.748601
636 1 0.339359 0.408358 0.733092
638 1 0.579363 0.419297 0.672392
641 1 0.666515 0.331686 0.663766
640 1 0.501505 0.413461 0.750717
663 1 0.587196 0.515481 0.756626
781 1 0.508102 0.329491 0.829402
782 1 0.582552 0.417236 0.833616
805 1 0.505453 0.499693 0.827422
643 1 0.737719 0.327809 0.744891
644 1 0.660328 0.42753 0.750564
786 1 0.75203 0.412374 0.826066
645 1 0.823236 0.340764 0.679192
793 1 0.0152396 0.498158 0.823654
648 1 0.848889 0.428522 0.750239
646 1 0.918825 0.424954 0.666279
671 1 0.932267 0.505425 0.728028
790 1 0.926111 0.431066 0.834607
652 1 0.00587423 0.579763 0.741556
675 1 0.0958326 0.656617 0.748642
794 1 0.101504 0.578225 0.828429
656 1 0.167933 0.570032 0.732477
677 1 0.166767 0.65949 0.665964
654 1 0.252383 0.587549 0.659912
655 1 0.252824 0.493285 0.75003
660 1 0.331247 0.570985 0.750436
679 1 0.243824 0.666443 0.749226
661 1 0.51137 0.507954 0.672492
659 1 0.416471 0.500176 0.753601
683 1 0.410345 0.655223 0.762223
685 1 0.508282 0.676216 0.67945
664 1 0.512375 0.585151 0.753
668 1 0.681619 0.589132 0.751377
806 1 0.587699 0.578067 0.840285
666 1 0.75161 0.589156 0.666018
813 1 0.826691 0.50103 0.828506
667 1 0.752785 0.504321 0.736084
810 1 0.757423 0.581667 0.830639
809 1 0.672857 0.507123 0.841307
672 1 0.838631 0.578642 0.743212
814 1 0.910327 0.581188 0.837438
676 1 1.00324 0.727781 0.748365
699 1 0.0846527 0.836414 0.759137
680 1 0.170381 0.745367 0.747769
684 1 0.33742 0.757737 0.764988
682 1 0.411311 0.756111 0.668501
688 1 0.480728 0.742745 0.763356
707 1 0.420103 0.839831 0.752518
829 1 0.500424 0.665967 0.837556
687 1 0.584521 0.668929 0.757378
689 1 0.676744 0.685111 0.669376
830 1 0.571019 0.751332 0.832222
692 1 0.657302 0.750096 0.754842
691 1 0.752728 0.674081 0.754635
696 1 0.830752 0.758729 0.754274
834 1 0.730127 0.748752 0.836718
695 1 0.915976 0.661023 0.743312
719 1 0.927671 0.836909 0.748028
837 1 0.837145 0.670546 0.831861
838 1 0.914422 0.736734 0.825059
579 1 0.0783096 0.989982 0.748288
704 1 0.167417 0.914709 0.747633
700 1 0.000547542 0.910607 0.755401
703 1 0.254209 0.833317 0.739925
702 1 0.257351 0.916044 0.659876
708 1 0.328721 0.907311 0.747993
712 1 0.511718 0.913972 0.750762
853 1 0.485087 0.827972 0.843152
850 1 0.407095 0.91207 0.84072
710 1 0.585951 0.916075 0.677792
711 1 0.565473 0.819071 0.758763
591 1 0.580441 0.99741 0.74799
733 1 0.49373 0.995881 0.827619
716 1 0.672206 0.913205 0.754781
737 1 0.662046 0.0210223 0.824162
715 1 0.74149 0.834304 0.760108
861 1 0.824693 0.843682 0.83769
593 1 0.663539 0.995573 0.67179
595 1 0.738021 0.993699 0.752499
858 1 0.742466 0.922772 0.84427
599 1 0.913675 0.992946 0.756903
720 1 0.829125 0.919264 0.744213
862 1 0.920964 0.904968 0.825239
722 1 0.0793887 0.0791168 0.832707
728 1 0.175038 0.0868807 0.916566
725 1 0.173978 0.0096975 0.819002
9 1 0.331812 -0.011199 -0.00241463
749 1 0.167243 0.172259 0.831509
751 1 0.252663 0.163699 0.916594
753 1 0.337349 0.165746 0.820842
727 1 0.252806 1.00317 0.906731
730 1 0.419707 0.0842681 0.832338
732 1 0.32997 0.0787797 0.915797
10 1 0.405796 0.087176 0.994397
33 1 0.332004 0.167448 0.00454811
736 1 0.496207 0.0765575 0.918799
740 1 0.669061 0.0752027 0.913744
759 1 0.570063 0.162724 0.908671
761 1 0.660443 0.149809 0.823869
735 1 0.57244 -0.00523635 0.914222
21 1 0.846107 -0.00254231 0.992177
763 1 0.738313 0.161393 0.91012
739 1 0.757979 0.00570124 0.917894
724 1 0.0028742 0.0994343 0.914029
744 1 0.84214 0.0867339 0.92175
22 1 0.9153 0.088069 0.991333
743 1 0.914712 1.00649 0.906484
746 1 0.08053 0.237646 0.818057
25 1 1.00695 0.174252 -0.0056115
747 1 0.0938647 0.168238 0.903663
748 1 0.00380441 0.246396 0.903936
771 1 0.0916164 0.31655 0.912826
30 1 0.250301 0.250596 0.0210207
752 1 0.183418 0.238133 0.918411
750 1 0.259698 0.243711 0.840774
777 1 0.341491 0.327729 0.838458
755 1 0.401507 0.174377 0.911364
34 1 0.41255 0.246655 0.00291212
756 1 0.3308 0.255373 0.92687
779 1 0.412676 0.338005 0.918185
758 1 0.576756 0.238713 0.830611
760 1 0.485225 0.247152 0.908315
764 1 0.662483 0.246977 0.890006
783 1 0.580474 0.330589 0.922009
785 1 0.667279 0.34123 0.824544
45 1 0.832073 0.175468 0.997947
42 1 0.746719 0.247076 0.979985
69 1 0.825172 0.330676 0.980844
787 1 0.746776 0.333054 0.904219
768 1 0.844207 0.242733 0.910813
767 1 0.914755 0.168427 0.913874
791 1 0.917436 0.338713 0.909867
776 1 0.145476 0.405854 0.918695
795 1 0.0903193 0.50074 0.903784
774 1 0.259793 0.405998 0.852898
801 1 0.333693 0.495856 0.827141
775 1 0.248384 0.334275 0.926695
780 1 0.330255 0.405679 0.920765
799 1 0.251329 0.490748 0.923983
58 1 0.419694 0.419703 0.00792747
61 1 0.490916 0.316405 -0.00126919
778 1 0.428972 0.416441 0.833302
784 1 0.499417 0.414009 0.928371
803 1 0.411758 0.498171 0.914319
62 1 0.583234 0.420402 -0.000845252
807 1 0.576808 0.493702 0.923975
66 1 0.739678 0.414347 0.999633
65 1 0.666068 0.324436 0.985719
788 1 0.660644 0.416494 0.919665
792 1 0.834657 0.405829 0.906133
70 1 0.918011 0.416342 0.987955
772 1 1.00872 0.418144 0.913624
815 1 0.911336 0.507105 0.9218
800 1 0.171527 0.580337 0.912214
796 1 -0.000624018 0.564095 0.912216
817 1 0.00872819 0.653019 0.831977
797 1 0.164636 0.49347 0.821541
825 1 0.322056 0.660506 0.837108
798 1 0.249514 0.576846 0.83558
802 1 0.41623 0.569175 0.837048
804 1 0.330047 0.571054 0.906084
808 1 0.500036 0.577553 0.914082
827 1 0.412347 0.652286 0.912753
86 1 0.590739 0.577989 1.00222
831 1 0.580705 0.663264 0.914007
89 1 0.661918 0.502415 1.00899
113 1 0.673439 0.670177 0.0108289
811 1 0.753191 0.503508 0.908664
812 1 0.671804 0.595825 0.918305
94 1 0.907408 0.580913 0.00782262
816 1 0.83467 0.594113 0.913798
819 1 0.0665816 0.653617 0.920972
97 1 -0.0047572 0.640346 0.999036
818 1 0.0815064 0.736474 0.827852
821 1 0.165338 0.660508 0.83358
824 1 0.166089 0.740518 0.914443
845 1 0.17444 0.816198 0.828437
843 1 0.0979889 0.837796 0.924744
823 1 0.254665 0.671663 0.927675
102 1 0.244077 0.747903 0.00206213
822 1 0.252357 0.73808 0.840337
828 1 0.331345 0.753761 0.925634
109 1 0.508476 0.662023 0.00516468
133 1 0.496993 0.826384 0.996404
826 1 0.415072 0.743018 0.846459
849 1 0.334194 0.836714 0.839368
851 1 0.407758 0.827782 0.931392
832 1 0.509934 0.742104 0.925631
833 1 0.659551 0.673383 0.842421
110 1 0.578064 0.758749 0.0121298
855 1 0.57844 0.82975 0.926855
836 1 0.663087 0.749178 0.92984
117 1 0.837193 0.664401 -0.00877937
835 1 0.745833 0.667591 0.908252
114 1 0.758491 0.74899 -0.00368426
840 1 0.826367 0.749408 0.904758
118 1 0.915139 0.760189 -0.0164585
121 1 -0.00236671 0.842754 -0.00191715
839 1 0.91519 0.671074 0.91555
820 1 0.996523 0.742179 0.922983
841 1 0.0153495 0.833081 0.836367
842 1 0.084356 0.916407 0.834374
122 1 0.0887492 0.924118 1.0065
723 1 0.0847116 0.99533 0.920398
848 1 0.18191 0.903331 0.909829
125 1 0.155125 0.826407 1.00828
129 1 0.339307 0.830897 0.00847925
846 1 0.247556 0.906541 0.819508
847 1 0.253006 0.823365 0.903324
126 1 0.245183 0.903882 0.00548139
130 1 0.412864 0.91888 -0.00609794
731 1 0.413035 1.00234 0.919083
852 1 0.318061 0.909555 0.924707
856 1 0.503513 0.913071 0.907889
854 1 0.579749 0.912185 0.834019
857 1 0.656117 0.834458 0.834339
134 1 0.58499 0.912189 0.00433582
138 1 0.755058 0.921163 0.00124874
859 1 0.745596 0.835005 0.926341
860 1 0.656539 0.927135 0.913892
864 1 0.837607 0.92302 0.917999
1 1 1.00003 0.00387871 0.994541
141 1 0.843406 0.829862 0.0103551
863 1 0.914713 0.826728 0.895551
142 1 0.921823 0.916221 0.00246181
721 1 0.00165226 0.988797 0.835647
844 1 0.991374 0.911658 0.914024
