ITEM: TIMESTEP
4750
ITEM: NUMBER OF ATOMS
864
ITEM: BOX BOUNDS pp pp pp
0.0000000000000000e+00 3.1559999999999999e+01
0.0000000000000000e+00 3.1559999999999999e+01
0.0000000000000000e+00 3.1559999999999999e+01
ITEM: ATOMS id type xs ys zs
27 1 0.0936134 0.169135 0.0689382
8 1 0.166058 0.0721896 0.0819884
1 1 0.0102373 -0.00225481 0.998905
3 1 0.0819413 0.991187 0.0867181
149 1 0.168347 -0.00462205 0.164508
146 1 0.0893534 0.0727427 0.169625
2 1 0.0860149 0.0760919 0.000239477
12 1 0.327691 0.0803025 0.0824853
31 1 0.23951 0.170497 0.0870984
7 1 0.257043 0.00170853 0.0925485
9 1 0.324638 0.98734 -0.00381107
173 1 0.169825 0.159721 0.167698
150 1 0.258716 0.0814018 0.176561
154 1 0.415938 0.0804864 0.162497
16 1 0.50629 0.0753529 0.0858642
11 1 0.407629 0.99237 0.0879997
158 1 0.592637 0.0842914 0.170113
39 1 0.577239 0.181069 0.0780988
185 1 0.667737 0.171654 0.170792
14 1 0.581962 0.0807802 1.00656
20 1 0.672683 0.091955 0.0823584
43 1 0.752347 0.168865 0.084355
162 1 0.751228 0.0987872 0.162838
18 1 0.765283 0.083768 0.994653
4 1 0.00967789 0.0952057 0.0924594
24 1 0.826815 0.0854608 0.0891208
47 1 0.920788 0.157343 0.0928907
23 1 0.923963 0.0151315 0.0767238
22 1 0.918835 0.0880784 0.984791
45 1 0.83393 0.173018 -0.00893635
32 1 0.157607 0.250721 0.0910351
28 1 0.0122555 0.24283 0.0686738
36 1 0.332966 0.263179 0.0672846
55 1 0.248789 0.331184 0.0625214
35 1 0.416747 0.183905 0.0755377
40 1 0.498247 0.257696 0.0778424
178 1 0.409813 0.268593 0.15404
63 1 0.591753 0.333547 0.0910563
181 1 0.515237 0.169962 0.156784
205 1 0.50698 0.333014 0.168223
44 1 0.675153 0.244721 0.0921737
48 1 0.834264 0.238417 0.0881708
67 1 0.750367 0.342676 0.0961428
189 1 0.828331 0.176091 0.184838
186 1 0.75924 0.260236 0.176521
46 1 0.923623 0.249028 0.0102103
71 1 0.919279 0.324691 0.0916956
190 1 0.920454 0.249893 0.174541
51 1 0.0868246 0.328252 0.0671305
56 1 0.166708 0.427099 0.0854477
53 1 0.167047 0.342399 0.994179
52 1 1.00697 0.421736 0.0614481
194 1 0.0650213 0.408701 0.147553
221 1 0.145854 0.48697 0.15673
50 1 0.101018 0.430794 0.991868
57 1 0.331562 0.351996 0.986021
198 1 0.246051 0.425988 0.166206
60 1 0.32308 0.420279 0.0951573
59 1 0.41268 0.345456 0.0747778
58 1 0.416588 0.421051 0.98755
85 1 0.48749 0.50486 0.99189
64 1 0.504583 0.414501 0.0775899
206 1 0.592736 0.414538 0.16085
87 1 0.58162 0.502591 0.0939193
62 1 0.57879 0.424853 -0.011835
68 1 0.661151 0.421107 0.0680972
66 1 0.778918 0.403138 0.00166889
72 1 0.837994 0.422154 0.102805
210 1 0.758925 0.41322 0.177242
213 1 0.835305 0.332587 0.156016
95 1 0.920622 0.487712 0.0894096
214 1 0.928664 0.401525 0.151608
70 1 0.906958 0.390786 0.0114244
75 1 0.0794312 0.508294 0.0758782
241 1 0.0137315 0.682608 0.162394
218 1 0.0888288 0.584294 0.165819
74 1 0.0833621 0.573963 -0.00268114
79 1 0.256163 0.512665 0.0773748
80 1 0.168868 0.580868 0.0843571
84 1 0.348798 0.582185 0.0820291
78 1 0.247457 0.58566 1.004
222 1 0.271966 0.598093 0.153418
83 1 0.421087 0.495399 0.0819823
226 1 0.417878 0.595736 0.184433
107 1 0.412095 0.668597 0.0835879
229 1 0.495694 0.510556 0.165972
81 1 0.32929 0.499851 -0.00076459
82 1 0.423439 0.592825 -0.00495351
88 1 0.493982 0.591878 0.0888583
92 1 0.659277 0.593959 0.0764381
89 1 0.644219 0.505422 0.00408813
91 1 0.746396 0.500253 0.0702426
96 1 0.832082 0.573907 0.0661131
234 1 0.747198 0.587687 0.147958
237 1 0.833017 0.51036 0.159678
76 1 0.00453948 0.585334 0.0870163
99 1 0.0919626 0.669699 0.0866623
98 1 0.076655 0.747077 -0.00421864
104 1 0.16753 0.751574 0.0729046
100 1 0.995702 0.751011 0.0794472
103 1 0.249347 0.665916 0.0790744
105 1 0.32911 0.657901 0.00582494
249 1 0.347953 0.679236 0.16079
108 1 0.326331 0.752033 0.0843057
112 1 0.510058 0.75902 0.0933386
109 1 0.49628 0.673042 0.00486283
106 1 0.425203 0.747275 0.014693
111 1 0.573994 0.664632 0.0836415
254 1 0.592291 0.750921 0.165876
113 1 0.65298 0.665158 1.00111
257 1 0.664547 0.664714 0.181915
116 1 0.657194 0.744599 0.0850413
115 1 0.738066 0.664834 0.082382
120 1 0.841769 0.747442 0.070144
258 1 0.746433 0.76281 0.168628
285 1 0.84093 0.83516 0.165385
119 1 0.922976 0.669822 0.0915977
143 1 0.922971 0.835013 0.0785194
141 1 0.840996 0.820181 0.98916
125 1 0.170839 0.841128 0.990098
123 1 0.0761912 0.82251 0.0749693
122 1 0.0915048 0.924477 0.997031
128 1 0.14926 0.892927 0.0860774
5 1 0.172222 1.01376 -0.00341956
127 1 0.238357 0.832998 0.0752155
269 1 0.164919 0.821686 0.164171
126 1 0.234473 0.920925 0.0101868
132 1 0.328668 0.903581 0.0987809
131 1 0.409437 0.845468 0.0730956
136 1 0.499544 0.924915 0.0842384
130 1 0.405864 0.92342 1.00268
161 1 0.68045 0.981819 0.175036
281 1 0.664414 0.844258 0.167937
15 1 0.609292 0.00909616 0.0967689
135 1 0.581963 0.841547 0.0776138
278 1 0.585453 0.919505 0.177239
140 1 0.676698 0.917215 0.0826995
133 1 0.522046 0.847171 0.995804
139 1 0.742221 0.814468 0.0814618
19 1 0.746229 1.0041 0.0942114
17 1 0.669635 0.00560378 1.0034
138 1 0.760502 0.902952 1.00405
144 1 0.847306 0.908245 0.0796541
124 1 0.9934 0.921312 0.0660345
142 1 0.906121 0.908058 0.992141
147 1 0.0902443 1.00805 0.254207
290 1 0.0965639 0.0661471 0.33492
152 1 0.169299 0.0885263 0.255209
151 1 0.245016 0.00354023 0.24077
175 1 0.239471 0.161575 0.255549
153 1 0.331718 1.0021 0.174037
156 1 0.346906 0.0815952 0.244539
321 1 0.32401 0.156491 0.335224
155 1 0.414595 0.996108 0.262121
177 1 0.33605 0.16964 0.145943
160 1 0.500869 0.0913911 0.248678
164 1 0.679196 0.0856702 0.235066
302 1 0.606231 0.0876707 0.323599
159 1 0.594607 1.00473 0.252595
163 1 0.749928 1.00205 0.254374
168 1 0.839484 0.0698159 0.242141
187 1 0.737837 0.16927 0.247752
305 1 0.683546 1.00701 0.339265
166 1 0.906437 0.0905268 0.167725
313 1 1.00352 0.168288 0.358309
148 1 1.00528 0.0761201 0.259367
310 1 0.901298 0.0855201 0.336305
289 1 0.983661 -0.0128772 0.341244
171 1 0.0710548 0.159416 0.250915
170 1 0.0813944 0.238929 0.164531
172 1 0.0032128 0.243126 0.247952
197 1 0.182296 0.33983 0.156861
174 1 0.24503 0.25128 0.155152
176 1 0.169845 0.264748 0.247216
199 1 0.245043 0.34314 0.255823
318 1 0.255344 0.259333 0.324492
341 1 0.180486 0.341515 0.348128
201 1 0.311954 0.340664 0.17368
179 1 0.402495 0.17084 0.225455
180 1 0.323508 0.23547 0.237713
322 1 0.407861 0.24412 0.33858
345 1 0.327902 0.337732 0.334931
183 1 0.592815 0.162275 0.25406
184 1 0.495237 0.24478 0.237025
182 1 0.586826 0.259937 0.173361
333 1 0.81646 0.159409 0.323448
209 1 0.673973 0.328024 0.175932
188 1 0.662217 0.257568 0.246703
192 1 0.822155 0.267281 0.265078
169 1 0.98614 0.151212 0.186016
191 1 0.907239 0.182645 0.26253
193 1 -0.00100829 0.313942 0.155678
195 1 0.0916012 0.338879 0.258063
219 1 0.080493 0.501995 0.257037
338 1 0.0713404 0.401633 0.344192
200 1 0.170654 0.426969 0.249147
223 1 0.251905 0.512715 0.23789
342 1 0.266831 0.416361 0.337323
204 1 0.332052 0.418344 0.239363
202 1 0.404281 0.411493 0.160933
203 1 0.399265 0.322556 0.248898
208 1 0.482322 0.413893 0.230895
346 1 0.420735 0.411438 0.319365
207 1 0.577001 0.339264 0.250111
212 1 0.658022 0.421441 0.242699
349 1 0.499019 0.326231 0.327778
211 1 0.757315 0.346604 0.257169
381 1 0.856233 0.506392 0.331853
215 1 0.929597 0.343866 0.240961
337 1 0.00161883 0.325245 0.334619
196 1 0.00257072 0.424556 0.249288
216 1 0.843134 0.433091 0.243848
358 1 0.921529 0.411132 0.331451
361 1 1.008 0.491418 0.332729
224 1 0.171989 0.59307 0.22734
243 1 0.0977051 0.671469 0.246419
362 1 0.0870884 0.587912 0.335145
365 1 0.184073 0.504115 0.318912
389 1 0.170913 0.691089 0.337889
245 1 0.178399 0.671904 0.15932
247 1 0.252199 0.675181 0.240523
393 1 0.323105 0.669906 0.337466
369 1 0.336634 0.498297 0.315863
225 1 0.34664 0.511387 0.167399
228 1 0.330281 0.598296 0.256225
227 1 0.428758 0.503563 0.252234
251 1 0.437129 0.680229 0.251129
232 1 0.507296 0.589404 0.256675
230 1 0.596486 0.581644 0.172628
231 1 0.577757 0.504744 0.251648
233 1 0.67565 0.499582 0.15904
236 1 0.667943 0.568022 0.251512
373 1 0.495585 0.509075 0.33444
235 1 0.748815 0.508647 0.236475
240 1 0.839247 0.587559 0.249202
377 1 0.679588 0.489663 0.325419
217 1 -0.00447045 0.500483 0.166779
239 1 0.929078 0.515447 0.263024
220 1 0.999837 0.592388 0.236789
238 1 0.918188 0.592402 0.162023
382 1 0.91893 0.583485 0.333713
263 1 0.92119 0.66652 0.259578
242 1 0.0925039 0.752636 0.168476
248 1 0.178006 0.751171 0.246317
386 1 0.0794053 0.751891 0.333355
385 1 0.00078992 0.664813 0.321095
273 1 0.343914 0.821657 0.172532
246 1 0.256747 0.750356 0.160489
390 1 0.249321 0.762316 0.32939
252 1 0.343575 0.748079 0.25263
250 1 0.428766 0.758373 0.167792
256 1 0.503766 0.757918 0.246764
253 1 0.505895 0.674566 0.172281
255 1 0.585431 0.66941 0.253476
398 1 0.579897 0.761203 0.345473
260 1 0.670315 0.751582 0.243996
279 1 0.585449 0.831885 0.25663
261 1 0.823972 0.676471 0.155239
259 1 0.761909 0.664631 0.247174
264 1 0.824678 0.768413 0.247635
283 1 0.751079 0.840587 0.248348
401 1 0.67439 0.685174 0.341827
262 1 0.913803 0.751736 0.173322
244 1 1.00156 0.757177 0.240341
287 1 0.908557 0.838435 0.242675
406 1 0.908961 0.762065 0.320024
267 1 0.0790031 0.837468 0.250886
265 1 0.00323058 0.842751 0.174516
266 1 0.0862916 0.913922 0.179897
270 1 0.244053 0.901096 0.165436
272 1 0.173999 0.908036 0.260559
271 1 0.252077 0.827335 0.244589
414 1 0.268299 0.906757 0.318141
277 1 0.502834 0.843356 0.174466
276 1 0.34361 0.904357 0.247197
275 1 0.42298 0.818644 0.254546
274 1 0.422764 0.916262 0.175349
280 1 0.503676 0.922224 0.26013
157 1 0.499209 -0.00338694 0.178345
284 1 0.677226 0.917519 0.257082
165 1 0.84183 0.996096 0.154172
282 1 0.759408 0.903948 0.146704
288 1 0.836371 0.916023 0.237213
167 1 0.915047 -0.00559203 0.237148
145 1 0.989235 0.0203745 0.165104
268 1 0.992722 0.915711 0.252414
286 1 0.918303 0.913534 0.161867
315 1 0.088511 0.160627 0.429812
434 1 0.0932398 0.0821192 0.508271
317 1 0.156329 0.170218 0.325288
296 1 0.165629 0.0748532 0.425839
294 1 0.252409 0.0685772 0.340761
438 1 0.24622 0.0873059 0.512368
297 1 0.338243 -0.0126406 0.330054
298 1 0.420786 0.0791657 0.331128
300 1 0.330017 0.0827161 0.426867
299 1 0.413846 0.0109193 0.420347
442 1 0.403594 0.100942 0.510649
441 1 0.324054 1.00865 0.517773
304 1 0.493624 0.0797579 0.431495
308 1 0.675857 0.091477 0.42884
445 1 0.487364 7.99674e-05 0.510009
306 1 0.752505 0.083495 0.335524
331 1 0.734312 0.18314 0.422325
309 1 0.831295 0.999136 0.329867
307 1 0.767712 -0.00998161 0.420673
292 1 1.02546 0.0719902 0.411286
312 1 0.821994 0.0829622 0.416187
454 1 0.920043 0.0915708 0.526539
314 1 0.0839037 0.256683 0.342255
316 1 1.01184 0.25003 0.423318
339 1 0.0704512 0.33972 0.427634
458 1 0.0965014 0.244708 0.508296
320 1 0.166532 0.252317 0.412498
319 1 0.253953 0.181997 0.413172
324 1 0.337992 0.253649 0.422538
485 1 0.154661 0.341649 0.498144
461 1 0.167351 0.174178 0.499048
323 1 0.409965 0.158281 0.424638
469 1 0.495397 0.17253 0.51039
326 1 0.581941 0.250267 0.327888
325 1 0.49859 0.150616 0.344734
328 1 0.495281 0.245368 0.415071
327 1 0.585215 0.173062 0.411599
329 1 0.670328 0.163079 0.338488
330 1 0.737218 0.268495 0.341961
332 1 0.655448 0.267241 0.416351
474 1 0.751411 0.261073 0.510933
357 1 0.843075 0.333655 0.334232
336 1 0.836717 0.234935 0.399904
334 1 0.922549 0.247147 0.346168
335 1 0.907704 0.153537 0.427143
359 1 0.921801 0.344413 0.420245
481 1 0.983292 0.335099 0.506119
482 1 0.075033 0.426979 0.500876
363 1 0.0943306 0.496138 0.411208
344 1 0.176659 0.42995 0.420034
343 1 0.254385 0.332744 0.419069
486 1 0.240004 0.418046 0.508201
347 1 0.422297 0.324649 0.396391
348 1 0.333335 0.409949 0.426686
490 1 0.41513 0.403262 0.503399
352 1 0.501774 0.401953 0.403001
489 1 0.328919 0.344745 0.511281
351 1 0.578348 0.337659 0.412965
350 1 0.577312 0.438692 0.342252
356 1 0.657558 0.421693 0.425538
494 1 0.57166 0.412446 0.496713
353 1 0.668381 0.350762 0.326166
355 1 0.741586 0.336373 0.435396
354 1 0.765747 0.410952 0.339459
498 1 0.752998 0.414291 0.508054
360 1 0.836791 0.402105 0.412059
340 1 1.00076 0.422107 0.418903
383 1 0.92602 0.502098 0.424214
505 1 0.997692 0.509156 0.498829
368 1 0.163884 0.588047 0.42157
364 1 0.00902783 0.571959 0.408427
533 1 0.171495 0.677297 0.504123
509 1 0.152893 0.513006 0.509692
506 1 0.0814351 0.594356 0.485287
367 1 0.260288 0.494208 0.428981
366 1 0.241887 0.592468 0.320184
372 1 0.317836 0.583916 0.408735
510 1 0.255877 0.574614 0.501404
371 1 0.415334 0.480425 0.415467
370 1 0.405328 0.589017 0.333387
395 1 0.405999 0.661135 0.416319
513 1 0.345222 0.491297 0.509472
375 1 0.590588 0.511261 0.434948
397 1 0.502793 0.666757 0.336456
374 1 0.588879 0.586949 0.342798
376 1 0.508309 0.582458 0.417682
380 1 0.678601 0.584677 0.412592
378 1 0.775062 0.574865 0.333078
379 1 0.759281 0.49529 0.40503
405 1 0.82624 0.667059 0.338378
403 1 0.74629 0.674441 0.418786
384 1 0.82987 0.590825 0.421405
407 1 0.929721 0.659294 0.397414
387 1 0.0909307 0.67266 0.40654
530 1 0.0780895 0.765149 0.481444
411 1 0.0862815 0.842552 0.403753
392 1 0.17238 0.761104 0.424525
391 1 0.250651 0.658444 0.425437
396 1 0.335907 0.756979 0.41011
415 1 0.256639 0.829196 0.419402
394 1 0.409367 0.749776 0.342381
421 1 0.500253 0.836042 0.32628
400 1 0.497199 0.76229 0.416934
419 1 0.417816 0.83618 0.419255
538 1 0.414216 0.752975 0.504904
425 1 0.674981 0.836171 0.342384
399 1 0.600058 0.667923 0.408819
423 1 0.611046 0.851735 0.428362
402 1 0.762668 0.760229 0.329908
404 1 0.669365 0.757636 0.423494
408 1 0.834434 0.751782 0.422956
429 1 0.841292 0.833167 0.347215
427 1 0.754032 0.812608 0.42064
549 1 0.830012 0.6594 0.510723
409 1 0.998792 0.840843 0.327921
553 1 0.98757 0.822706 0.510302
388 1 -0.0135551 0.750834 0.413952
550 1 0.902551 0.739449 0.514736
293 1 0.183706 0.98809 0.335044
291 1 0.0876127 0.988413 0.417753
410 1 0.0807894 0.926908 0.339626
437 1 0.172146 0.985892 0.494279
413 1 0.167886 0.82737 0.332444
295 1 0.257382 0.997629 0.422202
416 1 0.186731 0.914256 0.41259
417 1 0.33683 0.829512 0.335722
558 1 0.253593 0.914631 0.504476
418 1 0.410714 0.907176 0.333235
420 1 0.334032 0.908572 0.424824
301 1 0.51643 0.0270868 0.347961
422 1 0.599903 0.9206 0.350065
303 1 0.593314 0.0186733 0.415855
424 1 0.493203 0.935072 0.412553
426 1 0.765876 0.911699 0.342699
428 1 0.687145 0.926609 0.420906
432 1 0.846457 0.915897 0.414365
311 1 0.914722 0.0237583 0.434553
431 1 0.924733 0.828549 0.415704
430 1 0.909286 0.913038 0.335152
412 1 -0.00273469 0.912074 0.413819
433 1 0.995861 -0.00164884 0.502526
574 1 0.90587 0.913864 0.513524
436 1 0.00238893 0.0834602 0.587617
435 1 0.0758073 1.00163 0.576979
578 1 0.0871419 0.0713155 0.676626
601 1 0.0154685 0.151886 0.673651
440 1 0.159327 0.069326 0.587101
459 1 0.0711998 0.164796 0.583703
444 1 0.327818 0.0884044 0.596902
609 1 0.319034 0.175623 0.666757
465 1 0.325178 0.166551 0.511617
586 1 0.423781 0.0811796 0.661793
443 1 0.410294 -0.00206499 0.583173
448 1 0.497878 0.0958108 0.584309
446 1 0.57299 0.075536 0.505077
590 1 0.590293 0.0887985 0.678866
589 1 0.488628 0.00158957 0.688457
613 1 0.49327 0.172114 0.663103
450 1 0.756566 0.0784983 0.507609
452 1 0.668152 0.0834773 0.586262
449 1 0.672287 0.00787085 0.494146
451 1 0.741319 1.0032 0.588037
594 1 0.741221 0.0900873 0.681957
456 1 0.828037 0.0962989 0.58483
598 1 0.92498 0.0731232 0.662125
453 1 0.841756 0.0080852 0.515478
455 1 0.908586 0.99728 0.594084
457 1 -0.00494061 0.168745 0.502628
460 1 -0.00156741 0.259127 0.578429
483 1 0.0786571 0.34073 0.578558
625 1 0.973532 0.330806 0.673372
602 1 0.0671416 0.258574 0.663511
462 1 0.256962 0.257405 0.500142
463 1 0.232949 0.162639 0.584583
464 1 0.151759 0.240074 0.596959
606 1 0.2433 0.249121 0.65553
466 1 0.398936 0.265463 0.514785
468 1 0.316606 0.255918 0.587262
467 1 0.400975 0.179556 0.584802
491 1 0.429277 0.335525 0.596755
493 1 0.479649 0.323176 0.487352
610 1 0.415763 0.249853 0.665172
470 1 0.58695 0.246765 0.511779
471 1 0.579844 0.159616 0.596917
472 1 0.511421 0.256532 0.590426
476 1 0.666119 0.248596 0.588677
473 1 0.661938 0.160062 0.509487
475 1 0.748853 0.161462 0.586779
480 1 0.835164 0.23525 0.604263
477 1 0.817533 0.166431 0.491466
478 1 0.916387 0.224843 0.511465
479 1 0.919879 0.171383 0.59534
503 1 0.908597 0.328853 0.591254
622 1 0.913566 0.246287 0.679739
507 1 0.0781201 0.510179 0.582219
484 1 1.0006 0.407982 0.591595
488 1 0.1454 0.42629 0.579323
653 1 0.160865 0.50668 0.66515
629 1 0.162868 0.329377 0.655965
487 1 0.229216 0.333308 0.571132
630 1 0.253545 0.414885 0.664057
511 1 0.244566 0.502427 0.578428
492 1 0.343295 0.41271 0.586858
496 1 0.50279 0.415956 0.589802
515 1 0.423468 0.493353 0.597955
657 1 0.33067 0.501127 0.662221
495 1 0.582976 0.334509 0.585862
638 1 0.595509 0.425556 0.671948
497 1 0.661772 0.340639 0.508939
519 1 0.574533 0.505795 0.568906
641 1 0.679523 0.332396 0.66757
499 1 0.759973 0.32363 0.590663
500 1 0.673584 0.411067 0.592563
523 1 0.74605 0.494385 0.596643
525 1 0.85053 0.502745 0.491644
501 1 0.835317 0.330955 0.495661
504 1 0.821847 0.425253 0.582845
502 1 0.916741 0.420708 0.507189
527 1 0.91332 0.495533 0.581475
645 1 0.831282 0.327371 0.672368
508 1 1.00227 0.582519 0.585933
531 1 0.0782399 0.666539 0.584059
512 1 0.178336 0.591328 0.587044
529 1 0.00789143 0.684228 0.490116
516 1 0.334261 0.568131 0.582978
535 1 0.272164 0.673253 0.590233
654 1 0.254136 0.58894 0.674191
514 1 0.417432 0.561494 0.493919
520 1 0.498983 0.57094 0.571724
539 1 0.422575 0.66662 0.576847
521 1 0.675324 0.500175 0.512787
517 1 0.498499 0.480841 0.483993
518 1 0.581484 0.605314 0.495739
543 1 0.585485 0.672104 0.580422
661 1 0.499632 0.501189 0.669815
545 1 0.671007 0.674212 0.499528
524 1 0.660785 0.586223 0.566538
522 1 0.755765 0.569516 0.509037
547 1 0.751651 0.658001 0.579839
689 1 0.673633 0.649049 0.662367
526 1 0.913162 0.594133 0.498179
528 1 0.834213 0.578189 0.591853
551 1 0.91509 0.657632 0.595694
693 1 0.816459 0.655067 0.671141
555 1 0.0962883 0.829701 0.577246
532 1 0.999025 0.738244 0.580943
557 1 0.157028 0.840201 0.492516
536 1 0.164604 0.749581 0.579624
534 1 0.256487 0.760961 0.49669
678 1 0.258134 0.752546 0.669492
559 1 0.250684 0.825448 0.589256
561 1 0.332973 0.83967 0.502543
537 1 0.32888 0.660379 0.499445
540 1 0.339403 0.766141 0.584076
544 1 0.505759 0.751661 0.580685
541 1 0.49591 0.675097 0.487288
542 1 0.585242 0.753113 0.49332
565 1 0.506176 0.844157 0.493095
567 1 0.57183 0.830301 0.586762
573 1 0.840063 0.835214 0.476632
548 1 0.669198 0.74275 0.578193
546 1 0.74563 0.749299 0.500537
552 1 0.828209 0.72835 0.594074
571 1 0.77158 0.824439 0.563228
575 1 0.902045 0.821467 0.586253
694 1 0.916979 0.743465 0.668296
554 1 0.0753222 0.916422 0.508211
556 1 0.986149 0.920378 0.594326
701 1 0.178394 0.841614 0.661499
577 1 0.0113727 1.00523 0.666531
698 1 0.0890201 0.91037 0.657222
439 1 0.249937 0.995447 0.587217
581 1 0.164045 0.995131 0.663154
560 1 0.174063 0.924091 0.577038
702 1 0.25287 0.907042 0.661777
562 1 0.416246 0.917097 0.503579
563 1 0.428725 0.84179 0.572336
564 1 0.33019 0.91108 0.587699
568 1 0.508774 0.920145 0.581197
706 1 0.412638 0.927397 0.669281
569 1 0.677597 0.840545 0.519247
447 1 0.571146 0.0066907 0.59808
566 1 0.569529 0.941287 0.492477
570 1 0.749266 0.923576 0.513053
572 1 0.64483 0.920537 0.596443
576 1 0.825998 0.912251 0.588159
718 1 0.905034 0.902154 0.662554
580 1 0.0173371 0.0807424 0.749687
721 1 0.00628322 0.00792416 0.830295
584 1 0.167061 0.0738806 0.752761
603 1 0.100917 0.172383 0.755143
722 1 0.100451 0.0816217 0.829334
745 1 0.0237094 0.153969 0.831174
725 1 0.174799 0.992839 0.827641
582 1 0.238481 0.0846569 0.660026
726 1 0.25059 0.070398 0.826787
583 1 0.25285 0.997914 0.742409
607 1 0.240852 0.161613 0.7483
587 1 0.403696 0.021942 0.754605
588 1 0.324056 0.0857313 0.740841
611 1 0.406754 0.166186 0.738422
753 1 0.327006 0.164116 0.819248
729 1 0.322618 0.990958 0.826975
592 1 0.50658 0.0894382 0.751823
615 1 0.575223 0.181663 0.763196
596 1 0.659811 0.0729883 0.759286
765 1 0.848992 0.169881 0.823139
593 1 0.668941 1.01218 0.673646
595 1 0.759963 0.981996 0.757865
600 1 0.842815 0.0674796 0.739252
599 1 0.925064 0.991025 0.727144
623 1 0.926947 0.140275 0.74144
742 1 0.922048 0.0851475 0.834347
597 1 0.822323 0.990415 0.665382
741 1 0.838168 -0.00911156 0.826027
604 1 -0.00432977 0.241902 0.750169
746 1 0.0924196 0.250086 0.835137
605 1 0.15858 0.159891 0.668879
608 1 0.171457 0.253807 0.741812
612 1 0.329969 0.259018 0.752109
750 1 0.254705 0.26169 0.83329
633 1 0.340167 0.346109 0.668233
637 1 0.501977 0.322172 0.681156
757 1 0.493918 0.171098 0.837933
616 1 0.498947 0.253921 0.758116
754 1 0.413118 0.261474 0.829966
614 1 0.582146 0.248793 0.670836
620 1 0.663887 0.23121 0.749551
639 1 0.590227 0.331564 0.755139
617 1 0.666402 0.164941 0.6606
621 1 0.839005 0.157708 0.672159
618 1 0.757825 0.23351 0.667597
619 1 0.760925 0.166163 0.751862
624 1 0.831581 0.246326 0.753401
766 1 0.92289 0.247522 0.835122
649 1 0.993634 0.486928 0.667301
627 1 0.0786812 0.336827 0.760979
626 1 0.0931341 0.419297 0.677129
770 1 0.0998473 0.421812 0.818213
628 1 0.993611 0.412757 0.747969
651 1 0.0820531 0.508533 0.752834
631 1 0.256092 0.32898 0.754559
632 1 0.173754 0.410942 0.743274
636 1 0.327179 0.419607 0.754179
777 1 0.334435 0.332076 0.841785
635 1 0.420406 0.336592 0.756587
634 1 0.426452 0.40762 0.673303
659 1 0.406103 0.504325 0.731866
785 1 0.663374 0.34142 0.844174
640 1 0.492749 0.423408 0.762325
642 1 0.746138 0.423854 0.671049
665 1 0.667917 0.50328 0.689196
643 1 0.746137 0.321906 0.756756
644 1 0.669307 0.40425 0.753447
667 1 0.75723 0.496867 0.761587
646 1 0.905585 0.421972 0.66559
669 1 0.84024 0.503327 0.667529
647 1 0.913283 0.327143 0.760864
648 1 0.830488 0.404294 0.757857
671 1 0.9146 0.501406 0.760517
650 1 0.0785363 0.580543 0.662758
656 1 0.155927 0.591061 0.740758
652 1 0.998729 0.57405 0.752382
681 1 0.359888 0.671413 0.65603
797 1 0.164694 0.501227 0.8225
655 1 0.244681 0.501855 0.758233
679 1 0.253684 0.66436 0.749176
660 1 0.319486 0.572145 0.750727
677 1 0.164715 0.667621 0.669493
658 1 0.413518 0.57831 0.663039
664 1 0.495544 0.58542 0.75682
683 1 0.415901 0.677673 0.753767
662 1 0.589528 0.581514 0.653973
663 1 0.578418 0.493447 0.761227
806 1 0.57312 0.597671 0.845405
668 1 0.665322 0.584422 0.757923
666 1 0.751413 0.564359 0.673921
672 1 0.828888 0.585044 0.763376
691 1 0.744175 0.660248 0.743738
670 1 0.922714 0.578061 0.659345
695 1 0.908281 0.656443 0.740955
817 1 0.998937 0.656201 0.834005
673 1 0.998399 0.655595 0.66703
674 1 0.0767982 0.750139 0.66009
675 1 0.0716821 0.667301 0.753704
818 1 0.0934422 0.746837 0.840876
705 1 0.362489 0.835965 0.655435
680 1 0.165178 0.751749 0.744267
684 1 0.335756 0.762688 0.75565
703 1 0.242556 0.836588 0.757515
682 1 0.43676 0.74582 0.662937
688 1 0.510229 0.733711 0.754872
709 1 0.507227 0.836676 0.682185
826 1 0.42742 0.759901 0.856544
685 1 0.495252 0.642342 0.655999
686 1 0.592923 0.744034 0.656819
687 1 0.581045 0.657235 0.730131
692 1 0.662377 0.741482 0.747025
690 1 0.749697 0.746213 0.675078
834 1 0.728391 0.748118 0.840646
717 1 0.832515 0.818937 0.671306
676 1 0.00627956 0.750344 0.74866
696 1 0.839087 0.738135 0.747186
837 1 0.821945 0.681333 0.825346
579 1 0.0898417 -0.00971675 0.744766
697 1 1.00919 0.830792 0.645274
699 1 0.0868557 0.828658 0.738318
842 1 0.0854129 0.920376 0.81574
585 1 0.320855 0.999481 0.662369
704 1 0.166352 0.907064 0.744565
846 1 0.239916 0.918757 0.834507
708 1 0.339001 0.895015 0.745244
707 1 0.430163 0.82022 0.756561
849 1 0.315547 0.832146 0.833793
853 1 0.493012 0.841662 0.836215
712 1 0.492324 0.925303 0.769228
850 1 0.402152 0.914778 0.833659
733 1 0.494048 0.0123124 0.834866
710 1 0.576947 0.920662 0.687714
591 1 0.583452 -0.00188451 0.75551
711 1 0.612707 0.827816 0.715949
713 1 0.68204 0.826106 0.631151
716 1 0.665841 0.916696 0.76622
715 1 0.743433 0.833459 0.756961
714 1 0.737272 0.917426 0.675945
858 1 0.758692 0.909778 0.830814
719 1 0.924782 0.832253 0.740255
700 1 0.000925019 0.923946 0.744486
720 1 0.833879 0.896858 0.749389
25 1 -0.00406271 0.170159 -0.00846522
728 1 0.180033 0.0776491 0.905791
747 1 0.0999802 0.156523 0.914004
6 1 0.259068 0.0942178 0.991259
749 1 0.187729 0.160702 0.841452
732 1 0.338487 0.074451 0.903063
751 1 0.271182 0.174412 0.910585
10 1 0.399621 0.0762473 -0.0037091
730 1 0.409795 0.0958639 0.822248
37 1 0.499054 0.169618 0.00477504
736 1 0.489585 0.0945498 0.915967
41 1 0.66983 0.163751 -0.00290886
734 1 0.590236 0.0752141 0.838766
759 1 0.578318 0.161432 0.914066
735 1 0.570287 0.00743676 0.91118
740 1 0.686036 0.0893114 0.911803
738 1 0.758575 0.0850298 0.830795
763 1 0.768314 0.160904 0.909693
739 1 0.775464 0.995762 0.911055
724 1 1.01513 0.0914092 0.923079
744 1 0.845655 0.0758075 0.907893
767 1 0.923226 0.172308 0.914897
743 1 0.914889 1.00298 0.913429
26 1 0.107496 0.240009 0.996181
29 1 0.179565 0.169388 0.994239
752 1 0.180358 0.242509 0.904855
771 1 0.0840245 0.353242 0.907017
30 1 0.253951 0.254835 0.977804
33 1 0.333587 0.173364 1.00629
773 1 0.164386 0.341526 0.833827
756 1 0.340236 0.250973 0.921943
34 1 0.412891 0.269359 -0.00754181
61 1 0.503237 0.341809 0.995276
755 1 0.405904 0.162186 0.922388
779 1 0.42672 0.335705 0.905622
781 1 0.508573 0.334906 0.834167
760 1 0.49745 0.242601 0.923222
38 1 0.586651 0.244458 0.995952
758 1 0.59758 0.251796 0.840273
783 1 0.582336 0.33171 0.913494
65 1 0.684785 0.334996 0.0153771
42 1 0.75063 0.234328 -0.00767097
761 1 0.670755 0.167069 0.836351
762 1 0.754656 0.241697 0.834421
764 1 0.667957 0.251864 0.91193
789 1 0.832406 0.331568 0.830735
769 1 0.988606 0.328531 0.845846
748 1 0.0221221 0.24179 0.923269
768 1 0.835277 0.248542 0.917962
791 1 0.912305 0.324536 0.931582
49 1 -0.00421659 0.328791 0.00546043
77 1 0.183905 0.501481 0.999427
776 1 0.174379 0.432536 0.920214
795 1 0.0943592 0.509283 0.909686
54 1 0.247019 0.410834 -0.000119166
774 1 0.248958 0.406616 0.83038
775 1 0.234891 0.344919 0.91517
780 1 0.315026 0.425227 0.912513
778 1 0.400438 0.425888 0.832958
805 1 0.493222 0.510862 0.826262
782 1 0.580905 0.411418 0.837392
784 1 0.501217 0.425346 0.895916
788 1 0.666608 0.418016 0.926798
786 1 0.751133 0.418228 0.838722
787 1 0.756011 0.327515 0.913179
69 1 0.829571 0.307287 0.00469128
792 1 0.8434 0.418586 0.916959
93 1 0.831677 0.502681 0.990634
790 1 0.91094 0.411051 0.832828
813 1 0.83438 0.503167 0.845111
772 1 0.994636 0.404992 0.932259
793 1 0.0146492 0.495702 0.832762
73 1 0.999552 0.498954 0.999263
97 1 0.0101705 0.66021 0.00641357
794 1 0.0807962 0.579904 0.833388
796 1 -0.00417919 0.579413 0.90041
819 1 0.0793737 0.656842 0.916062
101 1 0.153955 0.66544 -0.00583628
799 1 0.252178 0.510668 0.913323
800 1 0.160449 0.589706 0.919317
798 1 0.247489 0.584784 0.836008
804 1 0.337323 0.586553 0.909985
801 1 0.331348 0.5073 0.831976
829 1 0.490317 0.669057 0.833738
803 1 0.404308 0.500186 0.920792
802 1 0.410332 0.592244 0.823602
827 1 0.409988 0.671789 0.915995
808 1 0.480675 0.582451 0.910623
809 1 0.667167 0.500286 0.826495
807 1 0.586811 0.504132 0.917188
86 1 0.56947 0.580505 0.00487505
810 1 0.739787 0.58316 0.84672
811 1 0.741648 0.504725 0.911921
812 1 0.656959 0.587407 0.918987
90 1 0.746786 0.5882 0.998874
816 1 0.833899 0.593066 0.910823
94 1 0.929223 0.589605 0.0188557
815 1 0.916813 0.505071 0.925496
814 1 0.904026 0.584154 0.835138
843 1 0.0659218 0.851841 0.912303
823 1 0.252955 0.663659 0.916821
821 1 0.170926 0.658069 0.833925
824 1 0.169801 0.737398 0.91345
102 1 0.238868 0.738675 -0.000856607
822 1 0.247822 0.750211 0.822216
828 1 0.31637 0.749902 0.921848
825 1 0.32423 0.664222 0.830445
832 1 0.504957 0.767233 0.928709
851 1 0.421729 0.838815 0.93967
110 1 0.577777 0.751873 0.00579773
830 1 0.569641 0.756357 0.84147
831 1 0.577985 0.667102 0.925483
855 1 0.589012 0.852198 0.914656
137 1 0.666796 0.829554 1.01481
833 1 0.658632 0.671206 0.837217
835 1 0.752787 0.671664 0.927078
836 1 0.646308 0.76221 0.923464
114 1 0.744576 0.754915 0.986436
857 1 0.660218 0.829593 0.829055
859 1 0.746978 0.835874 0.90153
121 1 -0.00561905 0.82577 0.995324
839 1 0.927011 0.663214 0.925911
820 1 0.012714 0.750606 0.910756
840 1 0.842076 0.737211 0.916419
117 1 0.82989 0.663165 1.01095
118 1 0.914239 0.756478 0.980653
838 1 0.922299 0.732447 0.82616
841 1 0.00602097 0.842493 0.82479
723 1 0.073574 0.992717 0.907971
844 1 0.983531 0.909802 0.911256
845 1 0.166825 0.822083 0.818045
727 1 0.247056 0.998864 0.914397
847 1 0.241081 0.832433 0.904978
129 1 0.325609 0.824898 0.000567603
848 1 0.171913 0.927205 0.914522
852 1 0.318858 0.908077 0.930078
13 1 0.483656 -0.00574728 -0.00628628
731 1 0.414259 -0.0059347 0.911216
856 1 0.48886 0.91612 0.905631
134 1 0.586565 0.942297 1.00018
854 1 0.574947 0.931375 0.847022
860 1 0.673488 0.928016 0.93146
861 1 0.829085 0.796593 0.831272
737 1 0.682659 0.993753 0.849771
21 1 0.833549 0.00598119 1.00634
862 1 0.928198 0.92238 0.817342
863 1 0.925204 0.820531 0.889416
864 1 0.838954 0.902279 0.911337
