ITEM: TIMESTEP
5000
ITEM: NUMBER OF ATOMS
864
ITEM: BOX BOUNDS pp pp pp
0.0000000000000000e+00 3.1559999999999999e+01
0.0000000000000000e+00 3.1559999999999999e+01
0.0000000000000000e+00 3.1559999999999999e+01
ITEM: ATOMS id type xs ys zs
27 1 0.0804168 0.161051 0.0809133
3 1 0.0841271 0.995925 0.0784606
4 1 0.993011 0.0714999 0.0939829
2 1 0.0770524 0.0808806 0.0121252
29 1 0.157871 0.157548 0.00318418
8 1 0.162238 0.0899697 0.095252
6 1 0.252703 0.0758068 0.979148
12 1 0.324905 0.0863705 0.0783291
16 1 0.495981 0.0904041 0.084246
35 1 0.42279 0.170305 0.0748027
9 1 0.329576 0.988923 0.967175
15 1 0.584323 0.02693 0.0879763
158 1 0.567054 0.093822 0.179071
39 1 0.587498 0.163517 0.0850663
185 1 0.663476 0.169675 0.164754
13 1 0.504444 -0.00839228 0.988054
20 1 0.670286 0.0852631 0.0844672
19 1 0.758692 0.00731006 0.087051
43 1 0.738094 0.165987 0.0809364
18 1 0.759221 0.0781844 1.01054
24 1 0.83808 0.098819 0.0921636
22 1 0.907108 0.070213 0.989338
47 1 0.92733 0.172277 0.101712
166 1 0.906766 0.101503 0.179347
169 1 1.00783 0.178047 0.167001
51 1 0.0918295 0.326191 0.0875125
28 1 0.00578821 0.249832 0.0853771
26 1 0.081881 0.23953 0.0103914
32 1 0.168498 0.2447 0.0798216
53 1 0.174381 0.324275 -0.0010219
31 1 0.246221 0.173457 0.0870324
30 1 0.243053 0.239006 0.997766
36 1 0.329972 0.252896 0.0802249
55 1 0.243441 0.324486 0.076012
57 1 0.339497 0.328696 0.0023491
40 1 0.514052 0.240805 0.0751168
178 1 0.417976 0.251508 0.161442
44 1 0.669645 0.254461 0.070416
182 1 0.591798 0.252973 0.152809
48 1 0.82451 0.237529 0.088425
69 1 0.841738 0.325931 1.00863
186 1 0.743529 0.23132 0.162835
193 1 0.998971 0.330546 0.15439
190 1 0.902719 0.272244 0.178974
52 1 0.99811 0.420234 0.0622328
194 1 0.0947358 0.419141 0.144395
50 1 0.0870152 0.408205 0.0103339
56 1 0.181717 0.42201 0.075751
60 1 0.344264 0.411151 0.0820208
79 1 0.269793 0.490174 0.060786
54 1 0.256376 0.406674 0.990587
59 1 0.426392 0.330021 0.0876258
83 1 0.415421 0.487258 0.0898038
64 1 0.512129 0.415414 0.0827769
229 1 0.50293 0.494663 0.160106
205 1 0.503778 0.343617 0.167252
225 1 0.333806 0.513193 0.172839
81 1 0.357355 0.517094 0.995628
63 1 0.576747 0.327393 0.0819132
68 1 0.682839 0.412721 0.0805243
89 1 0.672115 0.492043 0.0120242
206 1 0.589032 0.424528 0.162865
87 1 0.579404 0.488845 0.0842967
213 1 0.821245 0.345666 0.161487
67 1 0.751382 0.32987 0.0829485
72 1 0.835727 0.423359 0.0885328
210 1 0.7504 0.422589 0.16951
91 1 0.76313 0.499004 0.0862962
71 1 0.921592 0.327126 0.0832907
95 1 0.917317 0.494474 0.0906158
214 1 0.922016 0.421721 0.163516
75 1 0.0871424 0.502178 0.0839793
76 1 -0.00763566 0.58102 0.0782481
99 1 0.0815808 0.665223 0.0916118
241 1 0.00993052 0.655761 0.165916
77 1 0.173243 0.504262 0.00120988
101 1 0.169198 0.674126 -0.00144342
80 1 0.171743 0.576038 0.0827794
84 1 0.336477 0.595073 0.0792188
103 1 0.249892 0.672136 0.0918846
222 1 0.253161 0.588361 0.16292
249 1 0.330431 0.666824 0.177215
88 1 0.500549 0.576889 0.0833892
226 1 0.410758 0.588412 0.15078
107 1 0.425044 0.666739 0.0811307
82 1 0.427302 0.592318 0.995875
230 1 0.57543 0.5877 0.173785
253 1 0.502207 0.673646 0.161051
86 1 0.58629 0.579374 0.00350757
92 1 0.666305 0.573713 0.0782285
233 1 0.670266 0.48812 0.152921
234 1 0.752275 0.586733 0.161592
96 1 0.841616 0.581418 0.0916185
94 1 0.910185 0.583249 1.01067
119 1 0.919014 0.666573 0.0854748
261 1 0.840039 0.660999 0.155164
237 1 0.827486 0.512563 0.170714
238 1 0.929729 0.57353 0.157814
104 1 0.167972 0.739255 0.0806001
100 1 -0.00731546 0.739885 0.0911718
125 1 0.165593 0.826265 1.00399
269 1 0.173837 0.817442 0.153515
102 1 0.257683 0.760801 0.998685
246 1 0.247894 0.741436 0.182066
108 1 0.344528 0.748657 0.0650138
112 1 0.49935 0.75655 0.0821665
133 1 0.494956 0.821647 1.00276
273 1 0.313825 0.817537 0.157621
111 1 0.57572 0.662024 0.0834056
257 1 0.667569 0.660523 0.1544
254 1 0.582687 0.763187 0.155261
116 1 0.663574 0.757412 0.0850288
281 1 0.65946 0.848903 0.174453
115 1 0.751414 0.657156 0.0723861
258 1 0.758256 0.742877 0.151744
117 1 0.828643 0.666565 1.00137
120 1 0.833665 0.740083 0.0789398
143 1 0.909817 0.821265 0.0913949
118 1 0.915452 0.741492 0.00212713
149 1 0.161318 -0.0148779 0.164747
123 1 0.0856709 0.823128 0.0827004
124 1 1.00302 0.9254 0.077819
5 1 0.149918 0.993099 -0.00407949
128 1 0.154827 0.907701 0.0842549
7 1 0.234006 0.00641421 0.0697174
127 1 0.250807 0.843888 0.0644333
126 1 0.247768 0.928385 1.00642
11 1 0.410694 0.0186467 0.0642341
131 1 0.417474 0.835697 0.0760573
277 1 0.490739 0.828807 0.150486
132 1 0.334761 0.921847 0.0738792
135 1 0.58153 0.841772 0.0863664
136 1 0.496193 0.93021 0.0674471
140 1 0.660143 0.926276 0.0698263
139 1 0.741936 0.827859 0.0730411
144 1 0.828906 0.9097 0.0822764
282 1 0.754924 0.92087 0.161018
23 1 0.899855 0.00590255 0.0784766
21 1 0.832204 0.983282 1.00222
141 1 0.838705 0.826314 0.00253472
142 1 0.918652 0.913434 0.00704925
146 1 0.0721408 0.077481 0.158365
171 1 0.0728168 0.17165 0.252786
148 1 0.993129 0.0979861 0.244525
152 1 0.162136 0.0822329 0.242509
150 1 0.24331 0.0798138 0.16996
293 1 0.168637 1.00681 0.317665
151 1 0.23821 0.996495 0.232654
154 1 0.416287 0.0916482 0.158762
153 1 0.31461 -0.00011344 0.137468
156 1 0.331365 0.0833763 0.243808
160 1 0.490039 0.0782392 0.246334
302 1 0.5927 0.0824369 0.324569
164 1 0.669977 0.0805834 0.241794
159 1 0.576769 0.00741845 0.237767
301 1 0.505915 0.00133635 0.322088
305 1 0.665791 -0.00758382 0.323461
161 1 0.671294 -0.00576821 0.158238
162 1 0.741882 0.0910108 0.16396
163 1 0.747212 0.00516456 0.248855
168 1 0.822566 0.0924686 0.265819
191 1 0.90857 0.182116 0.257039
167 1 0.910481 0.0222083 0.252553
173 1 0.152049 0.170076 0.158796
170 1 0.0692936 0.252891 0.183509
172 1 0.997922 0.268624 0.251886
314 1 0.0859919 0.250718 0.316686
177 1 0.335685 0.173246 0.155587
176 1 0.171681 0.242394 0.236303
175 1 0.25144 0.168836 0.237186
174 1 0.248242 0.247945 0.154791
180 1 0.333206 0.256155 0.243792
318 1 0.254454 0.256601 0.337267
179 1 0.405837 0.169459 0.25178
184 1 0.4914 0.271013 0.245402
203 1 0.408238 0.35337 0.255234
322 1 0.410393 0.252203 0.320356
183 1 0.587667 0.164974 0.247682
181 1 0.482313 0.172052 0.17845
207 1 0.585454 0.340888 0.238767
325 1 0.503541 0.18896 0.30832
326 1 0.58313 0.259881 0.326234
349 1 0.509966 0.351075 0.329423
209 1 0.663131 0.33609 0.148544
187 1 0.739113 0.171672 0.249576
188 1 0.659615 0.248863 0.251281
189 1 0.817066 0.163814 0.172696
192 1 0.823483 0.246819 0.251269
330 1 0.737218 0.26179 0.33157
357 1 0.82396 0.333143 0.326905
215 1 0.923986 0.342656 0.260148
334 1 0.925087 0.261611 0.346314
337 1 0.0164216 0.333688 0.337005
221 1 0.170344 0.493952 0.159045
197 1 0.170094 0.331368 0.164253
195 1 0.0760896 0.352309 0.232393
217 1 0.0096273 0.488381 0.159003
200 1 0.17573 0.426086 0.238446
341 1 0.161883 0.334605 0.328752
198 1 0.255593 0.424561 0.157211
199 1 0.254015 0.326179 0.239588
204 1 0.331777 0.428653 0.244927
201 1 0.324809 0.328733 0.159337
345 1 0.33137 0.336572 0.335837
202 1 0.413559 0.425225 0.166901
346 1 0.414742 0.417263 0.336886
208 1 0.503424 0.428121 0.260551
350 1 0.580888 0.427245 0.333216
231 1 0.576053 0.503198 0.242253
211 1 0.744565 0.33697 0.240087
212 1 0.653238 0.424617 0.245293
216 1 0.814389 0.432075 0.254254
354 1 0.745778 0.413779 0.341236
381 1 0.816009 0.497228 0.339435
196 1 0.996257 0.409787 0.262286
239 1 0.914967 0.483801 0.254219
361 1 1.0062 0.492759 0.337657
219 1 0.0867007 0.485999 0.248872
218 1 0.0839497 0.586421 0.167443
220 1 -0.00740865 0.568542 0.243298
362 1 0.0738183 0.591706 0.323764
224 1 0.176501 0.5842 0.238922
223 1 0.249588 0.504645 0.247265
247 1 0.251729 0.664504 0.25281
228 1 0.340337 0.567097 0.259971
245 1 0.162887 0.659415 0.156328
365 1 0.156754 0.511627 0.322903
366 1 0.262972 0.574795 0.344707
227 1 0.437563 0.509228 0.237868
251 1 0.419847 0.669651 0.247585
370 1 0.426692 0.600156 0.32915
232 1 0.5008 0.587182 0.246337
374 1 0.583936 0.583585 0.341061
236 1 0.655865 0.584013 0.248389
401 1 0.670354 0.66314 0.321847
377 1 0.669886 0.499033 0.339076
235 1 0.735886 0.508222 0.251974
378 1 0.742157 0.583436 0.329499
240 1 0.814033 0.574274 0.261918
263 1 0.909913 0.640445 0.242337
242 1 0.0857912 0.741428 0.171459
243 1 0.0738687 0.66436 0.249128
244 1 0.00298651 0.749709 0.253035
385 1 0.988726 0.649226 0.312682
248 1 0.159468 0.751843 0.25485
271 1 0.244999 0.835183 0.252455
413 1 0.161207 0.824145 0.326472
390 1 0.259136 0.758519 0.329602
250 1 0.417667 0.750103 0.17429
252 1 0.340033 0.752408 0.246981
397 1 0.505281 0.672674 0.333776
417 1 0.337426 0.836833 0.318546
255 1 0.574893 0.675519 0.244558
256 1 0.500401 0.749092 0.240038
260 1 0.658365 0.751669 0.240366
279 1 0.56847 0.840843 0.240443
259 1 0.748898 0.675597 0.24475
283 1 0.75472 0.839743 0.243737
262 1 0.913839 0.751879 0.166991
264 1 0.829048 0.74792 0.230098
405 1 0.826851 0.667424 0.323431
406 1 0.923584 0.749359 0.326822
285 1 0.817575 0.834002 0.1545
287 1 0.915554 0.831364 0.242468
429 1 0.836564 0.834469 0.331616
266 1 0.0817908 0.91444 0.16323
145 1 0.988471 0.989072 0.164376
147 1 0.0929976 -0.00151694 0.242196
267 1 0.0795186 0.841121 0.23688
268 1 1.00516 0.912244 0.260078
272 1 0.176412 0.915334 0.246893
270 1 0.242753 0.918796 0.140172
276 1 0.309549 0.921991 0.217034
414 1 0.250571 0.919022 0.323532
274 1 0.425325 0.928575 0.156129
157 1 0.500063 0.00232493 0.153056
155 1 0.401259 -0.000204193 0.225096
275 1 0.424504 0.837442 0.234311
418 1 0.431396 0.922339 0.305347
278 1 0.590645 0.931386 0.149987
280 1 0.506379 0.92708 0.228877
284 1 0.657064 0.919305 0.247539
288 1 0.846332 0.930068 0.250845
426 1 0.757966 0.922287 0.326505
265 1 -0.00658982 0.8372 0.170437
286 1 0.905058 0.921764 0.167596
165 1 0.838797 0.00872652 0.166962
290 1 0.0783922 0.0910574 0.332259
296 1 0.159823 0.0895352 0.418364
434 1 0.08477 0.0904397 0.489561
294 1 0.240127 0.0918195 0.329727
321 1 0.334764 0.16655 0.331574
295 1 0.239453 0.997892 0.404772
438 1 0.249607 0.0772209 0.482335
437 1 0.178724 0.994736 0.497091
300 1 0.329367 0.0761496 0.411571
298 1 0.421524 0.0890179 0.336988
299 1 0.421339 1.00012 0.390616
329 1 0.658726 0.173196 0.336885
304 1 0.502735 0.0997992 0.421705
308 1 0.671591 0.0880147 0.416293
306 1 0.747318 0.0830711 0.337381
312 1 0.837866 0.0858212 0.423738
307 1 0.742238 -0.00382209 0.419463
292 1 1.00103 0.082769 0.393818
310 1 0.905741 0.0897258 0.334405
454 1 0.917841 0.082378 0.495541
315 1 0.0853665 0.169374 0.409082
339 1 0.0928752 0.31744 0.418392
458 1 0.104175 0.247445 0.494492
319 1 0.25016 0.167595 0.400642
317 1 0.159733 0.168369 0.320443
320 1 0.175838 0.256292 0.413346
462 1 0.250064 0.241081 0.504439
461 1 0.168672 0.164009 0.485476
465 1 0.336931 0.158365 0.498458
323 1 0.420851 0.184292 0.41658
324 1 0.342228 0.24628 0.429309
327 1 0.586005 0.172491 0.414226
328 1 0.496594 0.252399 0.394774
332 1 0.658664 0.254176 0.406002
331 1 0.737198 0.181841 0.412107
353 1 0.665654 0.33795 0.345533
355 1 0.745008 0.341485 0.429972
497 1 0.659924 0.32877 0.496453
313 1 0.995336 0.188933 0.322163
333 1 0.808334 0.172756 0.33764
335 1 0.916228 0.166815 0.40797
316 1 0.0035766 0.24218 0.421563
336 1 0.820824 0.257251 0.410603
359 1 0.922646 0.342126 0.414249
338 1 0.103369 0.42372 0.330675
340 1 -0.00107969 0.413072 0.413048
482 1 0.0832687 0.409362 0.488673
343 1 0.2437 0.342534 0.425611
344 1 0.160248 0.415641 0.413522
342 1 0.254377 0.411735 0.32109
485 1 0.162374 0.339033 0.496281
486 1 0.243324 0.411333 0.505592
373 1 0.505396 0.521443 0.336194
347 1 0.411989 0.337352 0.413577
348 1 0.332083 0.416153 0.428203
352 1 0.497943 0.427844 0.405801
369 1 0.351054 0.504574 0.34504
489 1 0.331143 0.328207 0.513076
490 1 0.425361 0.430308 0.496722
493 1 0.494863 0.336348 0.490626
351 1 0.585097 0.338529 0.414246
375 1 0.595581 0.493527 0.423374
356 1 0.667561 0.410618 0.4225
379 1 0.745239 0.489404 0.43741
360 1 0.839986 0.412552 0.418772
501 1 0.835214 0.342549 0.499355
358 1 0.908066 0.41242 0.339776
383 1 0.926367 0.510393 0.422373
363 1 0.08596 0.497081 0.415987
387 1 0.0768185 0.67489 0.411817
529 1 -0.0074766 0.683124 0.525369
389 1 0.155519 0.659171 0.327421
368 1 0.16577 0.588558 0.411449
367 1 0.247843 0.497079 0.414057
391 1 0.245363 0.670955 0.396876
510 1 0.255617 0.586828 0.48486
371 1 0.418457 0.506981 0.422019
372 1 0.345088 0.589889 0.421392
376 1 0.494197 0.591697 0.416532
395 1 0.422263 0.674464 0.422781
399 1 0.5743 0.674234 0.41461
518 1 0.57702 0.590812 0.492963
545 1 0.667425 0.663928 0.506634
380 1 0.663391 0.592329 0.415332
384 1 0.830735 0.586948 0.422375
403 1 0.744341 0.677544 0.413485
364 1 1.00445 0.580053 0.40626
382 1 0.911685 0.554608 0.326237
526 1 0.924907 0.593179 0.501195
386 1 0.0828074 0.745398 0.325933
409 1 0.0136843 0.822517 0.347795
388 1 1.0043 0.742852 0.399642
411 1 0.0836951 0.83297 0.419977
530 1 0.0782717 0.749567 0.497854
533 1 0.165543 0.659385 0.505509
392 1 0.171376 0.744528 0.400506
415 1 0.249162 0.819728 0.424918
534 1 0.253853 0.7298 0.492778
394 1 0.426729 0.742095 0.324341
393 1 0.324214 0.674891 0.32048
396 1 0.34483 0.749243 0.39844
538 1 0.432065 0.756744 0.496826
561 1 0.346175 0.818035 0.482113
398 1 0.591369 0.753435 0.32557
421 1 0.498906 0.825703 0.316905
400 1 0.504383 0.753888 0.413845
404 1 0.673293 0.755742 0.395188
402 1 0.748238 0.754308 0.321981
546 1 0.74094 0.758919 0.503703
408 1 0.836371 0.742793 0.418575
573 1 0.841464 0.84984 0.490401
549 1 0.823389 0.666571 0.490805
407 1 0.912955 0.66218 0.416249
550 1 0.914566 0.747617 0.485973
431 1 0.922038 0.830206 0.41552
289 1 0.000122015 0.00461038 0.318757
410 1 0.0930651 0.912563 0.345609
291 1 0.101449 0.000799895 0.409499
416 1 0.172455 0.906082 0.416404
297 1 0.330174 0.999341 0.316794
557 1 0.179953 0.842206 0.5142
558 1 0.2769 0.907529 0.494203
419 1 0.422982 0.835887 0.397744
420 1 0.342486 0.912409 0.40538
562 1 0.420794 0.903584 0.502149
422 1 0.578684 0.909988 0.330368
424 1 0.490492 0.927699 0.424039
303 1 0.582577 0.0122545 0.411145
423 1 0.593714 0.829938 0.411223
566 1 0.568874 0.918514 0.488046
565 1 0.507889 0.825484 0.499365
425 1 0.669584 0.838694 0.331805
427 1 0.749629 0.840482 0.412997
428 1 0.657747 0.933434 0.417383
569 1 0.665843 0.839341 0.488598
309 1 0.837378 0.0154775 0.339918
430 1 0.922418 0.916003 0.331454
311 1 0.922184 -0.0044349 0.416832
412 1 0.0109954 0.909968 0.407846
432 1 0.837085 0.922602 0.408445
453 1 0.828887 1.00923 0.500161
433 1 0.0162486 0.994306 0.483373
457 1 0.989629 0.155119 0.497132
440 1 0.175976 0.0753312 0.574628
436 1 1.00723 0.0829457 0.566414
601 1 0.989497 0.172847 0.64819
459 1 0.0829279 0.15769 0.576054
578 1 0.085629 0.0677583 0.658876
444 1 0.329525 0.0748882 0.574808
582 1 0.248109 0.0929781 0.660908
442 1 0.416169 0.088379 0.496818
586 1 0.43051 0.0880954 0.680598
445 1 0.518616 0.0152315 0.501999
448 1 0.510848 0.0751677 0.601308
441 1 0.351844 0.99473 0.47715
443 1 0.425746 0.00122575 0.578349
446 1 0.587143 0.0945578 0.493776
590 1 0.586092 0.0863157 0.670852
449 1 0.653958 0.00647404 0.503764
450 1 0.741763 0.0757278 0.505227
452 1 0.66386 0.0849941 0.58053
451 1 0.74983 -0.00197133 0.580788
456 1 0.831005 0.0772536 0.587623
455 1 0.931677 1.00185 0.578591
597 1 0.829045 1.00675 0.676817
479 1 0.901579 0.189802 0.563019
598 1 0.930801 0.0812668 0.662349
460 1 -0.00240209 0.242889 0.560458
483 1 0.071195 0.329217 0.579201
602 1 0.0822204 0.242293 0.656895
605 1 0.148407 0.153127 0.659638
625 1 0.00262805 0.329405 0.657626
464 1 0.164248 0.251354 0.589269
463 1 0.24264 0.16519 0.570444
468 1 0.326305 0.236096 0.585929
629 1 0.174756 0.32601 0.68091
466 1 0.417507 0.254001 0.520844
467 1 0.41109 0.163148 0.58464
610 1 0.423241 0.261591 0.665487
469 1 0.497335 0.180446 0.507628
473 1 0.6647 0.177988 0.491754
471 1 0.597137 0.174383 0.571519
617 1 0.681792 0.172318 0.668228
470 1 0.57614 0.25779 0.489793
472 1 0.508249 0.272332 0.574599
476 1 0.66731 0.251798 0.588155
474 1 0.749037 0.254746 0.489057
475 1 0.746059 0.160444 0.579135
618 1 0.753167 0.262137 0.655442
480 1 0.814579 0.256993 0.580976
477 1 0.816961 0.15699 0.497477
478 1 0.907484 0.259192 0.479397
481 1 -0.0029918 0.330475 0.484376
621 1 0.835921 0.16757 0.663935
622 1 0.915408 0.246268 0.661961
484 1 1.00028 0.414002 0.564879
626 1 0.0661828 0.420775 0.664898
488 1 0.149899 0.408763 0.593129
487 1 0.234338 0.334352 0.576252
630 1 0.251794 0.404881 0.663772
509 1 0.161945 0.490964 0.499445
653 1 0.162104 0.485285 0.66896
491 1 0.430464 0.353031 0.582711
492 1 0.334696 0.405743 0.581969
496 1 0.510172 0.426522 0.580091
494 1 0.57721 0.417252 0.497787
495 1 0.582753 0.34126 0.572054
641 1 0.665477 0.321744 0.666293
517 1 0.505363 0.497914 0.500821
519 1 0.584056 0.504751 0.590905
498 1 0.747462 0.41556 0.512409
500 1 0.649097 0.411124 0.598816
499 1 0.738358 0.326534 0.575764
642 1 0.744962 0.423951 0.683523
525 1 0.833344 0.489112 0.501369
503 1 0.916246 0.322736 0.559668
504 1 0.834988 0.421362 0.586022
502 1 0.910238 0.415293 0.491709
646 1 0.91673 0.413317 0.660381
506 1 0.0705199 0.587707 0.505735
507 1 0.083744 0.48417 0.577614
508 1 0.988658 0.573938 0.58898
673 1 0.989367 0.666856 0.673856
512 1 0.159717 0.575632 0.589825
511 1 0.24364 0.499073 0.577588
654 1 0.256103 0.569835 0.661383
535 1 0.253505 0.653554 0.580766
677 1 0.180961 0.656686 0.666651
513 1 0.329024 0.505445 0.497491
681 1 0.330641 0.642588 0.671802
514 1 0.426402 0.593074 0.500398
515 1 0.41295 0.493317 0.580943
516 1 0.335687 0.569998 0.586106
539 1 0.4285 0.662632 0.578731
520 1 0.516058 0.588778 0.584279
543 1 0.58931 0.678208 0.594021
524 1 0.640899 0.594424 0.582892
662 1 0.573307 0.593224 0.678363
521 1 0.659491 0.49518 0.504193
523 1 0.757132 0.497291 0.595404
669 1 0.83428 0.480034 0.676955
522 1 0.73822 0.565826 0.508172
547 1 0.754461 0.672372 0.58451
666 1 0.760881 0.569038 0.668814
505 1 0.00713796 0.501518 0.496362
528 1 0.824453 0.585021 0.575601
527 1 0.914983 0.492994 0.58359
551 1 0.914603 0.672014 0.597518
531 1 0.076705 0.659755 0.599066
555 1 0.0823642 0.835041 0.578433
674 1 0.0725617 0.735521 0.667588
536 1 0.172202 0.741638 0.588186
559 1 0.267556 0.81886 0.55875
678 1 0.258054 0.744976 0.668194
705 1 0.336548 0.817076 0.666586
541 1 0.503292 0.677899 0.499477
537 1 0.349667 0.658682 0.501032
540 1 0.338636 0.721627 0.593029
544 1 0.499197 0.763063 0.581266
682 1 0.429468 0.746721 0.658186
685 1 0.503165 0.677891 0.659962
542 1 0.60138 0.746194 0.496169
686 1 0.591515 0.753438 0.671995
548 1 0.672842 0.743392 0.59543
552 1 0.830397 0.743523 0.578586
689 1 0.679288 0.671308 0.667054
693 1 0.828186 0.672081 0.671479
553 1 -0.00837677 0.828776 0.49547
532 1 0.997323 0.764984 0.588537
575 1 0.919454 0.845352 0.591978
694 1 0.911805 0.767825 0.664622
554 1 0.0989838 0.90729 0.491711
435 1 0.0981492 1.01055 0.568514
560 1 0.151702 0.920675 0.599058
556 1 -0.000698847 0.912333 0.57723
581 1 0.176604 -0.00732861 0.675422
439 1 0.254925 -0.00907181 0.581372
564 1 0.338748 0.922889 0.575842
701 1 0.146291 0.833854 0.657449
702 1 0.252953 0.893936 0.659221
563 1 0.401527 0.827036 0.581619
706 1 0.425001 0.909291 0.66153
585 1 0.359548 0.00991876 0.657932
447 1 0.586555 -0.00358463 0.59023
568 1 0.50116 0.928086 0.576349
567 1 0.59782 0.826853 0.581231
570 1 0.742361 0.918552 0.500881
571 1 0.768394 0.824225 0.583025
572 1 0.662268 0.92238 0.583197
714 1 0.752844 0.924316 0.655372
574 1 0.918673 0.934546 0.504973
576 1 0.839497 0.922192 0.590701
577 1 0.00820646 0.996981 0.650712
722 1 0.0841373 0.0806969 0.836206
579 1 0.0941718 1.00463 0.744245
580 1 0.00600793 0.0755919 0.738246
609 1 0.348786 0.160915 0.664887
584 1 0.176022 0.0741328 0.750185
726 1 0.240225 0.07872 0.835674
753 1 0.342933 0.157819 0.833966
588 1 0.339545 0.077787 0.759106
589 1 0.504417 -0.00485235 0.672729
730 1 0.42373 0.086648 0.834365
592 1 0.506704 0.0893224 0.754356
615 1 0.592883 0.174483 0.760244
596 1 0.672591 0.105282 0.74754
594 1 0.750691 0.0845385 0.65455
595 1 0.753334 -0.00491598 0.761759
738 1 0.7459 0.0792877 0.830719
600 1 0.823856 0.0901885 0.743769
742 1 0.932123 0.0795425 0.823692
603 1 0.0845895 0.162933 0.758669
746 1 0.0956511 0.249176 0.836899
769 1 0.0221249 0.337199 0.839599
608 1 0.183903 0.237012 0.746744
745 1 0.0227802 0.160468 0.841196
606 1 0.238064 0.222733 0.660847
749 1 0.156496 0.155476 0.842533
607 1 0.256355 0.161351 0.754744
750 1 0.259408 0.23654 0.836297
612 1 0.334279 0.24348 0.731433
777 1 0.349856 0.332983 0.829982
611 1 0.411676 0.168465 0.756054
754 1 0.431472 0.256408 0.823739
616 1 0.497536 0.254781 0.746516
635 1 0.433195 0.342404 0.750792
781 1 0.490674 0.342998 0.837707
613 1 0.515306 0.161553 0.672639
614 1 0.585759 0.239857 0.655352
758 1 0.573554 0.257478 0.826927
620 1 0.656436 0.256901 0.751365
757 1 0.50802 0.163208 0.828494
761 1 0.673565 0.168102 0.836618
619 1 0.757927 0.177136 0.762815
762 1 0.741282 0.266821 0.827743
789 1 0.852503 0.335861 0.851801
645 1 0.827662 0.33705 0.666778
765 1 0.841313 0.162082 0.827601
623 1 0.918346 0.158415 0.749779
604 1 0.00239895 0.235941 0.751574
624 1 0.833188 0.258478 0.747183
766 1 0.936519 0.23558 0.83162
627 1 0.0743715 0.337917 0.735652
628 1 0.997931 0.421908 0.749895
633 1 0.336833 0.320246 0.657623
657 1 0.330972 0.49573 0.670643
631 1 0.252886 0.335473 0.751936
632 1 0.161196 0.399692 0.759687
636 1 0.343446 0.426685 0.75046
634 1 0.429467 0.426057 0.657161
659 1 0.422657 0.516927 0.758339
778 1 0.436084 0.430521 0.846574
640 1 0.504764 0.428103 0.757738
638 1 0.577949 0.432862 0.673027
637 1 0.515429 0.338225 0.654916
639 1 0.580497 0.345296 0.74687
644 1 0.662692 0.423696 0.756512
785 1 0.664612 0.343618 0.830242
643 1 0.747715 0.337617 0.749182
647 1 0.919521 0.330221 0.728352
648 1 0.847471 0.411775 0.75698
650 1 0.0808673 0.575161 0.670773
651 1 0.0799793 0.498657 0.755959
649 1 0.997916 0.505839 0.669921
652 1 0.0104829 0.576575 0.764558
794 1 0.0753143 0.585856 0.838055
656 1 0.167028 0.568773 0.758525
655 1 0.234084 0.481929 0.74782
797 1 0.161337 0.498474 0.842077
679 1 0.240438 0.644249 0.759372
661 1 0.507558 0.506294 0.684996
658 1 0.43056 0.573445 0.665388
660 1 0.320105 0.564617 0.755243
664 1 0.500122 0.590333 0.760896
802 1 0.419213 0.586905 0.837436
663 1 0.595367 0.507187 0.753923
806 1 0.589359 0.573113 0.847541
668 1 0.666123 0.586268 0.768529
665 1 0.668782 0.516336 0.684343
667 1 0.751843 0.49561 0.767934
691 1 0.754098 0.675484 0.752674
670 1 0.904099 0.581069 0.669293
672 1 0.823841 0.597817 0.757923
671 1 0.924998 0.490773 0.75092
814 1 0.921534 0.595331 0.849164
813 1 0.83579 0.509338 0.847836
675 1 0.0909574 0.651708 0.745864
676 1 0.987479 0.762759 0.749882
817 1 1.00312 0.667535 0.834577
699 1 0.0783539 0.807941 0.747225
697 1 -0.00427511 0.846735 0.665507
825 1 0.326922 0.667488 0.837289
680 1 0.16854 0.747709 0.736349
684 1 0.335618 0.726855 0.748641
703 1 0.234781 0.828136 0.74941
849 1 0.344621 0.817235 0.812933
845 1 0.158046 0.81731 0.829324
683 1 0.427187 0.665045 0.746461
709 1 0.510384 0.83207 0.65981
826 1 0.41646 0.737641 0.828751
688 1 0.512642 0.752359 0.742197
707 1 0.424408 0.824363 0.746106
687 1 0.595381 0.663706 0.746133
692 1 0.656145 0.748909 0.760034
690 1 0.753522 0.757696 0.669087
717 1 0.830806 0.841482 0.673141
696 1 0.836726 0.749615 0.750212
695 1 0.905838 0.657151 0.764308
719 1 0.90942 0.8394 0.743711
698 1 0.0748683 0.920288 0.674216
700 1 0.00942581 0.907595 0.757411
842 1 0.0809613 0.906718 0.830431
704 1 0.153769 0.909777 0.743309
583 1 0.260183 -0.0113244 0.755807
708 1 0.342542 0.903346 0.731371
846 1 0.255727 0.895388 0.830696
587 1 0.421315 0.00323302 0.755089
712 1 0.501663 0.919051 0.747106
850 1 0.412531 0.909933 0.816464
591 1 0.58212 1.00265 0.757768
711 1 0.602258 0.843353 0.748138
710 1 0.580717 0.910568 0.660967
733 1 0.508465 1.00385 0.831829
713 1 0.6788 0.849795 0.653239
593 1 0.675195 0.00396527 0.664713
716 1 0.671836 0.927844 0.747475
715 1 0.737844 0.830799 0.746625
858 1 0.751074 0.929366 0.841403
718 1 0.91657 0.921244 0.678039
720 1 0.826361 0.922169 0.745132
599 1 0.923621 0.9995 0.752193
861 1 0.822994 0.835091 0.817051
862 1 0.932608 0.924186 0.838927
728 1 0.156579 0.0819604 0.929217
721 1 0.012205 -0.00450419 0.826048
724 1 0.00912312 0.0803828 0.908234
751 1 0.257596 0.162069 0.919237
732 1 0.338101 0.0735222 0.904562
725 1 0.165767 0.977163 0.825345
10 1 0.42571 0.0837491 0.979363
736 1 0.513433 0.0884167 0.915014
755 1 0.416509 0.180417 0.902449
734 1 0.602445 0.0827325 0.829412
14 1 0.584066 0.0889902 0.999814
759 1 0.580238 0.177681 0.909543
740 1 0.672552 0.0809121 0.908856
41 1 0.668517 0.174323 0.995979
735 1 0.593228 0.995955 0.914448
763 1 0.748117 0.15321 0.925278
17 1 0.672728 0.00938568 -0.00631717
737 1 0.669356 0.00421089 0.835226
739 1 0.753676 -0.00386308 0.916932
741 1 0.838773 0.994642 0.838812
744 1 0.821775 0.0763412 0.91172
25 1 0.989775 0.161406 0.00300898
747 1 0.0722589 0.163037 0.93388
771 1 0.0903224 0.318961 0.931624
748 1 0.00604191 0.248598 0.917058
33 1 0.347923 0.150149 0.986301
752 1 0.175066 0.23645 0.91517
775 1 0.262289 0.344259 0.902258
61 1 0.501034 0.341034 1.00914
756 1 0.323282 0.258839 0.918268
34 1 0.418583 0.247044 1.00134
779 1 0.403513 0.331779 0.92268
760 1 0.495326 0.253783 0.913137
65 1 0.679887 0.342263 0.000196898
37 1 0.506531 0.166124 1.00518
38 1 0.575717 0.252675 0.990023
783 1 0.60072 0.331199 0.928003
764 1 0.667299 0.247314 0.910266
45 1 0.834039 0.166417 -0.00123486
42 1 0.755069 0.244099 -0.00473497
768 1 0.836927 0.247968 0.919953
787 1 0.748664 0.33084 0.914348
46 1 0.918749 0.245768 1.021
767 1 0.919961 0.154808 0.906192
49 1 1.0133 0.317722 0.00659691
791 1 0.931988 0.328604 0.911386
770 1 0.0992614 0.39951 0.851988
776 1 0.170992 0.421757 0.9339
795 1 0.0814258 0.492145 0.929417
773 1 0.181059 0.317333 0.836065
774 1 0.253345 0.426193 0.827345
801 1 0.339489 0.497199 0.828567
780 1 0.346694 0.425235 0.912331
799 1 0.265456 0.502196 0.924999
58 1 0.416483 0.411794 -0.00100302
784 1 0.495568 0.413253 0.935003
803 1 0.424683 0.507845 0.904803
782 1 0.575202 0.422416 0.842298
62 1 0.590147 0.416578 0.0035941
807 1 0.585275 0.50154 0.923345
788 1 0.654996 0.425076 0.912512
85 1 0.494149 0.509824 1.00608
66 1 0.764292 0.415709 0.00657461
786 1 0.766757 0.399116 0.834789
792 1 0.835929 0.414943 0.92617
811 1 0.754226 0.482342 0.929701
793 1 0.00440645 0.497535 0.852928
70 1 0.91768 0.400094 0.999455
772 1 0.0228475 0.407153 0.926764
790 1 0.92312 0.414101 0.841093
815 1 0.923646 0.483308 0.924645
74 1 0.0826091 0.581998 0.0102711
819 1 0.0803078 0.6539 0.920707
798 1 0.248303 0.581179 0.848618
821 1 0.163217 0.671204 0.827442
78 1 0.251301 0.596334 0.005878
800 1 0.164 0.583253 0.93485
823 1 0.243046 0.665544 0.914241
105 1 0.332371 0.663185 0.974309
805 1 0.505011 0.509115 0.82718
804 1 0.346074 0.584364 0.908202
809 1 0.668434 0.501183 0.844408
833 1 0.684984 0.666188 0.834256
808 1 0.501616 0.574924 0.92252
812 1 0.668112 0.582606 0.91987
831 1 0.577392 0.66358 0.91468
93 1 0.843176 0.501459 1.00711
90 1 0.753382 0.578218 1.00266
810 1 0.754025 0.585176 0.838333
835 1 0.749556 0.660905 0.921877
816 1 0.821793 0.584167 0.929615
73 1 0.995227 0.508739 -0.00165658
796 1 0.985731 0.580252 0.927986
98 1 0.0940211 0.748225 0.00440121
818 1 0.07829 0.740157 0.832627
843 1 0.0890676 0.821381 0.920449
824 1 0.173285 0.765247 0.916186
841 1 1.00285 0.829919 0.841616
822 1 0.252008 0.743069 0.82163
828 1 0.32796 0.757447 0.906722
847 1 0.252279 0.829664 0.913931
829 1 0.516456 0.6548 0.832158
109 1 0.508523 0.664941 0.998091
827 1 0.430763 0.664195 0.912117
106 1 0.403014 0.744149 0.977724
832 1 0.4972 0.742962 0.904914
851 1 0.413687 0.843089 0.918215
830 1 0.593457 0.744463 0.84654
110 1 0.572078 0.749616 0.0038725
836 1 0.654323 0.757759 0.93274
857 1 0.672352 0.835997 0.836829
113 1 0.652224 0.660931 -0.00786976
834 1 0.750039 0.746944 0.843197
114 1 0.75005 0.750841 0.00304599
840 1 0.824207 0.747451 0.921284
97 1 0.00488217 0.666045 -0.00418492
121 1 0.981895 0.83117 0.000718818
837 1 0.83012 0.663596 0.844867
839 1 0.927639 0.688295 0.911628
838 1 0.907001 0.752062 0.833175
820 1 1.0092 0.753379 0.923132
863 1 0.913287 0.82199 0.917106
723 1 0.0805579 -0.0119057 0.906823
1 1 0.00169867 0.00788127 0.991129
122 1 0.0753731 0.902932 -0.00708346
844 1 0.985935 0.904662 0.925635
727 1 0.248601 -0.0248287 0.902337
129 1 0.339319 0.830223 -0.00966605
848 1 0.154582 0.910685 0.921811
130 1 0.41146 0.919695 0.993621
729 1 0.340728 0.992929 0.830576
731 1 0.429106 0.981609 0.902279
852 1 0.32451 0.900456 0.905455
134 1 0.579617 0.918375 0.995638
853 1 0.51317 0.834073 0.818334
854 1 0.594064 0.91808 0.8284
856 1 0.508097 0.912332 0.906666
855 1 0.581418 0.83091 0.90741
137 1 0.661074 0.844736 -0.000997473
860 1 0.676386 0.909573 0.921917
138 1 0.74972 0.926249 1.00524
859 1 0.75431 0.836888 0.911827
864 1 0.850678 0.918557 0.917744
743 1 0.927684 0.00665262 0.901868
