ITEM: TIMESTEP
3750
ITEM: NUMBER OF ATOMS
864
ITEM: BOX BOUNDS pp pp pp
0.0000000000000000e+00 3.1559999999999999e+01
0.0000000000000000e+00 3.1559999999999999e+01
0.0000000000000000e+00 3.1559999999999999e+01
ITEM: ATOMS id type xs ys zs
3 1 0.0825637 0.987314 0.0911644
2 1 0.0918237 0.0960788 0.992658
27 1 0.0791129 0.180974 0.0688554
8 1 0.161378 0.081337 0.0779156
12 1 0.329313 0.0899647 0.070277
6 1 0.237129 0.0836618 1.00075
35 1 0.411548 0.153866 0.0796243
154 1 0.420778 0.0883563 0.16967
16 1 0.51466 0.0781871 0.0785258
158 1 0.595928 0.0835675 0.166619
20 1 0.668799 0.0737442 0.0933448
24 1 0.829987 0.0710962 0.0803111
41 1 0.663844 0.157704 0.988323
19 1 0.744437 -0.00538129 0.0911157
162 1 0.741366 0.069336 0.174613
145 1 0.0110726 0.995434 0.174945
4 1 0.0102488 0.098463 0.0628172
23 1 0.936868 1.00634 0.0810383
169 1 0.0164003 0.174142 0.168031
51 1 0.0677781 0.34377 0.0849195
32 1 0.154479 0.261186 0.080303
170 1 0.0897285 0.257071 0.161633
31 1 0.246807 0.181835 0.0959947
33 1 0.322973 0.166082 -0.0156076
30 1 0.242807 0.257545 -0.0074169
36 1 0.333405 0.248444 0.0778301
178 1 0.398842 0.246674 0.157337
40 1 0.505546 0.244321 0.0869194
34 1 0.420949 0.236555 1.01694
39 1 0.589503 0.151594 0.0802513
63 1 0.582372 0.33753 0.0698227
185 1 0.673068 0.162026 0.165882
43 1 0.748427 0.152184 0.0847874
44 1 0.659751 0.257326 0.0822886
67 1 0.751092 0.345326 0.0810231
186 1 0.743296 0.247844 0.159194
47 1 0.927635 0.171067 0.0793636
28 1 -0.00268346 0.259669 0.0769154
48 1 0.832259 0.237026 0.0695189
213 1 0.841946 0.321886 0.169562
189 1 0.828478 0.16919 0.159769
190 1 0.92734 0.247881 0.165963
50 1 0.0840732 0.42257 0.986496
56 1 0.159311 0.410145 0.0685495
77 1 0.1716 0.500933 0.99528
75 1 0.0779762 0.493114 0.0820135
194 1 0.070681 0.417491 0.15732
55 1 0.246195 0.324039 0.0735134
57 1 0.339459 0.329776 0.999401
53 1 0.161267 0.334957 0.991381
54 1 0.246323 0.423052 0.983124
59 1 0.40985 0.336611 0.0886724
60 1 0.330459 0.412868 0.083138
64 1 0.505297 0.420599 0.0886977
85 1 0.497904 0.500439 0.00678397
201 1 0.34426 0.335924 0.17591
58 1 0.423416 0.428898 0.993925
68 1 0.661254 0.421487 0.0780432
89 1 0.649033 0.509275 0.994365
209 1 0.669239 0.332689 0.157916
72 1 0.84416 0.412184 0.0899833
91 1 0.738052 0.516104 0.0754428
66 1 0.748351 0.429863 1.01126
71 1 0.910191 0.323511 0.072364
52 1 0.986409 0.407268 0.0872038
217 1 1.00735 0.493065 0.169955
95 1 0.91386 0.501664 0.0764295
193 1 0.984159 0.341756 0.177739
74 1 0.0913973 0.576987 0.000715402
218 1 0.0800899 0.570876 0.158754
99 1 0.0896706 0.673094 0.079764
101 1 0.170384 0.657015 0.000981572
241 1 0.0207025 0.67613 0.177218
80 1 0.178589 0.582251 0.0765143
79 1 0.248534 0.477728 0.0783113
78 1 0.253533 0.58014 0.998004
84 1 0.336567 0.59611 0.0903164
83 1 0.417864 0.507506 0.0898928
105 1 0.338155 0.664891 -0.00158656
88 1 0.491506 0.594447 0.0937313
82 1 0.40625 0.589743 0.00140313
107 1 0.413514 0.676899 0.0942913
87 1 0.574692 0.508714 0.0809685
230 1 0.571494 0.588536 0.16846
92 1 0.674373 0.592472 0.0859289
253 1 0.497246 0.672357 0.177804
86 1 0.572149 0.587652 0.996145
109 1 0.492436 0.663041 0.993851
96 1 0.829301 0.591981 0.0754653
73 1 1.00571 0.499769 1.00356
76 1 -0.00609643 0.583565 0.083861
119 1 0.91619 0.664569 0.0810107
238 1 0.923049 0.574851 0.171848
94 1 0.930248 0.582521 -0.00575197
104 1 0.16904 0.761307 0.0863636
100 1 0.00186452 0.748747 0.0798923
242 1 0.0828897 0.76559 0.156329
269 1 0.163391 0.836667 0.177255
125 1 0.167272 0.836057 0.00404526
103 1 0.258319 0.681972 0.0918667
273 1 0.333305 0.849092 0.168392
102 1 0.243095 0.754738 -0.0124269
108 1 0.332983 0.77333 0.0800655
131 1 0.412643 0.841012 0.0918527
129 1 0.343297 0.837689 1.00024
112 1 0.491867 0.753715 0.0932161
111 1 0.566813 0.669633 0.0887357
135 1 0.584578 0.826079 0.0935396
110 1 0.572252 0.754845 0.00984477
115 1 0.757238 0.668281 0.0876555
116 1 0.67695 0.757 0.07674
257 1 0.666305 0.683087 0.167503
258 1 0.749004 0.752022 0.160661
113 1 0.666656 0.670397 -0.00567444
120 1 0.834915 0.750393 0.0850294
262 1 0.917604 0.761677 0.154103
285 1 0.835595 0.836505 0.168833
141 1 0.837397 0.835241 0.999086
149 1 0.169008 0.0159939 0.172742
123 1 0.0922217 0.840065 0.0843647
128 1 0.168751 0.918646 0.0875355
124 1 0.000415422 0.910298 0.076398
122 1 0.0878419 0.905199 0.999601
7 1 0.253057 0.996857 0.0819434
127 1 0.246213 0.844138 0.094212
132 1 0.328306 0.917917 0.0855886
153 1 0.33592 0.0133856 0.158545
126 1 0.252301 0.908886 0.00424663
11 1 0.417581 0.0187669 0.0841274
274 1 0.403934 0.923092 0.165835
136 1 0.495676 0.923195 0.0955412
13 1 0.505381 -0.000465483 1.00404
15 1 0.593593 -0.00193367 0.0802326
140 1 0.670345 0.918977 0.0873043
278 1 0.575089 0.915341 0.16137
134 1 0.585484 0.913322 0.00740117
137 1 0.668522 0.840222 0.0136081
139 1 0.745262 0.838589 0.0915675
138 1 0.754499 0.899367 0.000968309
144 1 0.833959 0.920989 0.0876907
143 1 0.913206 0.855228 0.0828665
265 1 1.00157 0.837466 0.170965
286 1 0.923776 0.935839 0.178585
142 1 0.927935 0.923303 0.99177
146 1 0.0785635 0.0765644 0.155882
173 1 0.150858 0.166738 0.148793
171 1 0.0846495 0.178414 0.249268
147 1 0.0864365 0.00604349 0.25629
152 1 0.164501 0.0833607 0.25627
150 1 0.248603 0.0865146 0.171272
317 1 0.165452 0.172004 0.336141
181 1 0.502953 0.161074 0.164767
156 1 0.338777 0.0789677 0.250553
160 1 0.496963 0.0912121 0.252096
298 1 0.406105 0.0851496 0.327152
177 1 0.334047 0.159782 0.158409
183 1 0.58745 0.148257 0.252543
302 1 0.585324 0.0807017 0.334583
165 1 0.836276 -0.00716162 0.170288
164 1 0.670063 0.0708047 0.252124
163 1 0.751741 0.98857 0.275178
148 1 0.000976336 0.0894726 0.25747
168 1 0.830605 0.0877494 0.242833
166 1 0.918736 0.0859331 0.163633
176 1 0.168491 0.248007 0.246984
314 1 0.0768184 0.249493 0.338859
175 1 0.254406 0.163403 0.254108
174 1 0.267656 0.262657 0.1703
197 1 0.165906 0.35476 0.166254
318 1 0.249934 0.251603 0.323587
341 1 0.162283 0.335381 0.341069
179 1 0.412089 0.164403 0.247109
180 1 0.33022 0.246806 0.242063
184 1 0.499773 0.251407 0.243179
182 1 0.594519 0.227095 0.170563
207 1 0.579226 0.337316 0.23947
187 1 0.749178 0.168468 0.233773
188 1 0.668791 0.243797 0.252336
191 1 0.927569 0.178104 0.25116
192 1 0.834029 0.248966 0.258677
172 1 1.00862 0.245261 0.253609
334 1 0.91482 0.240156 0.334746
195 1 0.0687418 0.332155 0.229785
200 1 0.158718 0.416948 0.255769
219 1 0.0739999 0.499415 0.253717
199 1 0.259632 0.33195 0.25053
198 1 0.259779 0.405823 0.166672
225 1 0.328976 0.490582 0.167899
204 1 0.337889 0.410302 0.262676
223 1 0.258331 0.490879 0.248073
203 1 0.429927 0.348254 0.247519
202 1 0.41878 0.424529 0.166625
227 1 0.412182 0.507018 0.263321
205 1 0.494399 0.333018 0.150952
206 1 0.582018 0.409677 0.158492
208 1 0.50317 0.439268 0.262292
350 1 0.583563 0.43874 0.331114
373 1 0.479439 0.508594 0.359664
212 1 0.658561 0.418739 0.24483
231 1 0.57074 0.509324 0.235627
210 1 0.751653 0.415081 0.168663
353 1 0.655115 0.347838 0.321768
211 1 0.749193 0.325329 0.245751
235 1 0.745933 0.508743 0.23647
354 1 0.756272 0.421672 0.325229
196 1 1.00794 0.423169 0.258896
216 1 0.831946 0.437924 0.249396
214 1 0.918719 0.428048 0.160356
215 1 0.916457 0.327848 0.259156
239 1 0.925684 0.497738 0.259829
337 1 1.00366 0.333698 0.330728
221 1 0.16798 0.485963 0.160221
224 1 0.170571 0.564725 0.243451
362 1 0.0928931 0.577761 0.334958
243 1 0.0998005 0.666665 0.251417
361 1 0.00050164 0.507476 0.337946
222 1 0.252829 0.574686 0.159613
245 1 0.164374 0.658649 0.157031
366 1 0.251538 0.578514 0.331257
247 1 0.237445 0.656022 0.233695
389 1 0.180914 0.662571 0.327317
229 1 0.489921 0.496888 0.165393
249 1 0.340851 0.673591 0.169006
226 1 0.423211 0.587072 0.178895
228 1 0.319793 0.58065 0.248659
251 1 0.423802 0.677547 0.251163
232 1 0.494235 0.597254 0.258603
236 1 0.663555 0.585278 0.242154
377 1 0.659358 0.510291 0.325965
255 1 0.594578 0.65567 0.257878
233 1 0.65608 0.493454 0.166658
234 1 0.747173 0.578073 0.154014
237 1 0.827754 0.49601 0.15639
378 1 0.741863 0.59371 0.31525
381 1 0.84649 0.52401 0.329403
261 1 0.82994 0.66578 0.165408
220 1 0.0069508 0.585144 0.249238
240 1 0.831345 0.582206 0.235707
382 1 0.926313 0.592136 0.312801
263 1 0.913418 0.670814 0.240665
244 1 0.997038 0.754994 0.260657
248 1 0.168938 0.745124 0.245496
267 1 0.0718207 0.830517 0.254603
413 1 0.168825 0.819707 0.330168
246 1 0.260626 0.758948 0.176844
252 1 0.333093 0.749718 0.254035
393 1 0.322002 0.663431 0.324194
250 1 0.412309 0.756806 0.172211
256 1 0.500211 0.754575 0.248891
275 1 0.409313 0.838977 0.241967
254 1 0.575049 0.748423 0.169704
279 1 0.583084 0.846125 0.26852
281 1 0.651951 0.835537 0.169146
260 1 0.6718 0.752907 0.257393
259 1 0.751697 0.670513 0.234984
264 1 0.828925 0.755197 0.253181
283 1 0.736055 0.842101 0.25427
287 1 0.912834 0.827059 0.255077
385 1 0.0153267 0.66806 0.324551
409 1 0.998121 0.827045 0.33804
266 1 0.0871593 0.910241 0.172717
268 1 0.991724 0.917365 0.270707
272 1 0.169767 0.925268 0.248685
410 1 0.0903939 0.905924 0.336563
151 1 0.250629 0.0114213 0.254843
271 1 0.255112 0.843155 0.253091
270 1 0.244361 0.924336 0.164595
276 1 0.317118 0.932297 0.252125
297 1 0.327741 -0.00316885 0.339196
155 1 0.412903 -0.00920812 0.254899
280 1 0.494757 0.920782 0.247319
157 1 0.502444 0.0106419 0.171291
159 1 0.57521 1.00395 0.254898
277 1 0.497227 0.840976 0.166814
422 1 0.568438 0.921432 0.33942
282 1 0.746217 0.926637 0.178647
161 1 0.65417 0.987864 0.177342
284 1 0.662764 0.923349 0.266926
167 1 0.915934 0.0047839 0.262237
288 1 0.831585 0.915658 0.25646
290 1 0.0844944 0.0941531 0.343667
292 1 0.995217 0.0891329 0.434284
296 1 0.160026 0.0949773 0.425819
294 1 0.246309 0.0804921 0.338979
438 1 0.249457 0.081779 0.506526
295 1 0.247299 0.00873243 0.420141
441 1 0.331328 0.00687134 0.509124
321 1 0.337443 0.172196 0.324643
300 1 0.332283 0.0786062 0.418484
304 1 0.4902 0.0904688 0.406736
442 1 0.423818 0.0820765 0.495542
323 1 0.4178 0.186299 0.402683
469 1 0.489905 0.163392 0.48309
327 1 0.592805 0.173492 0.409194
306 1 0.757487 0.0900066 0.327318
329 1 0.671799 0.157649 0.332437
308 1 0.656763 0.0813858 0.417922
331 1 0.739448 0.161118 0.412216
450 1 0.750457 0.0787072 0.507778
312 1 0.836499 0.0834953 0.441418
313 1 0.994601 0.161988 0.340257
310 1 0.914975 0.0892263 0.347556
454 1 0.914625 0.0782973 0.510058
311 1 0.918469 -0.000431829 0.419418
315 1 0.0746996 0.179169 0.418815
320 1 0.178601 0.251458 0.416112
339 1 0.0775249 0.326255 0.426813
485 1 0.166189 0.323252 0.499086
458 1 0.0930331 0.239518 0.505307
461 1 0.171971 0.16896 0.504618
319 1 0.262168 0.157383 0.414343
462 1 0.251202 0.241331 0.493083
325 1 0.498748 0.162938 0.329587
322 1 0.418016 0.260458 0.316633
324 1 0.331625 0.257929 0.419853
465 1 0.338372 0.154573 0.502283
328 1 0.501453 0.25012 0.409048
466 1 0.415303 0.239929 0.491444
326 1 0.580132 0.2449 0.319129
493 1 0.505665 0.321825 0.488882
333 1 0.839251 0.168395 0.326486
330 1 0.751136 0.249971 0.334269
332 1 0.662876 0.253571 0.40354
335 1 0.903765 0.16878 0.419054
336 1 0.837498 0.251853 0.404058
316 1 0.994761 0.252377 0.417631
457 1 0.976979 0.177967 0.497005
477 1 0.829979 0.163218 0.509199
338 1 0.0812533 0.413976 0.34048
365 1 0.182758 0.498056 0.334853
340 1 -0.016215 0.422322 0.410084
342 1 0.255825 0.412106 0.330519
489 1 0.355179 0.33096 0.496729
343 1 0.258537 0.34251 0.415009
344 1 0.181575 0.412041 0.424522
367 1 0.258574 0.501772 0.421759
349 1 0.504419 0.323478 0.329431
346 1 0.420347 0.417591 0.344138
345 1 0.333048 0.330346 0.334512
347 1 0.421383 0.325536 0.414219
348 1 0.345423 0.404082 0.417722
490 1 0.425612 0.410331 0.49198
352 1 0.505882 0.407489 0.409118
351 1 0.585576 0.337551 0.410695
355 1 0.746207 0.343083 0.410177
357 1 0.827798 0.332227 0.32423
356 1 0.656879 0.417318 0.414201
498 1 0.746803 0.418994 0.481715
358 1 0.921355 0.413861 0.325612
360 1 0.839588 0.426572 0.410146
359 1 0.903243 0.34776 0.407864
363 1 0.074865 0.501399 0.419448
364 1 1.00824 0.595559 0.412781
368 1 0.174509 0.5899 0.413805
372 1 0.339862 0.590409 0.413119
509 1 0.16608 0.497534 0.481946
533 1 0.179867 0.663894 0.496291
510 1 0.243963 0.578617 0.504644
369 1 0.327335 0.500754 0.335855
370 1 0.412608 0.593893 0.329016
371 1 0.405839 0.489036 0.428055
514 1 0.419214 0.579186 0.49822
374 1 0.573256 0.581489 0.333581
376 1 0.492804 0.597549 0.422652
375 1 0.578816 0.511041 0.419709
521 1 0.655921 0.49621 0.488123
518 1 0.571027 0.577669 0.506649
379 1 0.749669 0.500707 0.412961
380 1 0.664367 0.581561 0.413452
403 1 0.74597 0.657411 0.406868
405 1 0.829436 0.655942 0.330583
383 1 0.913379 0.511645 0.409632
384 1 0.818805 0.579238 0.413938
387 1 0.0848443 0.662535 0.411871
386 1 0.0840714 0.74971 0.334005
388 1 0.992697 0.748092 0.416457
392 1 0.177714 0.745343 0.414893
391 1 0.259414 0.665251 0.418382
390 1 0.251652 0.748772 0.324994
415 1 0.245222 0.829468 0.426818
396 1 0.315313 0.76191 0.414403
534 1 0.254831 0.754436 0.509245
394 1 0.42537 0.754093 0.321397
395 1 0.405554 0.676682 0.412749
419 1 0.41487 0.8424 0.405634
400 1 0.508316 0.757155 0.420362
541 1 0.491504 0.67124 0.50843
537 1 0.343758 0.674514 0.506312
399 1 0.587912 0.673544 0.409952
397 1 0.506853 0.671852 0.32715
398 1 0.585776 0.759171 0.333782
404 1 0.661443 0.746868 0.407885
423 1 0.580485 0.849953 0.423231
565 1 0.493477 0.830294 0.503403
402 1 0.75757 0.743722 0.335787
401 1 0.660201 0.682324 0.331105
427 1 0.737484 0.825671 0.41412
546 1 0.722174 0.735845 0.500329
408 1 0.819474 0.741668 0.428779
429 1 0.831599 0.81814 0.348326
406 1 0.90943 0.739071 0.342239
407 1 0.898324 0.669813 0.415348
529 1 0.990817 0.669439 0.509044
573 1 0.829879 0.82367 0.505059
411 1 0.0960831 0.83007 0.423383
289 1 0.0146996 0.0138839 0.344001
291 1 0.0867447 0.00497962 0.423601
416 1 0.166396 0.915277 0.429169
293 1 0.164929 0.00868346 0.345689
414 1 0.243155 0.925312 0.344454
417 1 0.329476 0.833328 0.33191
420 1 0.324641 0.91736 0.412356
299 1 0.413768 0.993148 0.419832
418 1 0.42132 0.910849 0.327479
301 1 0.501563 0.00558036 0.332923
561 1 0.343454 0.835251 0.497816
445 1 0.503094 1.00971 0.493202
562 1 0.420106 0.931495 0.513325
303 1 0.597672 -0.00683944 0.423484
424 1 0.49903 0.918946 0.418531
421 1 0.500004 0.828588 0.335483
426 1 0.76409 0.913217 0.355246
449 1 0.672358 0.994313 0.509178
425 1 0.66349 0.850992 0.344764
305 1 0.661562 -0.000827025 0.340075
307 1 0.747249 0.00281752 0.411712
428 1 0.677086 0.922457 0.424289
432 1 0.841548 0.927902 0.445423
569 1 0.658492 0.820867 0.489065
570 1 0.741671 0.898771 0.500726
553 1 0.00263355 0.827764 0.491292
431 1 0.913325 0.824814 0.434867
412 1 -0.000655064 0.908178 0.409967
309 1 0.838899 0.00527742 0.347867
430 1 0.90469 0.908729 0.343889
434 1 0.084014 0.107019 0.494158
437 1 0.173868 0.00646696 0.496087
433 1 1.01349 0.00331658 0.500103
436 1 1.00424 0.0874749 0.586599
581 1 0.167413 1.00013 0.663757
440 1 0.173534 0.0809576 0.585235
444 1 0.334754 0.0880183 0.594986
582 1 0.247638 0.0840235 0.669163
448 1 0.507406 0.0870458 0.583366
467 1 0.418565 0.156099 0.587868
443 1 0.422932 0.0153575 0.586138
586 1 0.420193 0.0869093 0.68312
446 1 0.584439 0.0810709 0.505069
452 1 0.669397 0.0850896 0.580671
471 1 0.579863 0.166786 0.593402
590 1 0.586763 0.0914756 0.665669
473 1 0.671693 0.169787 0.49163
475 1 0.743958 0.159041 0.594623
451 1 0.75128 -0.0130991 0.588599
456 1 0.838172 0.0832353 0.588837
621 1 0.834485 0.167219 0.669142
455 1 0.924693 1.01449 0.585767
459 1 0.0939413 0.156817 0.597806
460 1 -0.00177914 0.243158 0.592903
481 1 -0.00495906 0.322364 0.502223
463 1 0.250763 0.161583 0.577779
464 1 0.161823 0.245456 0.585644
605 1 0.172996 0.16599 0.665094
606 1 0.258355 0.263429 0.65702
633 1 0.345086 0.34107 0.672626
487 1 0.253986 0.34107 0.561874
468 1 0.344193 0.250642 0.577359
472 1 0.49032 0.238902 0.57945
470 1 0.573255 0.241487 0.509379
614 1 0.587702 0.253015 0.655225
476 1 0.669063 0.236199 0.572928
637 1 0.490048 0.319125 0.670516
617 1 0.662266 0.159756 0.679653
474 1 0.753032 0.244499 0.478169
478 1 0.900731 0.259639 0.502517
479 1 0.912849 0.168974 0.59493
480 1 0.835832 0.245322 0.588925
622 1 0.918157 0.240514 0.666724
503 1 0.918926 0.336602 0.587188
482 1 0.0814275 0.417326 0.491404
483 1 0.0800743 0.320201 0.580405
507 1 0.0885549 0.487211 0.581278
484 1 0.00134979 0.404868 0.585551
649 1 0.00426848 0.488121 0.659764
626 1 0.081378 0.409643 0.679055
629 1 0.174124 0.326899 0.67331
488 1 0.160078 0.412571 0.579116
486 1 0.260193 0.418338 0.488456
630 1 0.259146 0.408425 0.666409
653 1 0.163953 0.497172 0.665128
513 1 0.335635 0.501931 0.505199
491 1 0.422089 0.329277 0.595373
492 1 0.350204 0.418496 0.569427
494 1 0.579071 0.401583 0.502205
496 1 0.50404 0.407952 0.576319
495 1 0.586944 0.326847 0.57786
497 1 0.664713 0.328369 0.496481
500 1 0.672284 0.412211 0.579543
641 1 0.669301 0.322106 0.660396
499 1 0.747878 0.31793 0.566136
504 1 0.838277 0.419591 0.566028
642 1 0.762994 0.412649 0.652098
501 1 0.830283 0.33965 0.486801
502 1 0.919701 0.427886 0.496738
646 1 0.902528 0.43403 0.667293
505 1 1.00574 0.497458 0.505607
506 1 0.0800834 0.586143 0.496513
650 1 0.0775538 0.586165 0.660132
508 1 0.996724 0.581238 0.588024
531 1 0.0869995 0.680555 0.573156
512 1 0.158191 0.572267 0.589992
511 1 0.258617 0.479957 0.579987
516 1 0.348538 0.577578 0.581473
677 1 0.172696 0.665348 0.669922
654 1 0.254664 0.588755 0.661141
515 1 0.428875 0.491715 0.579318
539 1 0.422825 0.674055 0.577229
517 1 0.500934 0.492524 0.499258
519 1 0.585072 0.498088 0.582638
520 1 0.504874 0.583152 0.593761
662 1 0.567885 0.573966 0.67415
522 1 0.747402 0.591448 0.503723
524 1 0.663651 0.577486 0.571944
523 1 0.741744 0.504145 0.570699
525 1 0.83182 0.501281 0.496479
528 1 0.840549 0.596647 0.591417
666 1 0.735951 0.566263 0.659754
669 1 0.830146 0.51221 0.667713
527 1 0.924956 0.502937 0.584369
526 1 0.920823 0.585313 0.497963
670 1 0.9317 0.576909 0.666242
673 1 0.00340966 0.672549 0.677751
530 1 0.0773478 0.740847 0.477993
555 1 0.0800235 0.822343 0.573568
532 1 0.00663335 0.74238 0.594048
697 1 0.00778883 0.8251 0.657119
557 1 0.17634 0.831454 0.516933
535 1 0.259538 0.674885 0.57757
536 1 0.165849 0.740653 0.566739
678 1 0.239131 0.745002 0.667911
538 1 0.416241 0.756583 0.490921
540 1 0.344522 0.754286 0.589322
544 1 0.498365 0.750411 0.595066
545 1 0.648544 0.656093 0.499446
543 1 0.573971 0.653034 0.590067
542 1 0.575804 0.744015 0.511007
548 1 0.673359 0.747545 0.594277
693 1 0.835054 0.649394 0.688412
547 1 0.748203 0.663806 0.592742
690 1 0.752309 0.738861 0.673831
549 1 0.827463 0.668242 0.503575
550 1 0.900543 0.734314 0.501247
551 1 0.917787 0.673334 0.598843
552 1 0.826103 0.742937 0.601368
701 1 0.166439 0.844406 0.644059
435 1 0.0869136 0.0112957 0.574614
554 1 0.077595 0.911908 0.495365
559 1 0.263104 0.839269 0.585666
560 1 0.164423 0.928204 0.572228
439 1 0.252614 0.0017596 0.592486
558 1 0.247612 0.917808 0.512481
564 1 0.336691 0.919879 0.588405
702 1 0.252614 0.919467 0.659899
563 1 0.41295 0.83224 0.596534
585 1 0.338923 1.01098 0.671916
706 1 0.422658 0.918255 0.683242
568 1 0.495288 0.905984 0.585339
567 1 0.574629 0.828372 0.594403
589 1 0.509552 1.00023 0.672128
447 1 0.583913 -0.00522129 0.584942
566 1 0.573329 0.9126 0.508051
571 1 0.747822 0.823773 0.576976
713 1 0.664686 0.827227 0.677272
572 1 0.663446 0.902551 0.584963
714 1 0.754246 0.908513 0.651174
574 1 0.922144 0.90387 0.512766
575 1 0.914464 0.820884 0.581576
453 1 0.830313 -0.00270698 0.51906
576 1 0.833569 0.897606 0.582736
556 1 0.00316896 0.918249 0.58806
578 1 0.0743806 0.0734412 0.673127
603 1 0.078472 0.164683 0.750336
580 1 0.987484 0.0789136 0.751958
722 1 0.0747682 0.0850926 0.819466
584 1 0.169966 0.0865452 0.759385
588 1 0.338822 0.0805932 0.751548
609 1 0.319181 0.164702 0.661664
725 1 0.168449 0.993834 0.833536
592 1 0.504519 0.0800669 0.756586
611 1 0.411553 0.161299 0.759984
613 1 0.492831 0.163694 0.680991
753 1 0.320004 0.158608 0.847611
730 1 0.413188 0.0853063 0.844579
734 1 0.577217 0.0709004 0.832408
596 1 0.657524 0.0718251 0.760623
737 1 0.666448 0.977278 0.83622
761 1 0.657824 0.159105 0.847573
597 1 0.84601 0.99197 0.663796
594 1 0.743462 0.0826814 0.671714
765 1 0.831602 0.155045 0.830857
738 1 0.757499 0.0807161 0.829309
598 1 0.916783 0.0802934 0.665293
601 1 -0.00259248 0.163432 0.673139
600 1 0.831367 0.0797668 0.737238
602 1 0.0847099 0.237673 0.66946
625 1 0.0106511 0.324159 0.672339
769 1 0.0115558 0.321583 0.824459
746 1 0.0924533 0.240753 0.841926
607 1 0.252175 0.170197 0.762459
608 1 0.168836 0.246938 0.764195
612 1 0.334246 0.242172 0.748489
773 1 0.164372 0.334622 0.845764
749 1 0.172607 0.162651 0.832549
610 1 0.416859 0.240573 0.673448
754 1 0.405444 0.249584 0.847294
616 1 0.496904 0.239369 0.756543
615 1 0.590297 0.161517 0.754088
620 1 0.661864 0.257122 0.753426
639 1 0.566007 0.325678 0.74202
781 1 0.503127 0.329461 0.827771
758 1 0.588776 0.251525 0.842693
618 1 0.74753 0.244298 0.671505
619 1 0.741373 0.173987 0.75123
624 1 0.831252 0.249589 0.7583
789 1 0.822912 0.33559 0.834153
643 1 0.737642 0.33605 0.739248
623 1 0.911639 0.162271 0.74319
604 1 -0.000291025 0.242206 0.750464
647 1 0.918002 0.325051 0.752154
745 1 1.00111 0.16851 0.83057
627 1 0.0883735 0.311288 0.745359
651 1 0.0876596 0.497138 0.744889
770 1 0.0898157 0.415538 0.811658
793 1 1.00262 0.507672 0.832723
631 1 0.263002 0.327127 0.756026
632 1 0.174933 0.414423 0.755638
655 1 0.256894 0.503891 0.729653
797 1 0.180133 0.492915 0.828226
634 1 0.426747 0.420179 0.668106
635 1 0.41209 0.324593 0.758761
636 1 0.336966 0.423343 0.753248
640 1 0.496062 0.417196 0.743252
659 1 0.41551 0.503964 0.742899
801 1 0.330117 0.509873 0.817873
778 1 0.421737 0.411053 0.834742
638 1 0.586234 0.405608 0.661769
805 1 0.490487 0.496803 0.820209
644 1 0.660452 0.404166 0.757129
785 1 0.657321 0.346344 0.848005
786 1 0.73958 0.413096 0.827083
645 1 0.832288 0.327436 0.684673
813 1 0.831615 0.491634 0.832688
628 1 0.989937 0.412805 0.750738
648 1 0.826759 0.412936 0.753349
652 1 0.00697725 0.571639 0.755725
675 1 0.0909108 0.679646 0.748036
794 1 0.0886566 0.577215 0.828724
817 1 1.00946 0.67404 0.827241
656 1 0.172336 0.572182 0.75131
660 1 0.338635 0.589793 0.72646
658 1 0.429242 0.57467 0.6632
657 1 0.33933 0.503088 0.656091
683 1 0.416197 0.669339 0.754248
663 1 0.588863 0.483562 0.748505
661 1 0.514264 0.487641 0.658276
664 1 0.492634 0.589992 0.748084
665 1 0.662497 0.484037 0.656734
668 1 0.650096 0.571421 0.740542
667 1 0.738452 0.489706 0.736078
810 1 0.745706 0.60119 0.845477
671 1 0.914589 0.499159 0.756247
672 1 0.821951 0.572428 0.763064
695 1 0.926318 0.658229 0.760022
674 1 0.0996893 0.755272 0.66097
676 1 1.00488 0.754515 0.74843
818 1 0.0749227 0.752718 0.830209
679 1 0.242395 0.669799 0.749805
680 1 0.17182 0.759519 0.75037
845 1 0.191082 0.826255 0.836316
681 1 0.331416 0.672237 0.661469
684 1 0.323043 0.746879 0.744058
682 1 0.416703 0.74453 0.676907
688 1 0.504198 0.74176 0.750834
686 1 0.578714 0.749502 0.671682
685 1 0.499668 0.669154 0.664856
687 1 0.590694 0.672665 0.750549
830 1 0.575264 0.755915 0.832971
692 1 0.667551 0.747906 0.743644
711 1 0.583876 0.830067 0.749073
689 1 0.664505 0.647855 0.657264
691 1 0.736742 0.657941 0.74862
696 1 0.85131 0.74105 0.755008
694 1 0.926566 0.746243 0.673773
717 1 0.837965 0.824035 0.668323
837 1 0.839659 0.668643 0.829751
838 1 0.922942 0.758135 0.824332
698 1 0.0928999 0.919322 0.67473
699 1 0.0812572 0.831292 0.74247
579 1 0.0935082 0.998883 0.757235
700 1 -0.0020238 0.916087 0.743795
583 1 0.248993 -0.00791197 0.744205
704 1 0.161981 0.907689 0.748734
703 1 0.25689 0.846099 0.752066
708 1 0.329372 0.930373 0.76158
846 1 0.255354 0.920851 0.834002
705 1 0.331744 0.831689 0.677801
709 1 0.50241 0.838859 0.672426
587 1 0.414111 1.00204 0.766219
707 1 0.416816 0.828858 0.750429
733 1 0.489536 0.997037 0.837195
712 1 0.49262 0.916829 0.757843
710 1 0.590454 0.925167 0.662998
591 1 0.580039 0.98526 0.766729
593 1 0.674761 0.988455 0.667261
716 1 0.664506 0.906516 0.748413
715 1 0.764699 0.835664 0.747627
595 1 0.765559 0.991733 0.742006
720 1 0.840764 0.915513 0.750132
577 1 0.00192162 0.999276 0.663568
718 1 0.923126 0.921727 0.659927
719 1 0.929445 0.83877 0.746507
599 1 0.908685 -0.00417336 0.750174
862 1 0.919263 0.911068 0.831905
724 1 -0.00373318 0.0876234 0.916615
1 1 0.0232764 0.00656991 0.992887
29 1 0.170579 0.175075 0.0104622
726 1 0.245871 0.0832331 0.835548
728 1 0.166122 0.0785466 0.909208
751 1 0.239435 0.163717 0.919091
727 1 0.257696 -0.00048405 0.923839
732 1 0.338152 0.0763439 0.931202
757 1 0.494925 0.164326 0.838154
10 1 0.42609 0.0783775 0.992932
736 1 0.508084 0.0765676 0.910061
731 1 0.413945 -0.00661218 0.921068
14 1 0.596719 0.0796789 0.996787
37 1 0.503489 0.157835 1.00176
759 1 0.577197 0.160295 0.919386
18 1 0.760738 0.0681643 1.00339
741 1 0.837337 -0.000215115 0.831217
740 1 0.67157 0.0552005 0.908208
763 1 0.755858 0.153657 0.927587
739 1 0.762499 0.980312 0.923639
742 1 0.910325 0.0903271 0.837864
744 1 0.824378 0.0710383 0.918994
22 1 0.922392 0.075768 -0.00770646
743 1 0.926437 1.00808 0.90426
26 1 0.0813294 0.259857 0.997838
49 1 0.978535 0.331781 0.996394
25 1 0.0126242 0.178524 0.986227
747 1 0.091797 0.163331 0.916064
748 1 0.985874 0.254052 0.910678
771 1 0.0753298 0.329373 0.91179
752 1 0.168607 0.248937 0.912618
750 1 0.257495 0.256001 0.845898
756 1 0.343459 0.25302 0.926865
777 1 0.334969 0.33458 0.845568
755 1 0.420533 0.164676 0.920325
760 1 0.488587 0.254338 0.921703
61 1 0.495065 0.340452 0.011901
38 1 0.577815 0.238151 -0.00229796
764 1 0.658689 0.256475 0.926154
783 1 0.568121 0.332356 0.93997
762 1 0.732047 0.255446 0.833365
45 1 0.835769 0.151807 -0.00250502
42 1 0.738668 0.253129 -0.0138992
69 1 0.837579 0.335586 0.992957
65 1 0.671326 0.338117 -0.00165972
46 1 0.905671 0.244984 0.993313
766 1 0.913587 0.240671 0.832205
768 1 0.830962 0.245939 0.910838
767 1 0.919537 0.161098 0.923467
776 1 0.154272 0.423338 0.906632
772 1 0.986304 0.40882 0.898516
774 1 0.251818 0.419948 0.831004
775 1 0.25173 0.344633 0.918164
780 1 0.330784 0.41964 0.908689
799 1 0.253714 0.511867 0.90017
779 1 0.430215 0.335951 0.92103
784 1 0.50289 0.415376 0.910969
803 1 0.407822 0.507227 0.897054
782 1 0.57361 0.418503 0.833245
62 1 0.57852 0.423058 0.00324475
807 1 0.579259 0.495254 0.90966
788 1 0.66155 0.423703 0.924633
787 1 0.752483 0.348797 0.919506
93 1 0.832886 0.500909 0.984663
790 1 0.905635 0.419362 0.838598
791 1 0.904933 0.325349 0.905592
792 1 0.834618 0.423417 0.905686
70 1 0.911442 0.427267 -0.00625127
795 1 0.079982 0.506569 0.91446
819 1 0.0845634 0.667699 0.915882
821 1 0.168505 0.668541 0.826154
81 1 0.333669 0.498207 0.99253
800 1 0.166392 0.583705 0.920385
825 1 0.333144 0.658109 0.830775
798 1 0.245057 0.590902 0.818897
804 1 0.333196 0.579895 0.904396
829 1 0.493033 0.6726 0.83164
802 1 0.422771 0.580268 0.822955
827 1 0.409202 0.653551 0.905332
806 1 0.571167 0.582877 0.824331
808 1 0.484188 0.577484 0.922704
831 1 0.577855 0.670157 0.912474
90 1 0.755027 0.592492 0.995752
809 1 0.664968 0.498278 0.827576
811 1 0.748198 0.50687 0.912918
812 1 0.656795 0.58529 0.915428
814 1 0.928082 0.585953 0.837582
815 1 0.913173 0.506613 0.912197
796 1 0.00387731 0.583738 0.9154
816 1 0.835565 0.597362 0.916543
97 1 0.0106994 0.668527 0.997572
117 1 0.83641 0.674549 0.991962
98 1 0.0899339 0.757618 -0.00365711
824 1 0.165353 0.743878 0.91631
841 1 0.00819058 0.838964 0.832039
823 1 0.245539 0.655981 0.908953
822 1 0.2632 0.748075 0.83566
828 1 0.338763 0.748389 0.925478
847 1 0.252445 0.844364 0.919683
106 1 0.415287 0.748182 0.0168534
853 1 0.501812 0.832893 0.83133
133 1 0.496825 0.835728 0.00985306
826 1 0.406342 0.748352 0.827045
851 1 0.412433 0.827452 0.907992
832 1 0.493415 0.760112 0.923816
833 1 0.660147 0.686074 0.830941
855 1 0.574823 0.836402 0.932921
836 1 0.659271 0.753109 0.942343
834 1 0.753478 0.753892 0.823475
835 1 0.748047 0.671079 0.920486
114 1 0.765574 0.751655 0.992435
840 1 0.84488 0.759579 0.911679
118 1 0.91163 0.750399 -0.00235481
839 1 0.918795 0.670696 0.917142
820 1 0.01677 0.764605 0.920608
863 1 0.923898 0.835618 0.915509
843 1 0.0928 0.833988 0.922088
842 1 0.0923933 0.906334 0.833261
723 1 0.0915149 0.00630626 0.914148
721 1 0.0116403 0.991746 0.826795
5 1 0.164306 -0.00743465 0.00932524
9 1 0.321149 0.994693 1.00347
848 1 0.166966 0.916517 0.923782
852 1 0.34074 0.917407 0.925852
729 1 0.327474 1.02235 0.836012
850 1 0.40788 0.910786 0.831625
849 1 0.328782 0.83365 0.83861
130 1 0.431381 0.923297 0.0144681
17 1 0.676861 0.990016 1.00584
735 1 0.573911 0.968484 0.917677
856 1 0.488547 0.905338 0.917081
854 1 0.592069 0.896383 0.84209
857 1 0.668898 0.813493 0.842373
860 1 0.680928 0.920955 0.917564
861 1 0.841379 0.830298 0.838645
858 1 0.770976 0.911569 0.843862
859 1 0.753653 0.833546 0.910323
21 1 0.834273 0.98466 0.0122454
121 1 0.991963 0.833479 0.000788241
864 1 0.845896 0.913448 0.92446
844 1 0.00317915 0.921469 0.906812
