ITEM: TIMESTEP
1750
ITEM: NUMBER OF ATOMS
864
ITEM: BOX BOUNDS pp pp pp
0.0000000000000000e+00 3.1559999999999999e+01
0.0000000000000000e+00 3.1559999999999999e+01
0.0000000000000000e+00 3.1559999999999999e+01
ITEM: ATOMS id type xs ys zs
3 1 0.0917721 0.98983 0.099114
8 1 0.177545 0.0954816 0.0858805
146 1 0.0904797 0.0771169 0.162018
173 1 0.164924 0.165299 0.167066
7 1 0.268426 0.990712 0.0911707
149 1 0.172714 -0.0109845 0.171048
10 1 0.418912 0.102984 0.00564344
11 1 0.419303 0.0128401 0.0725037
12 1 0.325167 0.0906837 0.0791803
13 1 0.488841 0.0162884 1.00444
14 1 0.583813 0.0859901 0.988525
15 1 0.578649 0.985563 0.0639992
16 1 0.50083 0.0872964 0.0745001
37 1 0.499908 0.173669 0.990273
157 1 0.505173 0.993902 0.147971
158 1 0.582868 0.0934118 0.167505
19 1 0.75306 0.986161 0.0844386
20 1 0.667672 0.0869188 0.0785775
161 1 0.677468 0.00485514 0.166882
162 1 0.754927 0.0786301 0.150017
189 1 0.830366 0.175595 0.165099
4 1 0.0117994 0.0591875 0.075053
24 1 0.838238 0.0593576 0.0829134
45 1 0.832015 0.173394 1.00217
47 1 0.909393 0.15396 0.0946042
27 1 0.0793452 0.167546 0.084249
29 1 0.15414 0.168311 1.00233
51 1 0.063086 0.339284 0.0673536
53 1 0.166423 0.340173 -0.0062442
193 1 0.990963 0.340021 0.156507
31 1 0.249149 0.174014 0.0880457
32 1 0.161406 0.258544 0.0739791
36 1 0.327895 0.25487 0.0913207
177 1 0.335277 0.161971 0.166383
34 1 0.418974 0.250993 0.997172
35 1 0.429954 0.168138 0.0867665
59 1 0.426762 0.338424 0.0813228
205 1 0.480496 0.327824 0.167365
38 1 0.579833 0.264853 0.993242
39 1 0.592258 0.17693 0.0876825
40 1 0.504939 0.252395 0.0754444
41 1 0.665452 0.161189 -0.00394473
182 1 0.57925 0.252399 0.167773
42 1 0.742939 0.2399 0.00757335
43 1 0.742774 0.161223 0.0899019
44 1 0.664176 0.250442 0.0719509
48 1 0.829735 0.239704 0.0812741
67 1 0.752277 0.333624 0.0870996
28 1 1.00808 0.238572 0.0768097
71 1 0.916946 0.338296 0.0765838
52 1 0.997081 0.434569 0.0879664
73 1 0.989029 0.502512 1.00376
75 1 0.0851361 0.506464 0.0852448
194 1 0.0855204 0.402448 0.15638
54 1 0.246377 0.41865 0.988505
55 1 0.255866 0.347034 0.0732563
56 1 0.167773 0.417426 0.074995
79 1 0.25733 0.489048 0.071804
197 1 0.181678 0.340099 0.156999
198 1 0.259139 0.412687 0.175181
60 1 0.339617 0.413968 0.0834858
64 1 0.508946 0.417483 0.0930161
83 1 0.422929 0.489872 0.0807589
85 1 0.500427 0.491036 1.01826
63 1 0.578504 0.336201 0.08047
87 1 0.5948 0.497569 0.0861688
89 1 0.677906 0.491955 0.00636218
206 1 0.586539 0.420105 0.163686
233 1 0.66954 0.482448 0.167784
65 1 0.683367 0.329358 0.00255807
66 1 0.748432 0.418525 0.017365
68 1 0.662982 0.402395 0.08611
69 1 0.82866 0.313125 0.0029735
70 1 0.908121 0.428023 0.991607
72 1 0.837193 0.417322 0.0840322
99 1 0.0795725 0.666546 0.0699197
217 1 0.0052554 0.502387 0.164932
80 1 0.170503 0.571605 0.0672245
81 1 0.34749 0.494712 0.990541
82 1 0.426193 0.586948 0.997681
84 1 0.347644 0.575285 0.0781066
107 1 0.424225 0.671509 0.0570438
226 1 0.422556 0.587105 0.171185
229 1 0.49803 0.495774 0.168533
88 1 0.507924 0.586319 0.0860647
92 1 0.66637 0.577266 0.083221
111 1 0.593559 0.669584 0.0961508
253 1 0.494761 0.661155 0.1593
91 1 0.755705 0.509568 0.0871623
96 1 0.83304 0.593262 0.0724824
115 1 0.736811 0.658019 0.0835122
76 1 1.00363 0.569982 0.0727281
94 1 0.913941 0.586735 0.980855
95 1 0.914362 0.501651 0.0812351
119 1 0.92237 0.655973 0.0838963
261 1 0.828612 0.656006 0.155576
98 1 0.0729769 0.753472 0.997412
100 1 0.00760352 0.746796 0.0845543
242 1 0.0840867 0.740799 0.165551
101 1 0.171001 0.672615 1.00345
102 1 0.262869 0.732059 0.985517
103 1 0.255324 0.656129 0.0706621
104 1 0.179302 0.767922 0.0791009
245 1 0.172865 0.671 0.145013
246 1 0.242132 0.742937 0.17818
108 1 0.337633 0.736925 0.0684473
250 1 0.423458 0.730645 0.154364
112 1 0.514622 0.742882 0.0605382
113 1 0.660842 0.653987 0.978117
116 1 0.677293 0.755282 0.0759697
137 1 0.674347 0.832487 0.991822
114 1 0.742367 0.759917 -0.00689349
117 1 0.815224 0.672286 0.998644
120 1 0.840154 0.744072 0.083926
258 1 0.764019 0.738625 0.16608
97 1 0.995404 0.664607 -0.0189954
118 1 0.909113 0.729713 1.01095
262 1 0.928866 0.737168 0.15272
265 1 0.00597179 0.829022 0.147529
122 1 0.0903595 0.914411 0.997879
123 1 0.0920398 0.830183 0.0759155
266 1 0.0951974 0.914402 0.174412
127 1 0.284568 0.820827 0.052132
128 1 0.185967 0.906351 0.0979348
270 1 0.262114 0.923738 0.179411
129 1 0.356607 0.844222 0.97913
131 1 0.41807 0.813953 0.0728887
132 1 0.343824 0.915467 0.0660641
134 1 0.589075 0.906574 0.990861
135 1 0.586512 0.824451 0.0695181
136 1 0.500978 0.910855 0.0698227
140 1 0.657203 0.909648 0.0627258
139 1 0.761406 0.834935 0.0757082
144 1 0.826747 0.913428 0.0794038
282 1 0.750473 0.916969 0.166625
285 1 0.841777 0.830343 0.147587
23 1 0.929295 0.96731 0.0797168
124 1 0.0094079 0.902117 0.0776441
143 1 0.915854 0.827928 0.0723113
145 1 0.011513 -0.0251004 0.165031
165 1 0.831522 0.985492 0.161206
286 1 0.928301 0.90618 0.167639
148 1 0.0115825 0.0829556 0.248199
152 1 0.157399 0.0938824 0.237933
290 1 0.0718461 0.0920578 0.332535
313 1 1.00922 0.182595 0.330333
150 1 0.246847 0.0710473 0.164692
151 1 0.242321 1.0101 0.248118
153 1 0.360136 1.00431 0.155577
154 1 0.421853 0.0863066 0.150665
155 1 0.407693 0.00990564 0.254247
156 1 0.330848 0.0757045 0.253694
160 1 0.493479 0.0751452 0.243023
159 1 0.575512 1.00379 0.241542
329 1 0.673899 0.152701 0.332326
164 1 0.669797 0.0828966 0.241936
168 1 0.835313 0.074696 0.221938
187 1 0.749655 0.15595 0.242224
306 1 0.765403 0.0907049 0.325201
333 1 0.832639 0.178163 0.317054
166 1 0.929005 0.0628423 0.151102
191 1 0.925565 0.161057 0.227755
310 1 0.907663 0.0966846 0.320867
169 1 1.00875 0.155667 0.154112
170 1 0.0923624 0.269075 0.162378
171 1 0.0771435 0.185142 0.230271
172 1 0.999973 0.259492 0.241996
174 1 0.24373 0.245311 0.166363
175 1 0.23973 0.165108 0.238555
176 1 0.166901 0.243647 0.251828
180 1 0.323555 0.245051 0.24792
201 1 0.332105 0.327369 0.173655
178 1 0.415252 0.252113 0.187338
179 1 0.426179 0.165628 0.240406
203 1 0.419879 0.339674 0.260625
345 1 0.337414 0.317708 0.338045
181 1 0.503381 0.17092 0.155953
183 1 0.596735 0.172743 0.265155
184 1 0.493843 0.252159 0.265936
185 1 0.657412 0.185632 0.171497
188 1 0.648589 0.263803 0.263038
349 1 0.505365 0.325702 0.335849
186 1 0.742317 0.244001 0.167423
211 1 0.757457 0.324611 0.253707
190 1 0.919463 0.244527 0.158881
192 1 0.849234 0.251814 0.249677
213 1 0.854033 0.328804 0.15567
334 1 0.913996 0.262812 0.329893
195 1 0.0828441 0.335841 0.258118
196 1 0.014057 0.417542 0.258933
219 1 0.091901 0.499443 0.246468
338 1 0.0760987 0.419318 0.346072
341 1 0.166152 0.326262 0.323893
199 1 0.245458 0.328273 0.249324
200 1 0.165308 0.410353 0.24253
225 1 0.344011 0.499289 0.171788
202 1 0.404971 0.407186 0.179708
204 1 0.320745 0.414045 0.262021
208 1 0.497255 0.414274 0.263784
227 1 0.411188 0.493851 0.255461
373 1 0.503276 0.508671 0.340041
207 1 0.574488 0.339634 0.249069
231 1 0.571873 0.496643 0.256888
209 1 0.657412 0.336136 0.172063
210 1 0.746569 0.425799 0.161123
212 1 0.663123 0.423741 0.255981
235 1 0.75154 0.494883 0.253849
214 1 0.918371 0.422734 0.169626
215 1 0.924214 0.342692 0.244458
216 1 0.832355 0.404314 0.255009
358 1 0.902406 0.41427 0.323437
381 1 0.825422 0.48687 0.326071
218 1 0.0756867 0.585571 0.160333
220 1 0.00484712 0.583258 0.250371
362 1 0.093902 0.571359 0.318616
221 1 0.164578 0.497883 0.152271
222 1 0.243454 0.568926 0.149813
223 1 0.228408 0.498783 0.240722
224 1 0.164039 0.586602 0.228895
366 1 0.261563 0.580587 0.327987
369 1 0.329176 0.506543 0.328147
228 1 0.319851 0.580989 0.23535
249 1 0.334925 0.652934 0.148466
251 1 0.429488 0.664608 0.250981
370 1 0.412927 0.590165 0.3302
397 1 0.513039 0.662976 0.325853
230 1 0.579593 0.571926 0.163202
232 1 0.504029 0.581287 0.239372
255 1 0.585792 0.672376 0.241714
257 1 0.678969 0.670664 0.174806
374 1 0.591983 0.5858 0.325542
234 1 0.744585 0.576737 0.174378
236 1 0.664464 0.566946 0.241158
237 1 0.829037 0.496309 0.167333
259 1 0.760167 0.664959 0.261219
378 1 0.74229 0.580981 0.332969
401 1 0.671364 0.671575 0.33245
238 1 0.92332 0.574282 0.165829
239 1 0.938554 0.503509 0.258972
240 1 0.839273 0.584919 0.25096
263 1 0.916641 0.666218 0.242256
382 1 0.912961 0.581711 0.329687
241 1 0.998301 0.661351 0.167757
243 1 0.0705475 0.664217 0.248525
244 1 1.01111 0.769233 0.24951
248 1 0.157677 0.737108 0.25168
385 1 0.993126 0.672259 0.323884
386 1 0.0839804 0.737366 0.328085
389 1 0.173987 0.654236 0.323949
247 1 0.255613 0.656737 0.24084
252 1 0.34769 0.731788 0.226434
390 1 0.250682 0.750965 0.342568
256 1 0.505032 0.750156 0.23628
275 1 0.383992 0.838697 0.248708
394 1 0.412827 0.75123 0.319641
417 1 0.320276 0.82784 0.337022
254 1 0.590212 0.751323 0.157455
260 1 0.695125 0.746205 0.252512
279 1 0.578239 0.841113 0.246432
398 1 0.574296 0.752203 0.319024
421 1 0.479141 0.843726 0.322621
264 1 0.840807 0.745021 0.254332
402 1 0.759389 0.762252 0.338169
425 1 0.658868 0.835422 0.31821
405 1 0.843275 0.665565 0.342072
406 1 0.916796 0.750324 0.333336
409 1 1.01757 0.843181 0.328764
429 1 0.836493 0.836897 0.336433
147 1 0.0854496 0.00216648 0.257561
267 1 0.0982793 0.829871 0.246868
272 1 0.155215 0.915725 0.257675
289 1 -0.00986772 0.00368488 0.324351
410 1 0.0854657 0.923615 0.343581
413 1 0.174548 0.831005 0.332874
269 1 0.188312 0.838115 0.172942
271 1 0.270099 0.812591 0.253344
293 1 0.176245 0.0185361 0.325352
414 1 0.235471 0.928166 0.32551
273 1 0.336065 0.814551 0.152588
274 1 0.42028 0.893211 0.149279
276 1 0.329173 0.929939 0.264026
277 1 0.497705 0.825207 0.14725
418 1 0.413685 0.931067 0.330052
278 1 0.580255 0.907565 0.142748
280 1 0.492603 0.926024 0.230129
281 1 0.680242 0.833483 0.157756
284 1 0.640922 0.915352 0.247076
422 1 0.582071 0.920351 0.333006
163 1 0.742399 0.000979922 0.26047
283 1 0.75637 0.829917 0.244832
288 1 0.834972 0.920905 0.247162
426 1 0.743799 0.91777 0.335624
167 1 0.919228 1.00923 0.244189
268 1 0.0128806 0.906007 0.248764
287 1 0.91005 0.829348 0.250179
291 1 0.0811751 -0.00253273 0.416233
457 1 1.00603 0.165113 0.48587
294 1 0.246236 0.0917256 0.31744
296 1 0.166775 0.0997738 0.416542
317 1 0.166534 0.161541 0.3225
461 1 0.163464 0.178301 0.484834
297 1 0.324102 0.00110418 0.33941
298 1 0.419913 0.0860866 0.334134
300 1 0.33917 0.0925837 0.414175
301 1 0.493361 1.0102 0.329799
304 1 0.493076 0.0974513 0.416395
442 1 0.400275 0.0868743 0.505764
469 1 0.501318 0.167174 0.505039
302 1 0.58692 0.0874384 0.321292
303 1 0.576303 0.0064998 0.408517
308 1 0.663048 0.0804149 0.419692
449 1 0.654219 0.992844 0.49951
305 1 0.669692 0.00480476 0.345018
450 1 0.758462 0.0789129 0.488898
473 1 0.670277 0.169216 0.489268
292 1 1.00967 0.0759765 0.412743
312 1 0.835766 0.0738826 0.408504
314 1 0.093406 0.248487 0.32902
315 1 0.0798389 0.168897 0.413623
481 1 0.00122299 0.323522 0.502928
318 1 0.258944 0.244247 0.328453
319 1 0.248714 0.168997 0.420083
320 1 0.172836 0.254527 0.404911
324 1 0.329647 0.241384 0.414268
321 1 0.339759 0.165091 0.327993
322 1 0.419942 0.251861 0.334317
323 1 0.420499 0.171811 0.416445
328 1 0.505811 0.240425 0.417345
466 1 0.41768 0.24573 0.492841
325 1 0.49369 0.166602 0.327261
326 1 0.584717 0.246265 0.346718
327 1 0.581703 0.153573 0.403554
351 1 0.575229 0.346297 0.433203
330 1 0.741705 0.259448 0.336376
331 1 0.757677 0.167 0.398298
332 1 0.663657 0.251854 0.417918
474 1 0.752427 0.241277 0.500652
316 1 1.01019 0.249912 0.417115
335 1 0.924316 0.156949 0.40168
336 1 0.833387 0.251326 0.409655
357 1 0.827232 0.339255 0.337965
359 1 0.922547 0.340851 0.43262
337 1 0.00859403 0.335359 0.337913
339 1 0.0900839 0.343375 0.41689
363 1 0.0844985 0.51154 0.421279
342 1 0.252446 0.420381 0.341107
343 1 0.249488 0.328986 0.410346
344 1 0.17181 0.412462 0.427528
485 1 0.175476 0.320078 0.496754
489 1 0.332942 0.332683 0.479522
346 1 0.402822 0.40939 0.346107
347 1 0.418755 0.321999 0.416496
348 1 0.327917 0.428222 0.416748
352 1 0.501807 0.431597 0.422442
350 1 0.583807 0.419595 0.336736
356 1 0.666332 0.410305 0.432847
353 1 0.664245 0.329944 0.352115
354 1 0.74524 0.408906 0.343817
355 1 0.743786 0.325888 0.423643
377 1 0.670809 0.497736 0.33687
498 1 0.7587 0.408357 0.49596
340 1 0.996478 0.414228 0.424361
360 1 0.833657 0.411781 0.415535
383 1 0.907645 0.495143 0.412934
501 1 0.833242 0.319881 0.492807
361 1 0.992043 0.484022 0.341185
364 1 0.986906 0.576651 0.405172
365 1 0.169938 0.498688 0.327243
506 1 0.0851295 0.591683 0.499669
529 1 -0.00274587 0.666716 0.501893
367 1 0.247005 0.50628 0.419871
368 1 0.167927 0.584468 0.399394
372 1 0.346171 0.597621 0.419114
509 1 0.168263 0.50807 0.500203
510 1 0.242454 0.600138 0.493127
371 1 0.408816 0.506456 0.413991
376 1 0.498531 0.586995 0.42479
395 1 0.435796 0.670655 0.388424
514 1 0.41502 0.571347 0.500472
375 1 0.590225 0.510223 0.415737
380 1 0.66228 0.59314 0.405233
399 1 0.56845 0.676099 0.419755
518 1 0.588315 0.59434 0.491821
545 1 0.665289 0.68083 0.482552
379 1 0.745169 0.495257 0.423477
403 1 0.742618 0.66389 0.408889
521 1 0.665195 0.518834 0.502044
522 1 0.750716 0.589145 0.495651
384 1 0.827797 0.579101 0.40448
407 1 0.923468 0.676499 0.416299
526 1 0.916217 0.577788 0.489062
387 1 0.0753881 0.645588 0.410035
530 1 0.0963875 0.739481 0.48496
557 1 0.169819 0.830508 0.51459
391 1 0.246548 0.664513 0.415503
392 1 0.169099 0.737489 0.412997
396 1 0.342861 0.736178 0.400966
533 1 0.159897 0.65671 0.528086
534 1 0.241521 0.733758 0.494239
393 1 0.330466 0.666928 0.324348
400 1 0.497471 0.763636 0.404844
419 1 0.404035 0.827132 0.41105
404 1 0.657971 0.7614 0.407537
423 1 0.573715 0.837585 0.400824
542 1 0.575223 0.756368 0.49407
569 1 0.651972 0.842876 0.498336
408 1 0.843673 0.746601 0.421747
549 1 0.847798 0.658476 0.491833
388 1 0.00600628 0.735245 0.412576
431 1 0.915249 0.836117 0.413905
550 1 0.922285 0.752072 0.492508
411 1 0.0819502 0.825667 0.404996
412 1 0.996936 0.92487 0.405664
416 1 0.168123 0.906234 0.414857
433 1 -0.00442354 1.00448 0.491873
553 1 0.00277297 0.845424 0.49925
554 1 0.0845049 0.926767 0.494662
295 1 0.247936 0.0262857 0.40697
415 1 0.238628 0.820622 0.425142
437 1 0.16882 1.00431 0.495661
441 1 0.327743 1.00557 0.498414
299 1 0.402447 -0.00646428 0.414025
420 1 0.318764 0.91753 0.41566
424 1 0.491798 0.917606 0.405758
445 1 0.480472 0.0152908 0.494968
561 1 0.317439 0.824088 0.496934
562 1 0.405928 0.910419 0.486799
428 1 0.658992 0.920041 0.411726
565 1 0.503011 0.831468 0.49722
566 1 0.558429 0.937637 0.493327
307 1 0.757893 1.00618 0.407343
427 1 0.739745 0.834539 0.405246
453 1 0.839294 -0.0108295 0.501581
570 1 0.741631 0.93032 0.492293
573 1 0.839794 0.828734 0.493761
309 1 0.842591 1.00609 0.322091
311 1 0.914853 1.00016 0.402336
430 1 0.915209 0.914894 0.328595
432 1 0.832021 0.923842 0.40731
434 1 0.0913973 0.0740768 0.500672
435 1 0.0836729 -0.00297707 0.576317
440 1 0.164618 0.0840927 0.587412
578 1 0.089612 0.086406 0.677196
601 1 1.01253 0.157372 0.665911
438 1 0.243502 0.0851112 0.495811
439 1 0.2424 1.00932 0.579168
463 1 0.258031 0.1664 0.581884
605 1 0.168627 0.170902 0.672074
444 1 0.319046 0.0849264 0.57526
467 1 0.396992 0.170198 0.589415
585 1 0.324856 0.993259 0.651836
586 1 0.39195 0.0902989 0.670219
446 1 0.567908 0.072516 0.494712
447 1 0.568491 0.00753127 0.586392
448 1 0.484229 0.0920453 0.583448
452 1 0.658526 0.0886454 0.573675
471 1 0.576509 0.170757 0.58614
456 1 0.841602 0.0798693 0.582315
475 1 0.753885 0.172574 0.571208
594 1 0.736777 0.0864943 0.663341
436 1 0.998707 0.0791089 0.564503
454 1 0.916055 0.0835789 0.488999
477 1 0.832503 0.161911 0.494923
479 1 0.922329 0.158408 0.58103
577 1 0.993092 0.988457 0.661283
621 1 0.825253 0.167615 0.672431
458 1 0.087898 0.244347 0.482843
459 1 0.0796293 0.163323 0.585308
464 1 0.16561 0.241989 0.587199
483 1 0.0943532 0.336179 0.565377
462 1 0.25379 0.252657 0.485883
465 1 0.330789 0.169114 0.489732
468 1 0.325393 0.264141 0.58147
487 1 0.245579 0.334976 0.590946
633 1 0.32546 0.342182 0.671699
472 1 0.498443 0.253496 0.583548
610 1 0.412763 0.245733 0.665781
470 1 0.575629 0.252142 0.496649
495 1 0.573268 0.33368 0.576845
476 1 0.658898 0.244266 0.568946
460 1 0.00469767 0.247647 0.580224
478 1 0.929472 0.243411 0.490137
480 1 0.835105 0.24919 0.596203
503 1 0.91419 0.321261 0.567803
482 1 0.0834237 0.431416 0.493302
484 1 0.995666 0.418772 0.596069
488 1 0.169426 0.41158 0.568946
505 1 -0.00440822 0.497034 0.487097
486 1 0.249753 0.413727 0.499883
492 1 0.328784 0.410684 0.569481
653 1 0.169419 0.502512 0.650996
657 1 0.328746 0.503624 0.660829
490 1 0.416416 0.412986 0.484698
491 1 0.413364 0.332333 0.591996
634 1 0.406754 0.422123 0.678905
661 1 0.512409 0.495686 0.676504
493 1 0.4949 0.345762 0.496835
494 1 0.582263 0.433122 0.511207
496 1 0.485119 0.411183 0.585099
500 1 0.673695 0.419107 0.574979
637 1 0.495739 0.348331 0.68822
638 1 0.580444 0.40829 0.655217
665 1 0.667444 0.51388 0.643663
497 1 0.659193 0.328154 0.500507
499 1 0.743727 0.339694 0.574594
504 1 0.831719 0.432442 0.569324
502 1 0.931112 0.41205 0.50823
645 1 0.833863 0.333733 0.648825
646 1 0.917415 0.396716 0.659319
507 1 0.0815377 0.506473 0.588496
508 1 1.00715 0.58622 0.569941
531 1 0.075156 0.667901 0.590207
650 1 0.0865882 0.577544 0.668574
511 1 0.243786 0.524034 0.57569
512 1 0.161634 0.590957 0.600173
513 1 0.32142 0.509597 0.492522
535 1 0.258681 0.671921 0.604778
654 1 0.241821 0.577347 0.677073
515 1 0.414192 0.489792 0.600984
516 1 0.338507 0.582813 0.585359
517 1 0.48625 0.500891 0.512827
658 1 0.431341 0.592166 0.67464
685 1 0.512735 0.673311 0.666706
519 1 0.569498 0.517826 0.572767
520 1 0.491524 0.592095 0.587449
523 1 0.755912 0.510362 0.569771
524 1 0.67574 0.596755 0.569461
528 1 0.842795 0.586176 0.584164
666 1 0.748186 0.592524 0.659702
693 1 0.837643 0.672847 0.674471
525 1 0.823874 0.508468 0.492909
527 1 0.935411 0.502227 0.588657
551 1 0.914237 0.668881 0.581567
649 1 0.00342025 0.497485 0.676564
669 1 0.835443 0.499393 0.659955
532 1 1.00854 0.744326 0.595374
536 1 0.177792 0.752269 0.586273
674 1 0.0896316 0.751531 0.676428
540 1 0.351247 0.765256 0.5906
677 1 0.17546 0.668761 0.664761
537 1 0.331064 0.669798 0.494492
538 1 0.409609 0.765101 0.504877
539 1 0.406102 0.677787 0.582428
541 1 0.484943 0.6743 0.507884
681 1 0.345997 0.664901 0.679445
543 1 0.578931 0.679129 0.574158
544 1 0.509872 0.75762 0.586298
548 1 0.660632 0.759482 0.569287
567 1 0.576513 0.849994 0.579497
546 1 0.750475 0.748362 0.483308
547 1 0.769615 0.671856 0.575874
552 1 0.834313 0.755992 0.579099
689 1 0.672809 0.677439 0.663126
690 1 0.739507 0.749643 0.651489
575 1 0.922592 0.838472 0.580304
697 1 0.00217159 0.84382 0.665167
555 1 0.0890854 0.833341 0.586578
556 1 -0.00114442 0.925815 0.580346
698 1 0.0739718 0.927737 0.667548
701 1 0.164826 0.824267 0.665392
558 1 0.245441 0.913815 0.502643
559 1 0.25627 0.829827 0.594019
560 1 0.170547 0.92149 0.584793
443 1 0.39944 1.01311 0.568165
563 1 0.423338 0.833824 0.588978
564 1 0.330795 0.914529 0.584813
705 1 0.324149 0.841648 0.678121
568 1 0.481807 0.926207 0.575321
572 1 0.666161 0.902634 0.583353
589 1 0.487183 0.0235044 0.667347
593 1 0.684387 0.999075 0.653486
713 1 0.664487 0.842283 0.666341
451 1 0.756917 0.00895104 0.579733
571 1 0.74799 0.827249 0.571418
714 1 0.767266 0.910539 0.652479
455 1 0.912896 -0.00103123 0.599609
574 1 0.917531 0.912618 0.496335
576 1 0.847759 0.913437 0.572634
597 1 0.832264 0.0129138 0.672598
718 1 0.91045 0.912311 0.67172
579 1 0.0881012 -0.0082777 0.75355
584 1 0.172787 0.0800775 0.743647
603 1 0.0856094 0.178676 0.741918
749 1 0.154469 0.168921 0.827792
582 1 0.253554 0.0715813 0.663112
583 1 0.2491 0.000134906 0.747397
607 1 0.240813 0.175596 0.775648
609 1 0.320574 0.178009 0.670127
726 1 0.240002 0.0944235 0.841773
588 1 0.320286 0.0981999 0.752864
592 1 0.484474 0.0778348 0.753503
753 1 0.319884 0.178654 0.844545
590 1 0.581989 0.0941408 0.664687
591 1 0.575282 0.0288012 0.759979
615 1 0.576425 0.181643 0.74629
595 1 0.746707 0.0199047 0.753059
596 1 0.660423 0.0872926 0.751417
619 1 0.747869 0.175763 0.754946
737 1 0.645466 0.00723807 0.832332
738 1 0.740719 0.083194 0.839596
761 1 0.669348 0.185646 0.816864
580 1 -0.00161855 0.090891 0.749273
598 1 0.913571 0.0816285 0.663118
600 1 0.834569 0.0838119 0.753713
741 1 0.837756 0.00852038 0.834213
742 1 0.919998 0.0721865 0.830387
602 1 0.0912665 0.248226 0.663568
608 1 0.1745 0.255606 0.751944
606 1 0.245093 0.253731 0.661133
612 1 0.313371 0.252227 0.745297
631 1 0.248569 0.334687 0.747148
777 1 0.33806 0.333092 0.833977
611 1 0.395586 0.184214 0.756394
616 1 0.497534 0.252238 0.746663
754 1 0.397838 0.253865 0.842051
781 1 0.495325 0.343381 0.818731
613 1 0.480736 0.155309 0.67456
614 1 0.570591 0.256585 0.667923
617 1 0.658474 0.173407 0.653181
758 1 0.57123 0.252804 0.826727
618 1 0.737571 0.246653 0.644445
620 1 0.662807 0.258376 0.737017
604 1 1.01344 0.261322 0.750548
622 1 0.924119 0.251356 0.67112
623 1 0.92215 0.16511 0.751887
624 1 0.847275 0.241858 0.75118
765 1 0.833321 0.161381 0.838798
625 1 0.0123282 0.331661 0.659634
626 1 0.0831754 0.423498 0.659658
627 1 0.0971705 0.333355 0.753869
628 1 1.00837 0.400399 0.744086
629 1 0.164 0.349348 0.663906
630 1 0.255641 0.43074 0.653417
632 1 0.165515 0.414376 0.747475
636 1 0.318323 0.414958 0.749575
635 1 0.410228 0.319605 0.742841
640 1 0.495198 0.426798 0.758472
659 1 0.409578 0.508719 0.747143
639 1 0.593324 0.351285 0.743494
782 1 0.604916 0.42917 0.822114
641 1 0.666007 0.324644 0.641524
642 1 0.750202 0.431747 0.649682
643 1 0.758556 0.329388 0.726995
644 1 0.683939 0.411474 0.742224
648 1 0.841159 0.418703 0.735743
667 1 0.758853 0.509944 0.736592
785 1 0.669809 0.328067 0.821882
647 1 0.924031 0.324128 0.746269
671 1 0.923702 0.501388 0.76453
789 1 0.826556 0.326136 0.828222
790 1 0.906201 0.410613 0.843452
651 1 0.0913344 0.50454 0.740671
655 1 0.234553 0.500537 0.748245
656 1 0.164619 0.580534 0.748385
660 1 0.327546 0.580482 0.752578
798 1 0.254641 0.571566 0.832328
664 1 0.493788 0.587519 0.770265
802 1 0.422757 0.574212 0.845942
829 1 0.502953 0.671022 0.836359
662 1 0.601384 0.594783 0.648514
663 1 0.615515 0.489401 0.735605
687 1 0.586709 0.671941 0.754292
668 1 0.669034 0.587482 0.749722
672 1 0.841063 0.578961 0.752597
652 1 1.00422 0.58605 0.745973
670 1 0.914938 0.581123 0.666161
793 1 0.991121 0.505959 0.841151
673 1 -0.00407396 0.665378 0.670407
675 1 0.0779779 0.662061 0.744256
676 1 0.989529 0.745111 0.752636
678 1 0.270504 0.756984 0.675292
679 1 0.24647 0.663514 0.748461
680 1 0.164023 0.745836 0.753021
684 1 0.337855 0.742025 0.758931
821 1 0.152518 0.653243 0.823816
822 1 0.240176 0.74062 0.825755
682 1 0.435277 0.758307 0.677051
683 1 0.426666 0.667825 0.742823
688 1 0.512717 0.765216 0.745644
707 1 0.41588 0.847537 0.732581
709 1 0.503303 0.859243 0.662816
826 1 0.417954 0.754969 0.820027
849 1 0.336207 0.822119 0.819735
853 1 0.497492 0.849221 0.82032
686 1 0.593901 0.756073 0.668092
692 1 0.679911 0.768749 0.73844
711 1 0.584953 0.839044 0.750165
691 1 0.752418 0.670677 0.736944
696 1 0.832175 0.756431 0.735326
715 1 0.758237 0.835548 0.741121
717 1 0.841079 0.835619 0.656926
861 1 0.829639 0.842501 0.820638
694 1 0.913097 0.740068 0.666919
695 1 0.918315 0.653682 0.744721
719 1 0.919737 0.832228 0.742121
838 1 0.903138 0.760338 0.82512
581 1 0.170238 0.988517 0.664039
699 1 0.0847003 0.824513 0.750949
704 1 0.159224 0.906391 0.740146
721 1 0.00428946 0.00349526 0.829843
702 1 0.249708 0.913807 0.666034
703 1 0.240777 0.82454 0.750595
725 1 0.162941 0.0120472 0.828362
587 1 0.406286 0.00355605 0.748009
706 1 0.411803 0.932432 0.656512
708 1 0.324992 0.924782 0.763981
850 1 0.411751 0.914725 0.823785
710 1 0.595742 0.927091 0.666288
712 1 0.511627 0.944335 0.740906
854 1 0.577118 0.921781 0.823486
857 1 0.674693 0.849353 0.827563
716 1 0.672045 0.930473 0.739573
720 1 0.837464 0.938706 0.736254
858 1 0.761717 0.934977 0.841519
599 1 0.930873 0.00169401 0.747679
700 1 0.00766677 0.909292 0.758963
862 1 0.906292 0.920767 0.834936
2 1 0.079549 0.09847 0.00814486
25 1 -0.000541759 0.16071 -0.0126348
722 1 0.0921007 0.0929324 0.82155
747 1 0.080667 0.180089 0.912399
5 1 0.158997 0.993871 0.016334
6 1 0.235793 0.0996373 0.990773
9 1 0.337706 0.00552958 1.00674
727 1 0.218963 0.017207 0.919845
728 1 0.145351 0.0915863 0.925134
751 1 0.230532 0.184822 0.909389
729 1 0.315462 1.01227 0.832775
730 1 0.406925 0.082644 0.833609
731 1 0.411932 0.0258352 0.92268
732 1 0.31732 0.0783005 0.917769
733 1 0.497331 0.00938396 0.836719
734 1 0.570925 0.0996711 0.83719
735 1 0.585234 1.0031 0.926936
736 1 0.499739 0.0801213 0.915411
17 1 0.677337 -0.000697462 0.999378
18 1 0.768232 0.0773241 -0.000903393
740 1 0.655205 0.0971019 0.90688
744 1 0.852871 0.0813502 0.918614
22 1 0.930249 0.0734306 0.00463262
724 1 0.000154598 0.0798812 0.918728
767 1 0.918727 0.161855 0.917167
26 1 0.0933234 0.263138 0.999541
746 1 0.084873 0.246744 0.830047
752 1 0.164666 0.267147 0.92025
769 1 -0.0115359 0.336037 0.839872
771 1 0.074489 0.341263 0.912255
30 1 0.242896 0.253477 0.00929238
33 1 0.326545 0.177101 0.0101677
57 1 0.331063 0.341125 1.00628
750 1 0.245595 0.261865 0.838741
756 1 0.324077 0.258389 0.936705
775 1 0.243809 0.340848 0.910565
61 1 0.497829 0.33899 1.00263
755 1 0.406338 0.175249 0.914233
779 1 0.404896 0.319434 0.917195
757 1 0.479032 0.17233 0.829069
759 1 0.573306 0.171215 0.915317
760 1 0.499741 0.262546 0.904006
783 1 0.599621 0.342288 0.898604
762 1 0.756243 0.242729 0.836433
763 1 0.756997 0.167572 0.935852
764 1 0.667557 0.244334 0.933052
768 1 0.840965 0.233666 0.914341
46 1 0.916847 0.238647 0.00072306
745 1 -0.000765192 0.159452 0.829441
748 1 1.01077 0.254313 0.931218
766 1 0.923905 0.244157 0.834036
49 1 -0.0166306 0.334002 0.988555
50 1 0.0778049 0.415255 0.00416086
77 1 0.170345 0.497018 0.984359
770 1 0.0850255 0.43346 0.827499
772 1 -6.81289e-05 0.418009 0.915834
773 1 0.167115 0.33033 0.832797
774 1 0.235276 0.428539 0.832193
776 1 0.157454 0.418888 0.909799
780 1 0.337846 0.418745 0.924741
58 1 0.419512 0.416343 1.00954
778 1 0.422061 0.428322 0.841962
784 1 0.499372 0.403966 0.91755
803 1 0.445422 0.497069 0.927427
805 1 0.520045 0.491139 0.840169
62 1 0.585492 0.407166 -0.00562447
788 1 0.678176 0.406364 0.920437
807 1 0.593184 0.48175 0.921123
786 1 0.751832 0.410491 0.821826
787 1 0.751135 0.3187 0.91303
809 1 0.682374 0.499007 0.837238
811 1 0.755235 0.490569 0.922798
813 1 0.820964 0.493556 0.83897
93 1 0.827143 0.497186 0.00410797
791 1 0.902796 0.336717 0.916068
792 1 0.816714 0.396568 0.938862
815 1 0.903262 0.498572 0.9056
74 1 0.0966529 0.590737 -0.00215501
794 1 0.0690718 0.575191 0.829457
795 1 0.0806418 0.495441 0.922453
796 1 0.0116188 0.585387 0.917468
800 1 0.168272 0.594056 0.918281
78 1 0.257585 0.581928 0.990257
797 1 0.166705 0.50268 0.830426
799 1 0.259101 0.495237 0.919927
801 1 0.320664 0.487652 0.832637
804 1 0.337582 0.578698 0.90967
808 1 0.514649 0.575722 0.928555
827 1 0.419912 0.656416 0.918335
86 1 0.586583 0.563075 1.00561
109 1 0.50744 0.656299 0.997514
806 1 0.586054 0.576918 0.834203
812 1 0.66279 0.580377 0.907297
831 1 0.579984 0.668394 0.904579
833 1 0.677128 0.67411 0.811449
90 1 0.748049 0.595051 0.989481
810 1 0.747104 0.58509 0.8249
816 1 0.831144 0.592379 0.910226
814 1 0.917985 0.592205 0.843764
839 1 0.922541 0.681772 0.914091
818 1 0.0811086 0.760105 0.832119
819 1 0.0937972 0.68006 0.926594
820 1 1.00494 0.749009 0.909529
823 1 0.251255 0.656151 0.902596
824 1 0.184302 0.747394 0.914523
825 1 0.34268 0.667237 0.828946
847 1 0.271815 0.826544 0.899926
105 1 0.341073 0.661919 0.993246
106 1 0.417054 0.753997 0.980886
828 1 0.336722 0.746087 0.909281
832 1 0.506458 0.76934 0.892994
110 1 0.589352 0.746704 0.972587
830 1 0.608606 0.762866 0.821033
836 1 0.680087 0.74211 0.901232
834 1 0.747603 0.753725 0.825421
835 1 0.759052 0.660797 0.899844
837 1 0.830298 0.667381 0.821573
859 1 0.746347 0.829087 0.904778
817 1 0.998666 0.672232 0.835565
840 1 0.82555 0.756005 0.913148
863 1 0.910277 0.828204 0.923265
121 1 0.989628 0.826037 1.00085
723 1 0.0749524 1.00254 0.923446
842 1 0.0892837 0.917844 0.836424
843 1 0.0775194 0.831207 0.923481
125 1 0.19801 0.832098 0.985686
126 1 0.251772 0.930105 0.00812662
845 1 0.161329 0.832291 0.851469
846 1 0.23123 0.922548 0.831123
848 1 0.177865 0.920975 0.92257
130 1 0.416931 0.929073 0.979653
851 1 0.413446 0.832243 0.89564
852 1 0.332306 0.931296 0.910844
133 1 0.49944 0.845972 0.979265
855 1 0.592272 0.843646 0.909939
856 1 0.505367 0.938767 0.918637
860 1 0.670352 0.925887 0.901792
21 1 0.83766 0.999766 0.986843
138 1 0.759547 0.896927 -0.0144688
141 1 0.838882 0.821956 1.00051
739 1 0.751749 0.0113223 0.920477
864 1 0.837093 0.915555 0.914808
1 1 -0.00247862 0.985177 0.996926
142 1 0.91783 0.902529 0.997219
743 1 0.92011 -0.000448252 0.914581
841 1 -0.009596 0.834348 0.835548
844 1 0.0095412 0.912303 0.913919
