ITEM: TIMESTEP
3500
ITEM: NUMBER OF ATOMS
864
ITEM: BOX BOUNDS pp pp pp
0.0000000000000000e+00 3.1559999999999999e+01
0.0000000000000000e+00 3.1559999999999999e+01
0.0000000000000000e+00 3.1559999999999999e+01
ITEM: ATOMS id type xs ys zs
4 1 0.994598 0.0938262 0.0890673
27 1 0.0787019 0.17514 0.0814473
25 1 0.996235 0.178503 1.01808
8 1 0.157533 0.0803592 0.0782263
6 1 0.243737 0.0861178 0.0102275
12 1 0.345016 0.0722055 0.0846488
31 1 0.251989 0.156337 0.0835194
7 1 0.242899 0.988531 0.0837003
9 1 0.318336 0.980726 -0.00384416
35 1 0.427605 0.164649 0.0819137
10 1 0.413218 0.0642011 1.00194
154 1 0.421738 0.091634 0.179067
16 1 0.500547 0.0734938 0.0773581
20 1 0.665193 0.0820304 0.0672439
158 1 0.581943 0.0938221 0.155834
39 1 0.580265 0.178487 0.0815758
13 1 0.514886 0.00287748 0.993666
185 1 0.665147 0.182485 0.155506
43 1 0.750489 0.176621 0.0874371
162 1 0.753086 0.100725 0.157777
161 1 0.682712 0.0218377 0.157856
24 1 0.826405 0.0941598 0.0695937
165 1 0.821467 0.00462978 0.155243
166 1 0.907002 0.0782592 0.157779
32 1 0.165773 0.260419 0.0943816
28 1 0.994601 0.255053 0.0885138
169 1 1.00596 0.178017 0.170553
26 1 0.0904135 0.252668 0.00430138
29 1 0.162125 0.182769 0.0129066
30 1 0.253685 0.237176 -0.000117405
173 1 0.159852 0.16995 0.155747
36 1 0.354004 0.244759 0.0873839
40 1 0.490428 0.26823 0.0708808
33 1 0.333511 0.164539 0.0130546
34 1 0.41558 0.229801 -0.000625825
38 1 0.58881 0.24727 1.00276
63 1 0.57824 0.345549 0.0717923
44 1 0.662469 0.249351 0.0837775
42 1 0.749125 0.248335 0.988758
48 1 0.839317 0.258988 0.0694881
213 1 0.830004 0.351405 0.170225
67 1 0.758861 0.344713 0.0746994
47 1 0.906189 0.160707 0.0794228
46 1 0.922043 0.260685 -0.00199631
71 1 0.91701 0.341829 0.0868472
51 1 0.0684659 0.34452 0.0921535
56 1 0.180867 0.413612 0.0884613
53 1 0.160498 0.336725 0.0175832
55 1 0.262092 0.327609 0.0889913
60 1 0.328506 0.418675 0.0880682
79 1 0.233509 0.50848 0.101443
201 1 0.346069 0.346056 0.182599
54 1 0.265619 0.424604 0.0095355
57 1 0.336611 0.328022 0.0165166
59 1 0.422068 0.35347 0.102407
61 1 0.492337 0.345678 0.994947
83 1 0.414738 0.503246 0.0781499
64 1 0.510805 0.433344 0.0781132
206 1 0.579653 0.428456 0.161952
68 1 0.662703 0.420088 0.0813989
91 1 0.760051 0.498728 0.0925455
237 1 0.832725 0.500349 0.166154
66 1 0.749768 0.430258 0.0103544
93 1 0.853519 0.506152 0.987364
49 1 0.00916545 0.327401 0.0100436
52 1 -0.00442561 0.419554 0.0907671
72 1 0.845092 0.421049 0.0767166
95 1 0.917348 0.507426 0.0887384
75 1 0.0840474 0.491477 0.0952641
99 1 0.0697336 0.658592 0.0867439
101 1 0.153993 0.670585 0.00288278
245 1 0.166335 0.654663 0.173233
80 1 0.156485 0.584778 0.0716257
103 1 0.22805 0.665626 0.0891229
84 1 0.331995 0.59181 0.0826306
78 1 0.243822 0.571254 0.00465431
105 1 0.323909 0.674747 0.00472034
88 1 0.498894 0.581505 0.0848346
226 1 0.410434 0.58905 0.164875
107 1 0.423906 0.663854 0.0893417
253 1 0.500293 0.657141 0.160774
249 1 0.336949 0.670361 0.161996
87 1 0.584837 0.507292 0.0751459
230 1 0.583619 0.581962 0.165654
257 1 0.68166 0.664691 0.190569
92 1 0.669148 0.582472 0.0865391
96 1 0.831939 0.580722 0.0767505
234 1 0.752647 0.585566 0.164208
76 1 0.995818 0.583248 0.0842375
119 1 0.920056 0.65715 0.0846118
241 1 1.00808 0.679505 0.165793
94 1 0.921627 0.584123 1.00374
98 1 0.0782525 0.745736 0.00211695
104 1 0.15305 0.745175 0.0782053
125 1 0.162397 0.827393 0.00436864
121 1 0.986037 0.841141 0.0035173
123 1 0.0867327 0.830852 0.0832088
127 1 0.25168 0.816962 0.0915338
273 1 0.329809 0.825898 0.161415
246 1 0.231309 0.755224 0.179119
269 1 0.157946 0.832215 0.174123
108 1 0.325863 0.737715 0.089609
131 1 0.412482 0.846666 0.0837498
111 1 0.577988 0.663376 0.0912317
112 1 0.503597 0.745337 0.0874226
254 1 0.58499 0.739171 0.16468
110 1 0.57525 0.738747 1.00064
116 1 0.664841 0.753068 0.0888481
115 1 0.745289 0.669354 0.0909214
139 1 0.760688 0.841537 0.0763063
281 1 0.66872 0.848804 0.161483
100 1 -0.0154449 0.768004 0.0907268
120 1 0.82106 0.749963 0.0758432
143 1 0.902509 0.835145 0.0848849
262 1 0.909661 0.736458 0.163224
1 1 0.989773 0.00548215 -0.000752897
3 1 0.0923145 0.991458 0.0754097
122 1 0.068126 0.910022 0.00474703
128 1 0.168708 0.90571 0.0802128
149 1 0.172728 1.0023 0.169051
126 1 0.247742 0.898961 0.0026632
270 1 0.242791 0.904373 0.173945
153 1 0.328373 0.984742 0.158373
11 1 0.41081 -0.00924065 0.0860266
132 1 0.318833 0.907177 0.0879759
136 1 0.511478 0.912626 0.0910564
15 1 0.591398 -0.00184504 0.077045
135 1 0.572253 0.835349 0.0903851
134 1 0.568779 0.917631 0.00542982
278 1 0.594742 0.926491 0.154332
277 1 0.487916 0.8347 0.160376
141 1 0.837895 0.843799 0.998615
19 1 0.74902 0.00626874 0.0716013
140 1 0.666548 0.907323 0.0669954
282 1 0.735083 0.932551 0.150662
17 1 0.663039 0.994991 -0.00688431
138 1 0.760923 0.922635 0.995526
23 1 0.914765 0.00340694 0.0791901
124 1 0.985136 0.912068 0.0869157
144 1 0.822515 0.920919 0.0870625
146 1 0.071088 0.0841274 0.167057
152 1 0.162177 0.0893042 0.242942
171 1 0.0875413 0.1682 0.254659
313 1 0.986704 0.157521 0.321953
150 1 0.25377 0.0726803 0.168227
151 1 0.250848 0.992662 0.247457
156 1 0.338493 0.0798656 0.245983
297 1 0.34301 0.999754 0.320972
298 1 0.42902 0.0750792 0.331573
321 1 0.34577 0.17122 0.312132
179 1 0.439941 0.163768 0.251655
181 1 0.496926 0.183829 0.163706
155 1 0.42014 -0.00148508 0.248905
157 1 0.500484 0.00697299 0.157986
160 1 0.518144 0.0898857 0.250454
164 1 0.666878 0.0998502 0.251976
183 1 0.585583 0.184265 0.22911
301 1 0.50791 1.00557 0.320037
302 1 0.589375 0.0877629 0.344372
163 1 0.746095 0.0303583 0.253092
333 1 0.845758 0.164137 0.340738
148 1 -0.00308428 0.0708989 0.262557
168 1 0.829672 0.0918428 0.248289
167 1 0.919548 0.998427 0.251084
189 1 0.834622 0.165768 0.153548
170 1 0.076773 0.254991 0.164662
172 1 0.986771 0.253319 0.255453
314 1 0.0828558 0.247667 0.342216
174 1 0.246466 0.246823 0.169983
177 1 0.345032 0.169799 0.162595
175 1 0.242153 0.165011 0.25537
176 1 0.169176 0.247567 0.256382
180 1 0.325186 0.258353 0.245313
178 1 0.418637 0.246338 0.173652
322 1 0.423883 0.245568 0.322547
184 1 0.506847 0.264782 0.238603
205 1 0.50563 0.339398 0.165799
209 1 0.66729 0.336413 0.16091
182 1 0.588777 0.264062 0.17082
329 1 0.665894 0.174631 0.336378
188 1 0.674616 0.252984 0.252814
353 1 0.662697 0.343354 0.350223
326 1 0.606943 0.258903 0.353999
186 1 0.76744 0.257438 0.157097
187 1 0.75757 0.175469 0.262754
211 1 0.738189 0.357994 0.24436
191 1 0.908852 0.163439 0.241155
193 1 0.999628 0.333526 0.167719
190 1 0.906435 0.250626 0.164082
192 1 0.828257 0.251532 0.248967
215 1 0.905698 0.323157 0.240664
337 1 0.00610419 0.341578 0.340505
195 1 0.0821112 0.338148 0.257908
194 1 0.0714267 0.411345 0.177139
200 1 0.156938 0.42104 0.24783
198 1 0.253658 0.404657 0.175462
197 1 0.154703 0.335598 0.176289
199 1 0.239112 0.330245 0.254269
204 1 0.340455 0.425909 0.249237
221 1 0.164206 0.508247 0.1838
202 1 0.437165 0.422844 0.189922
345 1 0.327221 0.333621 0.325294
203 1 0.421887 0.330344 0.25918
208 1 0.528961 0.404707 0.251918
346 1 0.413231 0.418909 0.313572
229 1 0.490071 0.502605 0.158686
207 1 0.585714 0.315534 0.261141
212 1 0.651777 0.408646 0.260225
231 1 0.587888 0.4955 0.237039
210 1 0.743356 0.418521 0.152378
233 1 0.668631 0.492141 0.160628
235 1 0.756948 0.480585 0.26218
214 1 0.912865 0.418561 0.169786
217 1 1.00828 0.500695 0.167236
196 1 0.991453 0.412172 0.255041
216 1 0.844982 0.421505 0.253766
218 1 0.0898116 0.586849 0.170203
219 1 0.079491 0.505395 0.24846
224 1 0.157272 0.583019 0.259091
222 1 0.252965 0.588315 0.177045
225 1 0.336371 0.501703 0.166238
223 1 0.266126 0.513461 0.256978
247 1 0.23926 0.664248 0.267298
228 1 0.333247 0.598478 0.256621
227 1 0.410855 0.511343 0.257423
251 1 0.413996 0.678963 0.241035
393 1 0.331471 0.671744 0.329988
232 1 0.512147 0.572985 0.237997
236 1 0.676471 0.560898 0.242055
255 1 0.56475 0.652512 0.248143
240 1 0.833944 0.576252 0.250417
261 1 0.822544 0.661202 0.175524
239 1 0.915834 0.504363 0.247046
220 1 -0.000639175 0.587795 0.240163
238 1 0.922226 0.574888 0.161041
382 1 0.926889 0.570207 0.339752
263 1 0.911693 0.663064 0.261184
242 1 0.0886086 0.753873 0.165637
243 1 0.0748293 0.676733 0.244023
267 1 0.0838603 0.847467 0.256445
413 1 0.171318 0.84416 0.3435
248 1 0.146975 0.758857 0.261289
390 1 0.250706 0.747039 0.33839
250 1 0.416293 0.750538 0.163527
252 1 0.318384 0.747324 0.243092
394 1 0.418971 0.743323 0.32553
421 1 0.508996 0.841981 0.327405
256 1 0.502052 0.749968 0.242824
398 1 0.57103 0.754282 0.331886
425 1 0.654926 0.835635 0.323891
259 1 0.758779 0.660203 0.259029
260 1 0.661062 0.759425 0.239918
258 1 0.750301 0.757019 0.161713
264 1 0.831308 0.740996 0.244253
285 1 0.827933 0.838228 0.164846
244 1 0.00643896 0.770195 0.253673
265 1 0.00537748 0.838432 0.172684
266 1 0.0949561 0.916192 0.159132
147 1 0.0885387 1.00423 0.26011
272 1 0.161872 0.915658 0.265863
293 1 0.181178 0.00722152 0.317667
271 1 0.23999 0.833172 0.259837
276 1 0.332077 0.90343 0.244589
275 1 0.424503 0.828846 0.244781
274 1 0.42555 0.91278 0.16607
280 1 0.511084 0.929321 0.229994
418 1 0.426167 0.926247 0.320876
159 1 0.599562 1.0185 0.24612
279 1 0.577884 0.834427 0.225051
422 1 0.579655 0.926744 0.311876
305 1 0.673372 0.0106501 0.331607
284 1 0.661217 0.914475 0.240045
283 1 0.7446 0.830896 0.241837
426 1 0.742792 0.903127 0.324081
145 1 -0.0055614 0.00710763 0.165258
288 1 0.810002 0.920097 0.225542
268 1 0.00515868 0.92607 0.245578
286 1 0.90619 0.938243 0.155571
287 1 0.936531 0.839394 0.245775
290 1 0.0909215 0.0863173 0.332074
317 1 0.168797 0.172027 0.337486
296 1 0.166267 0.0837343 0.421253
315 1 0.0841706 0.148847 0.415006
294 1 0.263266 0.0779769 0.328678
295 1 0.26654 0.993799 0.392088
438 1 0.249423 0.0830482 0.486783
300 1 0.353187 0.080503 0.399038
465 1 0.331723 0.165338 0.483614
323 1 0.422302 0.167261 0.398575
299 1 0.420439 0.995362 0.409924
442 1 0.428449 0.0606557 0.503493
304 1 0.502795 0.082931 0.422504
303 1 0.590159 0.999318 0.397685
308 1 0.666148 0.0872062 0.414003
325 1 0.523425 0.170983 0.332244
469 1 0.493886 0.16271 0.504701
306 1 0.742495 0.0916165 0.336079
331 1 0.769536 0.160449 0.425941
450 1 0.748219 0.0723909 0.485371
309 1 0.834844 0.00540175 0.32345
292 1 0.00758208 0.074636 0.40695
312 1 0.83368 0.0763857 0.416425
310 1 0.913522 0.0804325 0.327642
311 1 0.90567 0.00432301 0.408998
316 1 -0.000846388 0.231972 0.421222
320 1 0.168037 0.25186 0.423532
318 1 0.253559 0.243116 0.332491
319 1 0.252009 0.16162 0.417135
324 1 0.3283 0.259973 0.405183
462 1 0.255769 0.240116 0.494173
328 1 0.504746 0.246899 0.419644
347 1 0.422036 0.318323 0.422622
466 1 0.405413 0.234971 0.498473
327 1 0.5797 0.16451 0.421411
470 1 0.580457 0.244603 0.499409
351 1 0.579886 0.329395 0.421556
330 1 0.749988 0.267621 0.326937
357 1 0.831806 0.322303 0.352041
332 1 0.67573 0.244589 0.437603
336 1 0.843856 0.253479 0.419816
355 1 0.751112 0.32532 0.437196
334 1 0.91327 0.249453 0.34082
335 1 0.908955 0.160591 0.430705
359 1 0.926354 0.321097 0.421914
481 1 0.00248052 0.327463 0.505222
338 1 0.0770759 0.416766 0.335116
339 1 0.0813685 0.333403 0.424407
482 1 0.0739366 0.430286 0.491497
344 1 0.157335 0.40753 0.427582
363 1 0.0814383 0.507411 0.41814
341 1 0.167624 0.330653 0.336225
343 1 0.250878 0.327727 0.419012
342 1 0.253004 0.41622 0.321331
367 1 0.249353 0.482778 0.407233
485 1 0.169488 0.328646 0.523248
349 1 0.508754 0.32798 0.341628
348 1 0.349326 0.417838 0.406172
490 1 0.418614 0.41482 0.485562
350 1 0.585407 0.432048 0.34389
377 1 0.675144 0.490781 0.326191
352 1 0.502527 0.411037 0.421152
356 1 0.664216 0.41012 0.43274
375 1 0.598135 0.490876 0.429049
354 1 0.756298 0.39414 0.342619
360 1 0.82999 0.400127 0.430207
381 1 0.849342 0.489058 0.342202
340 1 0.986143 0.405013 0.428023
358 1 0.916677 0.392959 0.331174
383 1 0.92556 0.50617 0.425606
362 1 0.0833855 0.588858 0.340441
368 1 0.168321 0.568681 0.415432
387 1 0.089819 0.667589 0.424782
365 1 0.179128 0.501244 0.320089
366 1 0.268395 0.580728 0.344711
369 1 0.345238 0.494928 0.331268
372 1 0.335069 0.566206 0.413685
510 1 0.257554 0.555725 0.493033
397 1 0.498881 0.655512 0.331489
371 1 0.433294 0.49637 0.412409
370 1 0.404895 0.581815 0.340765
395 1 0.430993 0.661626 0.422846
373 1 0.497543 0.497778 0.325347
374 1 0.581057 0.564329 0.327528
376 1 0.507274 0.570807 0.404825
380 1 0.664951 0.579641 0.414012
378 1 0.752019 0.566551 0.320047
379 1 0.76077 0.501162 0.410533
384 1 0.840584 0.581852 0.414129
525 1 0.841947 0.490843 0.496743
361 1 0.985429 0.486872 0.334588
364 1 1.01341 0.590324 0.410266
407 1 0.918686 0.662624 0.414608
386 1 0.0809849 0.760831 0.348682
409 1 -0.00154127 0.83901 0.342668
389 1 0.169937 0.652782 0.337948
530 1 0.105724 0.745223 0.493815
392 1 0.166903 0.749333 0.410535
411 1 0.0860901 0.840545 0.412712
553 1 0.00275506 0.814565 0.505477
533 1 0.161012 0.658094 0.500566
557 1 0.178653 0.834779 0.49027
391 1 0.249035 0.653285 0.422291
396 1 0.344843 0.743686 0.420148
400 1 0.500941 0.748127 0.40899
399 1 0.591376 0.65328 0.397794
545 1 0.658978 0.672003 0.48457
401 1 0.662687 0.654922 0.311933
402 1 0.740851 0.752799 0.319097
405 1 0.84099 0.657973 0.34187
403 1 0.743444 0.658018 0.393064
404 1 0.663371 0.750813 0.395566
408 1 0.833085 0.749262 0.387478
406 1 0.924732 0.75355 0.316325
385 1 0.000222478 0.677562 0.319386
388 1 0.991262 0.751714 0.416314
431 1 0.905736 0.825878 0.394288
550 1 0.911276 0.760351 0.49549
291 1 0.0877748 1.00169 0.414823
410 1 0.0809674 0.921591 0.337754
416 1 0.175887 0.938349 0.41234
554 1 0.092851 0.905483 0.500398
414 1 0.251374 0.909826 0.329866
417 1 0.330966 0.827579 0.343896
415 1 0.255362 0.830002 0.423297
437 1 0.166239 1.01038 0.504295
441 1 0.337476 0.982159 0.483694
558 1 0.255587 0.910169 0.49019
561 1 0.332769 0.8203 0.496305
419 1 0.420089 0.845018 0.40078
420 1 0.334564 0.91985 0.400731
562 1 0.418181 0.911521 0.487148
423 1 0.586954 0.838017 0.407312
424 1 0.501763 0.926084 0.396745
569 1 0.665514 0.826961 0.495298
429 1 0.833107 0.834924 0.303786
427 1 0.763835 0.825893 0.406759
428 1 0.680894 0.913691 0.412516
307 1 0.749726 -0.00982614 0.400503
432 1 0.825741 0.915595 0.410154
570 1 0.752021 0.919446 0.487887
430 1 0.921393 0.915923 0.328548
289 1 0.994959 0.989253 0.343128
412 1 1.00684 0.910662 0.415229
573 1 0.830214 0.826795 0.483435
434 1 0.0831059 0.0778819 0.50298
436 1 1.00159 0.0802158 0.587007
435 1 0.0900364 -0.00493003 0.580985
578 1 0.0853875 0.0880703 0.653236
601 1 0.999774 0.163071 0.65962
440 1 0.185951 0.0925864 0.583927
463 1 0.280688 0.16618 0.585181
439 1 0.247175 0.991359 0.574327
444 1 0.328805 0.0542333 0.57188
586 1 0.406253 0.0747565 0.66387
443 1 0.432344 0.989262 0.588845
473 1 0.674074 0.166163 0.498985
448 1 0.49712 0.0874202 0.60361
446 1 0.583519 0.0871119 0.500725
447 1 0.582428 0.999328 0.585103
471 1 0.59076 0.152781 0.587804
590 1 0.588291 0.0862248 0.670652
617 1 0.67432 0.153519 0.666084
452 1 0.671999 0.0695317 0.583091
449 1 0.654739 0.984537 0.495022
456 1 0.818023 0.0729682 0.586973
475 1 0.748508 0.158106 0.584839
477 1 0.840309 0.136698 0.507488
454 1 0.935591 0.0623411 0.497228
598 1 0.906984 0.0813475 0.659872
621 1 0.834318 0.1767 0.671221
457 1 0.000513472 0.165926 0.519923
458 1 0.0833983 0.245991 0.501871
461 1 0.167183 0.166062 0.50868
459 1 0.0862147 0.171359 0.592831
460 1 0.995607 0.259852 0.603607
464 1 0.185263 0.247117 0.589033
605 1 0.164259 0.177248 0.67248
629 1 0.179926 0.328018 0.679502
606 1 0.265405 0.247339 0.684573
468 1 0.355884 0.236679 0.601309
609 1 0.343052 0.171626 0.685775
467 1 0.408765 0.141072 0.577967
472 1 0.490721 0.239654 0.591249
491 1 0.410989 0.336361 0.586989
633 1 0.336767 0.338567 0.692856
637 1 0.484879 0.336064 0.664193
641 1 0.663291 0.342978 0.674591
474 1 0.76479 0.240159 0.50672
476 1 0.667444 0.247792 0.598662
618 1 0.756296 0.257036 0.669586
480 1 0.845938 0.244183 0.588766
478 1 0.925936 0.241548 0.503545
479 1 0.918269 0.171967 0.587022
503 1 0.914298 0.340047 0.603186
483 1 0.0856362 0.313899 0.587651
507 1 0.0734782 0.505885 0.59768
484 1 0.012777 0.411305 0.59627
509 1 0.154069 0.489276 0.510405
489 1 0.344009 0.342963 0.49554
488 1 0.142534 0.417013 0.584311
487 1 0.277335 0.324326 0.586748
486 1 0.250789 0.416528 0.498875
630 1 0.254309 0.404943 0.669425
511 1 0.235218 0.465953 0.590977
493 1 0.502233 0.326294 0.509247
492 1 0.335347 0.416703 0.597506
496 1 0.496214 0.423443 0.592839
494 1 0.568516 0.412878 0.521573
495 1 0.581855 0.329456 0.59982
638 1 0.569634 0.411084 0.673854
498 1 0.744729 0.409618 0.510827
521 1 0.660873 0.498921 0.515123
499 1 0.74805 0.325107 0.580517
497 1 0.657217 0.328975 0.497882
500 1 0.6518 0.421022 0.590967
642 1 0.745623 0.411649 0.648017
501 1 0.838986 0.32242 0.504893
504 1 0.838894 0.409104 0.575189
502 1 0.931742 0.398481 0.514704
649 1 1.00263 0.502462 0.680561
646 1 0.922565 0.421309 0.667722
506 1 0.0813377 0.575531 0.514758
505 1 1.00606 0.493168 0.516858
508 1 0.991405 0.579896 0.594782
531 1 0.0810581 0.656582 0.576509
650 1 0.0851641 0.588279 0.662933
512 1 0.162321 0.570058 0.588382
516 1 0.327266 0.562455 0.584626
513 1 0.348596 0.494467 0.500273
517 1 0.49075 0.493935 0.501414
514 1 0.421326 0.581334 0.497688
515 1 0.412428 0.505798 0.58314
520 1 0.50455 0.597357 0.580007
518 1 0.585128 0.591382 0.48942
665 1 0.658293 0.511715 0.65678
519 1 0.580644 0.50908 0.576105
524 1 0.672571 0.588632 0.584624
523 1 0.749944 0.495546 0.581699
669 1 0.832547 0.498876 0.660853
522 1 0.749159 0.590411 0.492759
527 1 0.913178 0.486314 0.575744
526 1 0.936874 0.579992 0.503905
528 1 0.830848 0.569076 0.577951
551 1 0.892611 0.664763 0.567231
693 1 0.838934 0.661258 0.658867
670 1 0.911712 0.57216 0.661287
529 1 -0.00681075 0.681168 0.500543
536 1 0.150879 0.747117 0.587571
555 1 0.0820396 0.833819 0.576959
673 1 0.994206 0.664572 0.672212
534 1 0.237243 0.744099 0.491369
535 1 0.255415 0.663954 0.593116
681 1 0.331154 0.66558 0.667168
678 1 0.254448 0.752337 0.671155
541 1 0.512789 0.67615 0.49415
539 1 0.42756 0.681445 0.57594
537 1 0.342927 0.663763 0.507358
540 1 0.330308 0.751835 0.580194
538 1 0.423132 0.753185 0.486098
544 1 0.502659 0.755356 0.572349
543 1 0.59383 0.673152 0.580167
542 1 0.583392 0.757354 0.492632
548 1 0.68642 0.758622 0.577034
547 1 0.742237 0.669566 0.563412
689 1 0.672858 0.679529 0.669189
546 1 0.740311 0.75217 0.480116
552 1 0.823974 0.743977 0.568504
690 1 0.756678 0.741925 0.659931
549 1 0.809256 0.678692 0.473541
532 1 0.973979 0.727214 0.583833
717 1 0.822802 0.827212 0.666916
556 1 0.00408592 0.920793 0.586217
581 1 0.174837 0.0181039 0.673591
701 1 0.154774 0.840823 0.658144
559 1 0.238005 0.813501 0.571758
560 1 0.169602 0.910166 0.577136
702 1 0.233683 0.901232 0.65493
563 1 0.404008 0.826277 0.578722
564 1 0.343232 0.913191 0.56687
705 1 0.325722 0.835068 0.65671
566 1 0.589432 0.899 0.499038
565 1 0.502978 0.838263 0.477502
567 1 0.597021 0.83235 0.591097
445 1 0.515461 1.00594 0.503302
568 1 0.515685 0.915355 0.568674
710 1 0.577948 0.911781 0.661375
451 1 0.750989 0.988999 0.568418
572 1 0.660123 0.923264 0.580261
571 1 0.737051 0.86186 0.588222
433 1 0.0179009 -0.00523292 0.50857
453 1 0.824804 0.992373 0.504816
574 1 0.925122 0.914351 0.494287
455 1 0.929312 0.999177 0.586642
575 1 0.918793 0.826544 0.587614
576 1 0.834934 0.903399 0.582456
580 1 0.00379156 0.0831277 0.74588
579 1 0.0755695 1.00668 0.754282
721 1 1.00273 -0.0101662 0.834292
582 1 0.270466 0.0776972 0.658635
584 1 0.163691 0.0818632 0.7561
726 1 0.23638 0.0740851 0.855734
583 1 0.254393 0.00933596 0.750157
589 1 0.510344 1.00709 0.677139
587 1 0.420599 0.980895 0.727834
588 1 0.32341 0.0845388 0.752343
611 1 0.415183 0.156527 0.761574
613 1 0.48393 0.165413 0.68389
585 1 0.315612 0.981439 0.664887
757 1 0.506776 0.163081 0.833107
592 1 0.513906 0.0785183 0.754857
615 1 0.572845 0.162252 0.744549
591 1 0.591326 1.00151 0.750689
594 1 0.758966 0.081535 0.671973
596 1 0.676184 0.0680716 0.738346
619 1 0.733879 0.163457 0.75159
761 1 0.655309 0.167913 0.825595
600 1 0.836574 0.0909605 0.741929
599 1 0.923034 0.00765611 0.741927
623 1 0.924362 0.159942 0.746176
742 1 0.921354 0.0772918 0.831054
603 1 0.0857654 0.158889 0.748043
625 1 0.0109434 0.331945 0.682274
602 1 0.0879445 0.2573 0.685079
604 1 1.00119 0.249533 0.744467
608 1 0.173177 0.236299 0.764629
627 1 0.0931264 0.326546 0.761914
607 1 0.246486 0.160957 0.768964
753 1 0.336168 0.150329 0.847193
631 1 0.2523 0.341717 0.762175
749 1 0.165984 0.16113 0.838513
612 1 0.338157 0.253391 0.760557
610 1 0.416027 0.25105 0.690838
635 1 0.413992 0.357573 0.765664
616 1 0.49545 0.27354 0.758945
614 1 0.580703 0.239182 0.670171
620 1 0.664288 0.253844 0.750939
643 1 0.747732 0.34904 0.751164
762 1 0.757226 0.234143 0.8303
785 1 0.665627 0.333482 0.83434
624 1 0.830846 0.25601 0.755873
622 1 0.909237 0.257934 0.672903
645 1 0.834741 0.342519 0.681209
647 1 0.917981 0.32933 0.767201
765 1 0.852263 0.175906 0.823386
789 1 0.838385 0.347301 0.838177
766 1 0.932848 0.252885 0.836214
769 1 0.00636122 0.333173 0.828619
626 1 0.0849951 0.417656 0.692361
770 1 0.0930792 0.430158 0.835954
657 1 0.31566 0.496921 0.67044
773 1 0.151351 0.340577 0.849996
632 1 0.1785 0.422409 0.752448
774 1 0.251848 0.398909 0.859113
636 1 0.313362 0.425401 0.750121
653 1 0.181435 0.5012 0.672774
777 1 0.340657 0.338076 0.837065
634 1 0.409269 0.437867 0.687209
659 1 0.426252 0.514985 0.765576
778 1 0.424079 0.433927 0.84995
805 1 0.497949 0.509162 0.844029
639 1 0.586218 0.335523 0.764972
661 1 0.517681 0.511552 0.666061
640 1 0.501052 0.421803 0.7531
782 1 0.575922 0.4294 0.832933
644 1 0.66461 0.429186 0.748015
809 1 0.671088 0.495371 0.826912
786 1 0.747608 0.405471 0.841877
667 1 0.75732 0.491298 0.759957
628 1 0.993004 0.42688 0.7691
648 1 0.843993 0.423333 0.761409
671 1 0.926478 0.504912 0.761459
790 1 0.912679 0.42605 0.857883
651 1 0.0804496 0.514712 0.753501
656 1 0.169208 0.590003 0.736473
652 1 0.00393385 0.588799 0.755578
797 1 0.162307 0.514987 0.846843
654 1 0.250655 0.586954 0.664728
801 1 0.329401 0.506665 0.839494
655 1 0.24809 0.506967 0.774724
679 1 0.247827 0.668908 0.740242
660 1 0.325496 0.576642 0.766921
658 1 0.410989 0.587147 0.657224
664 1 0.498157 0.586711 0.752136
662 1 0.586561 0.595579 0.660083
663 1 0.576012 0.508938 0.756687
806 1 0.577137 0.579831 0.832956
666 1 0.758998 0.586741 0.660245
668 1 0.671282 0.573988 0.750488
810 1 0.752642 0.57421 0.837871
833 1 0.668188 0.657073 0.815187
672 1 0.83612 0.563989 0.756432
813 1 0.846375 0.502707 0.844778
695 1 0.917876 0.663076 0.752791
674 1 0.0644336 0.751906 0.654414
697 1 1.00264 0.833561 0.667891
675 1 0.0869099 0.67021 0.735687
699 1 0.075046 0.851761 0.753821
841 1 0.991974 0.81953 0.834052
677 1 0.170351 0.67921 0.653833
680 1 0.162912 0.749763 0.741951
684 1 0.331056 0.744933 0.744157
683 1 0.412578 0.651967 0.749437
685 1 0.498893 0.663783 0.677644
682 1 0.419164 0.749008 0.67494
707 1 0.410219 0.836271 0.751261
829 1 0.499606 0.673829 0.837518
686 1 0.58401 0.743963 0.660913
687 1 0.58766 0.663856 0.753544
688 1 0.507364 0.744338 0.74974
691 1 0.750594 0.654217 0.755194
692 1 0.659383 0.755409 0.762887
715 1 0.746878 0.827427 0.751158
861 1 0.838231 0.843751 0.832276
694 1 0.90678 0.759915 0.672099
676 1 0.999003 0.747705 0.750384
817 1 -0.00979869 0.681977 0.845597
696 1 0.82693 0.744066 0.736909
719 1 0.911182 0.823857 0.744542
577 1 0.00784134 0.00801131 0.66966
698 1 0.0770165 0.916909 0.670806
704 1 0.167294 0.93372 0.742988
700 1 0.00106891 0.92541 0.740374
703 1 0.25877 0.838064 0.746979
846 1 0.235384 0.934379 0.825245
849 1 0.313471 0.833541 0.834806
706 1 0.426939 0.898863 0.657769
709 1 0.497206 0.825409 0.669554
853 1 0.490254 0.829646 0.832699
708 1 0.318471 0.914184 0.749474
712 1 0.510986 0.921416 0.76236
850 1 0.40655 0.91203 0.831748
733 1 0.500204 -0.0034818 0.844528
593 1 0.662655 0.986284 0.661928
711 1 0.575841 0.835098 0.734579
854 1 0.589328 0.91397 0.841122
713 1 0.662211 0.828958 0.668707
737 1 0.68103 0.000428178 0.824037
716 1 0.693748 0.92129 0.746557
595 1 0.771898 1.00822 0.746223
714 1 0.754677 0.925397 0.666607
718 1 0.925205 0.928107 0.659371
597 1 0.838805 0.996528 0.657715
720 1 0.844766 0.917851 0.747997
2 1 0.0712532 0.075606 1.00937
722 1 0.0741481 0.0901781 0.840046
724 1 -0.00642674 0.0915944 0.921874
728 1 0.16205 0.0769648 0.926568
727 1 0.240815 0.983627 0.921825
732 1 0.320628 0.0673574 0.934245
729 1 0.325955 1.00103 0.837414
730 1 0.413752 0.0517016 0.814825
736 1 0.506705 0.0896239 0.910756
731 1 0.411091 0.99714 0.90634
14 1 0.586231 0.0854971 -0.0177675
41 1 0.671899 0.170956 0.996834
734 1 0.588204 0.0841692 0.827345
759 1 0.587736 0.167171 0.921229
18 1 0.747974 0.0856515 0.983068
740 1 0.672337 0.0913646 0.901502
738 1 0.754853 0.0891638 0.830226
763 1 0.761137 0.169231 0.912749
22 1 0.919463 0.101998 1.00321
744 1 0.848141 0.0959678 0.913461
746 1 0.0785678 0.249164 0.834734
747 1 0.0963379 0.164201 0.924015
748 1 0.00896548 0.255179 0.921993
745 1 1.00268 0.162887 0.833536
751 1 0.25465 0.154223 0.921052
750 1 0.254268 0.246979 0.85437
752 1 0.170399 0.245193 0.907217
775 1 0.25001 0.321509 0.934826
756 1 0.334686 0.242753 0.929977
37 1 0.50701 0.149613 0.00127603
754 1 0.410984 0.24536 0.846242
755 1 0.407849 0.153283 0.919382
779 1 0.408217 0.323156 0.937588
758 1 0.57841 0.247446 0.827603
781 1 0.483479 0.339577 0.84097
760 1 0.501724 0.239797 0.932677
783 1 0.572696 0.335639 0.892394
764 1 0.660777 0.254882 0.912577
787 1 0.758887 0.330571 0.917627
45 1 0.833716 0.173339 0.989589
768 1 0.850394 0.252453 0.905044
767 1 0.92905 0.177019 0.916148
69 1 0.841425 0.334078 0.985914
77 1 0.158397 0.495453 0.0157711
771 1 0.0859606 0.335195 0.926646
50 1 0.083887 0.423138 0.00279135
776 1 0.15929 0.423428 0.915216
772 1 0.00609318 0.417554 0.914093
795 1 0.0712636 0.504474 0.924557
799 1 0.242046 0.500767 0.910056
780 1 0.330604 0.425188 0.921062
58 1 0.415807 0.415397 0.00739583
803 1 0.40089 0.51024 0.939222
65 1 0.661802 0.337764 0.994004
784 1 0.503382 0.414196 0.914876
62 1 0.578709 0.423856 0.990235
807 1 0.567433 0.504005 0.92301
85 1 0.494925 0.505413 0.00347525
788 1 0.675493 0.411767 0.921506
811 1 0.750605 0.504079 0.927481
792 1 0.82663 0.423303 0.922771
89 1 0.664037 0.50764 0.995527
73 1 0.990288 0.499184 0.994201
791 1 0.932956 0.337408 0.912642
70 1 0.918491 0.424526 0.995441
815 1 0.929356 0.509204 0.910306
97 1 0.997177 0.676259 -0.000361155
74 1 0.0727405 0.569035 0.017611
794 1 0.0878048 0.608666 0.816052
800 1 0.148718 0.591428 0.917615
796 1 0.0191149 0.597559 0.919896
798 1 0.235815 0.599087 0.839008
804 1 0.329394 0.585239 0.916911
823 1 0.223244 0.675786 0.919454
825 1 0.330194 0.673763 0.834862
802 1 0.407861 0.583682 0.842608
81 1 0.332083 0.505917 0.0105847
82 1 0.406665 0.598116 -0.00472202
827 1 0.423889 0.673945 0.910172
808 1 0.492822 0.589839 0.936878
86 1 0.586509 0.595248 1.00841
109 1 0.495669 0.681625 0.992399
113 1 0.675583 0.680027 1.01477
812 1 0.666704 0.577183 0.91377
90 1 0.748698 0.57193 0.00605474
835 1 0.741511 0.666581 0.921098
814 1 0.921449 0.592476 0.838693
793 1 0.0166889 0.509391 0.835283
816 1 0.850159 0.589846 0.922954
839 1 0.927886 0.667768 0.92165
837 1 0.832522 0.663125 0.831639
818 1 0.0921537 0.755424 0.825656
819 1 0.081081 0.679484 0.915102
821 1 0.167834 0.67487 0.818669
820 1 -0.00155768 0.760412 0.925686
824 1 0.160811 0.758732 0.909351
843 1 0.0825926 0.834249 0.911872
102 1 0.241001 0.755925 0.00566299
822 1 0.24627 0.744067 0.829974
847 1 0.240706 0.827072 0.918127
129 1 0.340079 0.828578 1.00113
826 1 0.39526 0.760457 0.845891
106 1 0.411643 0.74478 0.0143567
828 1 0.327208 0.752642 0.924082
832 1 0.505754 0.762931 0.92061
830 1 0.583418 0.755919 0.847847
831 1 0.581804 0.663563 0.909118
855 1 0.583788 0.849524 0.920465
836 1 0.684288 0.756955 0.908208
834 1 0.759485 0.755463 0.827382
114 1 0.757543 0.753021 0.989083
840 1 0.841961 0.746658 0.910395
117 1 0.837195 0.660358 0.0099719
118 1 0.913554 0.750153 0.00457491
838 1 0.902321 0.751472 0.822803
842 1 0.0917674 0.920546 0.838451
723 1 0.0810094 0.99437 0.929021
844 1 1.00623 0.916212 0.912518
725 1 0.150058 0.0197647 0.842249
845 1 0.18459 0.83534 0.821778
5 1 0.172578 0.00187826 -0.00107302
848 1 0.162677 0.905663 0.936629
852 1 0.330918 0.921145 0.916911
133 1 0.495329 0.832428 0.00416115
851 1 0.411124 0.83174 0.923662
130 1 0.416802 0.919853 0.995112
856 1 0.483216 0.923211 0.910091
857 1 0.665545 0.846293 0.811941
735 1 0.58209 0.0074767 0.907161
858 1 0.759279 0.916532 0.847536
137 1 0.659268 0.821402 1.00263
860 1 0.668624 0.915234 0.915042
739 1 0.751946 0.00139812 0.914641
859 1 0.766539 0.82829 0.919225
21 1 0.832067 0.0033333 0.996342
142 1 0.912938 0.916993 0.000879669
741 1 0.838063 0.00496198 0.833446
743 1 0.919493 0.0100636 0.919111
862 1 0.911795 0.927156 0.832365
863 1 0.914068 0.846362 0.918712
864 1 0.837565 0.933901 0.91623
