ITEM: TIMESTEP
12750
ITEM: NUMBER OF ATOMS
864
ITEM: BOX BOUNDS pp pp pp
0.0000000000000000e+00 3.1559999999999999e+01
0.0000000000000000e+00 3.1559999999999999e+01
0.0000000000000000e+00 3.1559999999999999e+01
ITEM: ATOMS id type xs ys zs
27 1 0.0872671 0.165749 0.0943585
101 1 0.172781 0.167818 0.172214
41 1 0.666931 0.163562 0.0157529
585 1 0.341607 0.493951 0.326272
8 1 0.167022 0.0895593 0.0920028
12 1 0.341711 0.092973 0.0735752
82 1 0.418877 0.0893868 0.187799
151 1 0.249834 0.0146147 0.430032
57 1 0.337632 0.33596 0.0118517
77 1 0.17184 0.0164474 0.17855
16 1 0.500461 0.0923988 0.0952072
20 1 0.656919 0.086535 0.0845602
25 1 0.992431 0.171084 0.000783807
24 1 0.847659 0.0793135 0.0909638
90 1 0.748831 0.0793261 0.164013
157 1 0.480591 0.0198616 0.336629
4 1 0.993358 0.0781487 0.0930186
94 1 0.926165 0.0816363 0.177099
517 1 0.513465 0.493755 0.191034
61 1 0.51116 0.344533 0.0164356
581 1 0.169169 0.495685 0.352146
32 1 0.15775 0.25107 0.0816508
66 1 0.748273 0.414618 0.0147296
31 1 0.250953 0.162184 0.0893735
2 1 0.0834105 0.080304 0.0185933
36 1 0.328681 0.256262 0.0878016
35 1 0.410158 0.172752 0.0924259
106 1 0.421731 0.255151 0.175223
109 1 0.510292 0.173387 0.177299
40 1 0.500718 0.246845 0.0896646
39 1 0.578991 0.166701 0.0800245
44 1 0.668182 0.259697 0.0896404
216 1 0.820025 0.421889 0.412229
257 1 0.67297 0.170242 0.49872
221 1 0.163803 0.0160531 0.491461
43 1 0.73742 0.175882 0.0983174
28 1 0.00630958 0.251013 0.0883771
48 1 0.838401 0.244507 0.091013
47 1 0.934983 0.166696 0.0942054
71 1 0.924866 0.331314 0.0815116
26 1 0.078268 0.252466 0.00931126
65 1 0.661327 0.337307 0.0100296
51 1 0.0896864 0.352325 0.0969717
56 1 0.167929 0.432842 0.0963298
519 1 0.592832 0.481764 0.261142
83 1 0.415151 0.00872142 0.249593
55 1 0.246534 0.330088 0.0805098
54 1 0.25157 0.426074 0.00663091
126 1 0.246704 0.424945 0.168091
58 1 0.415304 0.41235 0.00249874
59 1 0.413014 0.342536 0.0919301
133 1 0.503139 0.334966 0.166541
60 1 0.326065 0.426817 0.0789944
64 1 0.490301 0.429217 0.090515
210 1 0.740649 0.418228 0.340693
63 1 0.590565 0.335513 0.0830107
134 1 0.583122 0.399237 0.17809
68 1 0.661931 0.417004 0.0830224
67 1 0.758003 0.334726 0.0839837
72 1 0.830737 0.418468 0.0982056
137 1 0.666507 0.331004 0.167159
14 1 0.586275 0.0775507 0.00726404
147 1 0.0891495 0.0108733 0.404665
52 1 0.0127324 0.432197 0.0880522
74 1 0.0743222 0.0752634 0.176919
80 1 0.181694 0.0888924 0.268359
78 1 0.253123 0.0831471 0.169919
84 1 0.326011 0.0934366 0.270322
150 1 0.246325 0.104454 0.345595
286 1 0.908549 0.425585 0.492101
447 1 0.581096 0.484909 0.0981849
154 1 0.409785 0.0935822 0.344767
177 1 0.336319 0.174346 0.352752
6 1 0.238364 0.0851526 0.00547425
86 1 0.580252 0.0884013 0.175957
88 1 0.503133 0.106381 0.262681
158 1 0.577498 0.0944919 0.340166
521 1 0.655501 0.489272 0.174135
185 1 0.662016 0.181235 0.343096
165 1 0.828067 0.00314883 0.338972
49 1 0.00888199 0.34855 0.00996685
92 1 0.660926 0.0939474 0.254476
76 1 0.0121008 0.0896308 0.268589
96 1 0.823221 0.0857081 0.259318
593 1 0.660189 0.499 0.345901
98 1 0.0805215 0.252196 0.160141
99 1 0.0930684 0.167952 0.256194
100 1 0.992701 0.258489 0.250454
102 1 0.260732 0.243428 0.162163
103 1 0.254721 0.188385 0.253753
105 1 0.330508 0.16265 0.163379
104 1 0.166638 0.249329 0.253447
127 1 0.244999 0.342451 0.247602
173 1 0.179824 0.194925 0.352099
108 1 0.336236 0.264343 0.248672
107 1 0.413321 0.165677 0.263061
112 1 0.494076 0.24102 0.270814
131 1 0.415535 0.338409 0.24713
178 1 0.415203 0.265008 0.342705
110 1 0.579822 0.263556 0.167286
111 1 0.588952 0.182184 0.255349
116 1 0.666663 0.256291 0.244551
181 1 0.514269 0.17274 0.347924
114 1 0.752507 0.253912 0.17441
115 1 0.750632 0.163952 0.242526
113 1 0.655098 0.17078 0.170471
120 1 0.828905 0.253035 0.2391
97 1 0.0162458 0.160789 0.184297
118 1 0.915478 0.239858 0.169604
117 1 0.840471 0.148557 0.168186
119 1 0.911854 0.173055 0.244954
143 1 0.918444 0.331767 0.250179
125 1 0.168511 0.32304 0.171428
91 1 0.750003 0.0125903 0.265729
122 1 0.102899 0.416821 0.178506
123 1 0.0823148 0.325334 0.252983
124 1 0.00450514 0.417724 0.243491
128 1 0.164368 0.432423 0.262374
214 1 0.915791 0.427837 0.327762
198 1 0.250398 0.431907 0.327306
589 1 0.503084 0.493541 0.344303
129 1 0.323387 0.341825 0.15124
132 1 0.328537 0.417217 0.245326
130 1 0.418618 0.42035 0.172823
136 1 0.504899 0.407505 0.258079
135 1 0.577143 0.332188 0.254211
140 1 0.678094 0.414701 0.257827
139 1 0.756613 0.337035 0.26192
138 1 0.742537 0.410946 0.159221
144 1 0.81119 0.422146 0.250175
217 1 0.00457168 0.00272319 0.491266
215 1 0.898447 0.343607 0.427584
121 1 0.012681 0.343578 0.17005
141 1 0.840317 0.339976 0.166714
142 1 0.916307 0.420299 0.154257
18 1 0.751863 0.0810499 0.00798054
149 1 0.181599 0.0174334 0.342193
30 1 0.246481 0.238375 0.00713649
146 1 0.0918499 0.115322 0.344685
152 1 0.16965 0.11366 0.422835
95 1 0.9041 0.0165739 0.258783
11 1 0.422806 0.0120056 0.0961449
156 1 0.332249 0.0904834 0.429489
175 1 0.246883 0.191488 0.431918
167 1 0.914103 0.00520977 0.426773
160 1 0.495052 0.090775 0.423643
179 1 0.430812 0.179028 0.42225
579 1 0.0724706 0.489971 0.422891
37 1 0.491206 0.163448 0.000128085
164 1 0.657444 0.0893545 0.419563
183 1 0.587187 0.189604 0.430726
50 1 0.0940098 0.435588 0.00387543
445 1 0.500055 0.49769 0.000355487
163 1 0.742081 0.00806315 0.433616
162 1 0.733245 0.1001 0.345414
449 1 0.668512 0.496672 0.0176952
75 1 0.0819854 0.00350219 0.267181
196 1 0.983245 0.417385 0.411979
62 1 0.581955 0.428868 0.00206698
148 1 0.00331266 0.100218 0.427125
168 1 0.826998 0.0768191 0.425518
166 1 0.898444 0.0921001 0.339026
169 1 0.982592 0.160619 0.335406
170 1 0.065071 0.244918 0.32336
171 1 0.0764925 0.185206 0.413026
172 1 0.983808 0.25109 0.419218
197 1 0.154233 0.341063 0.341649
53 1 0.144827 0.342701 0.00378064
176 1 0.16967 0.264957 0.432851
174 1 0.245918 0.277699 0.347529
199 1 0.25433 0.339032 0.439212
42 1 0.749288 0.246221 0.00361928
201 1 0.330911 0.346898 0.334874
180 1 0.341716 0.264378 0.419441
184 1 0.49953 0.252676 0.425905
182 1 0.588021 0.259364 0.335612
188 1 0.676194 0.251744 0.421731
583 1 0.26192 0.489361 0.432747
186 1 0.751875 0.252023 0.328602
213 1 0.83005 0.337486 0.335994
187 1 0.756826 0.16252 0.423932
189 1 0.83903 0.178788 0.320221
192 1 0.845357 0.249163 0.425127
190 1 0.903915 0.263756 0.342136
191 1 0.911887 0.165725 0.416656
195 1 0.067876 0.323342 0.417984
193 1 0.991848 0.332653 0.336404
194 1 0.070046 0.416481 0.339034
200 1 0.173123 0.420832 0.437256
79 1 0.260845 0.00850933 0.260236
203 1 0.426942 0.333731 0.420634
5 1 0.153447 0.00853503 0.0133008
13 1 0.498333 0.000120862 0.0154737
202 1 0.429967 0.414822 0.321033
208 1 0.50077 0.419399 0.416553
204 1 0.34641 0.417557 0.428322
45 1 0.828513 0.15737 0.00859568
207 1 0.578861 0.33056 0.434643
661 1 0.502775 0.487517 0.499234
205 1 0.508991 0.328748 0.325623
212 1 0.669634 0.404597 0.421275
29 1 0.167639 0.166682 0.00367156
206 1 0.57914 0.407574 0.346062
209 1 0.674149 0.327469 0.325039
87 1 0.575497 0.0101918 0.254791
7 1 0.25689 0.00757892 0.0789829
211 1 0.760344 0.318288 0.410408
1 1 0.00660853 0.00747007 0.0133334
19 1 0.772436 0.00186867 0.0874598
33 1 0.319555 0.169661 0.00269762
513 1 0.325866 0.496697 0.162609
218 1 0.0887605 0.0978411 0.499628
70 1 0.921773 0.417613 0.00150143
159 1 0.579479 0.012433 0.422093
85 1 0.509619 0.0092688 0.166888
153 1 0.331046 0.0156777 0.353442
145 1 0.983271 0.00519262 0.333989
38 1 0.575934 0.254815 0.00826936
285 1 0.817453 0.339594 0.496352
93 1 0.832339 0.00357286 0.176195
258 1 0.769249 0.237839 0.498089
34 1 0.415686 0.264699 0.0209779
161 1 0.660199 0.00730541 0.349427
22 1 0.929758 0.0888689 0.00360999
220 1 0.00969943 0.0889499 0.58068
290 1 0.0998062 0.0959105 0.661695
317 1 0.165706 0.177149 0.675115
309 1 0.843677 0.00470202 0.665681
224 1 0.161451 0.0985905 0.575758
228 1 0.321539 0.0837588 0.586528
294 1 0.231616 0.0857621 0.666241
423 1 0.588823 0.345909 0.921684
232 1 0.513071 0.0933389 0.592373
250 1 0.398437 0.260648 0.513247
297 1 0.32834 0.0150468 0.672951
251 1 0.419101 0.166586 0.588375
663 1 0.569124 0.492576 0.59736
295 1 0.238947 0.013814 0.745964
302 1 0.577102 0.0802869 0.688822
293 1 0.169908 0.00797289 0.663544
236 1 0.668569 0.10285 0.580664
255 1 0.581238 0.177711 0.588271
305 1 0.656387 0.00861901 0.667951
259 1 0.7578 0.170625 0.582026
306 1 0.763846 0.0995074 0.669378
235 1 0.745147 0.0126582 0.595098
240 1 0.838494 0.0877351 0.59076
282 1 0.749677 0.428017 0.501335
310 1 0.909556 0.090583 0.665924
379 1 0.754904 0.00381498 0.908282
269 1 0.177076 0.336251 0.515594
665 1 0.66825 0.492588 0.516101
243 1 0.0708501 0.183099 0.588505
244 1 0.995905 0.262995 0.582517
248 1 0.166107 0.25586 0.604194
10 1 0.411126 0.0912644 0.993836
277 1 0.503387 0.332016 0.507476
428 1 0.664233 0.429216 0.926497
247 1 0.23603 0.176389 0.579732
252 1 0.321059 0.243715 0.590377
813 1 0.828608 0.498061 0.839319
271 1 0.254852 0.343565 0.58956
274 1 0.428169 0.406042 0.509439
275 1 0.413332 0.338921 0.593374
345 1 0.320767 0.327973 0.669922
256 1 0.507059 0.254516 0.605113
279 1 0.591296 0.353745 0.592025
260 1 0.701293 0.254953 0.577552
329 1 0.678176 0.187876 0.672841
723 1 0.0758575 0.499182 0.758516
254 1 0.587764 0.258907 0.519105
231 1 0.581697 0.000355557 0.576996
261 1 0.847951 0.161347 0.503855
230 1 0.583369 0.109582 0.505425
263 1 0.915029 0.177353 0.586033
264 1 0.83755 0.267544 0.590347
287 1 0.90423 0.357911 0.582282
262 1 0.910375 0.269012 0.511251
249 1 0.331097 0.160619 0.503154
267 1 0.090721 0.329314 0.598231
268 1 0.00844734 0.423942 0.597788
432 1 0.83296 0.425684 0.929121
338 1 0.0862244 0.423948 0.682449
363 1 0.0815548 0.00387679 0.926634
265 1 0.991176 0.347755 0.510515
272 1 0.169652 0.413464 0.604151
342 1 0.260603 0.422537 0.689962
365 1 0.163957 0.00799824 0.831275
657 1 0.342974 0.493927 0.520504
276 1 0.335192 0.425517 0.609572
233 1 0.662297 0.0137911 0.510881
245 1 0.151896 0.190108 0.507397
273 1 0.334802 0.35356 0.517675
373 1 0.510267 0.000278026 0.833753
280 1 0.495165 0.420973 0.609332
241 1 0.996591 0.177158 0.50423
219 1 0.0889129 0.00851527 0.573946
284 1 0.679843 0.422827 0.598904
283 1 0.763559 0.34545 0.593583
288 1 0.827454 0.442862 0.571296
226 1 0.426659 0.0972043 0.510836
358 1 0.916419 0.418183 0.668143
229 1 0.49123 0.0125974 0.502518
362 1 0.0850984 0.0774542 0.826966
651 1 0.0845808 0.498667 0.595789
296 1 0.176193 0.0928458 0.761018
300 1 0.338538 0.0805646 0.764348
289 1 0.990764 0.0114467 0.675971
319 1 0.261164 0.16666 0.757659
298 1 0.426609 0.0875182 0.677334
304 1 0.499833 0.0868885 0.766873
323 1 0.416027 0.15547 0.760064
397 1 0.497116 0.167844 0.849659
374 1 0.596513 0.0867697 0.819194
327 1 0.595032 0.184404 0.752474
401 1 0.669766 0.180137 0.84369
311 1 0.903261 0.00210089 0.754119
234 1 0.746213 0.0923997 0.507747
308 1 0.677276 0.0916575 0.746884
378 1 0.759356 0.0820131 0.834158
281 1 0.674744 0.341509 0.515497
292 1 0.00426343 0.07999 0.756183
238 1 0.917797 0.0911227 0.516433
312 1 0.822551 0.0983838 0.752462
314 1 0.0849044 0.254611 0.672532
315 1 0.087809 0.162479 0.752896
320 1 0.16459 0.249332 0.75907
318 1 0.242607 0.258594 0.683558
324 1 0.332665 0.242459 0.7536
390 1 0.243051 0.249646 0.835849
393 1 0.342776 0.191091 0.851249
321 1 0.331058 0.145554 0.663141
322 1 0.410424 0.240279 0.677812
328 1 0.504936 0.260413 0.761729
347 1 0.413678 0.340479 0.762986
325 1 0.499533 0.170535 0.684109
326 1 0.585447 0.275179 0.673124
332 1 0.677826 0.265568 0.761219
349 1 0.49424 0.33141 0.676938
351 1 0.579364 0.33499 0.761721
330 1 0.769286 0.265052 0.682816
331 1 0.767977 0.190757 0.769683
333 1 0.83339 0.183188 0.666386
402 1 0.745961 0.254059 0.84688
334 1 0.922642 0.24863 0.668112
313 1 0.00310733 0.168178 0.680099
335 1 0.914466 0.167559 0.752707
336 1 0.849333 0.267074 0.754248
316 1 0.984505 0.239095 0.755363
405 1 0.837589 0.184621 0.84351
339 1 0.0854605 0.326786 0.754639
409 1 0.00491829 0.340706 0.827777
343 1 0.246864 0.336312 0.773325
341 1 0.163613 0.340866 0.686257
344 1 0.157544 0.422387 0.767873
348 1 0.330701 0.421088 0.775254
417 1 0.330027 0.332047 0.842604
414 1 0.246053 0.428215 0.839111
346 1 0.415817 0.42509 0.683097
418 1 0.409697 0.419783 0.845396
270 1 0.257809 0.425804 0.526911
350 1 0.576041 0.414975 0.679872
353 1 0.673729 0.3557 0.673815
352 1 0.489813 0.423355 0.764378
356 1 0.652176 0.427224 0.766144
426 1 0.743311 0.424591 0.848616
354 1 0.772717 0.428486 0.66468
355 1 0.748246 0.35485 0.75334
429 1 0.825675 0.340855 0.838217
227 1 0.414214 0.0161997 0.585249
357 1 0.845711 0.336275 0.678859
337 1 0.00211718 0.333238 0.669406
359 1 0.924128 0.350017 0.756891
340 1 0.996779 0.423432 0.757325
360 1 0.830493 0.422365 0.747605
278 1 0.587663 0.416084 0.503071
266 1 0.085715 0.420525 0.512842
389 1 0.161737 0.168244 0.831562
246 1 0.26339 0.255707 0.509823
367 1 0.250404 0.00961343 0.924721
368 1 0.15323 0.0901942 0.92047
366 1 0.252946 0.0899061 0.839822
372 1 0.33012 0.0779295 0.926669
427 1 0.73113 0.329208 0.92969
737 1 0.661772 0.492386 0.682046
291 1 0.090856 0.00977562 0.735999
370 1 0.416734 0.0904733 0.846824
376 1 0.493432 0.0664047 0.9181
395 1 0.417175 0.182777 0.922137
239 1 0.929414 0.0138821 0.589049
242 1 0.0730206 0.264171 0.509915
299 1 0.415345 0.00501118 0.757172
430 1 0.916003 0.418341 0.844943
69 1 0.819389 0.326594 0.985048
380 1 0.676108 0.0792719 0.91757
384 1 0.833548 0.0925508 0.924117
649 1 0.985853 0.496772 0.506102
225 1 0.3381 3.84434e-05 0.504279
46 1 0.904459 0.250479 0.994869
364 1 0.00651575 0.0883922 0.924885
382 1 0.911681 0.090313 0.836955
222 1 0.239813 0.0985861 0.503342
387 1 0.0866728 0.177894 0.927787
386 1 0.0685681 0.247012 0.830206
392 1 0.169458 0.253203 0.923384
388 1 0.00205995 0.246641 0.921088
431 1 0.92479 0.337444 0.924263
391 1 0.250352 0.161265 0.919665
396 1 0.322205 0.252321 0.932406
237 1 0.826764 0.0123502 0.508386
381 1 0.835768 0.00584579 0.839473
394 1 0.422271 0.257637 0.840471
399 1 0.580985 0.168122 0.915276
400 1 0.499855 0.258168 0.927579
398 1 0.565065 0.25765 0.84589
253 1 0.493312 0.181983 0.514162
377 1 0.67129 0.00926706 0.835994
403 1 0.741583 0.16479 0.925405
404 1 0.663603 0.241274 0.924512
408 1 0.820742 0.251328 0.921152
385 1 0.999385 0.164666 0.840303
406 1 0.91149 0.268403 0.838356
407 1 0.919614 0.169052 0.914183
412 1 0.996218 0.41766 0.926885
411 1 0.0677972 0.326749 0.911149
410 1 0.0671667 0.421294 0.834635
420 1 0.324027 0.420297 0.918136
415 1 0.235311 0.335258 0.919235
413 1 0.155903 0.337479 0.846088
416 1 0.177167 0.423767 0.921315
383 1 0.920298 0.0119366 0.921478
419 1 0.416787 0.337326 0.923975
424 1 0.489111 0.424303 0.922167
421 1 0.493507 0.329975 0.838362
422 1 0.566013 0.419105 0.845505
425 1 0.66031 0.348639 0.841369
655 1 0.249608 0.498237 0.59954
440 1 0.176064 0.592693 0.0858731
642 1 0.737143 0.931051 0.339627
591 1 0.591208 0.504475 0.426416
444 1 0.331378 0.612584 0.0770326
494 1 0.581709 0.916447 0.00129877
89 1 0.655538 0.997074 0.161716
599 1 0.903073 0.518712 0.416715
451 1 0.740578 0.503389 0.0965092
448 1 0.499347 0.577839 0.0862753
634 1 0.408246 0.922207 0.330154
514 1 0.429774 0.586715 0.167442
587 1 0.426353 0.508004 0.405399
452 1 0.658945 0.586799 0.0754747
515 1 0.41924 0.501267 0.249885
518 1 0.579878 0.576862 0.156444
595 1 0.754694 0.508655 0.423615
522 1 0.732998 0.592508 0.16804
698 1 0.0862545 0.933896 0.492397
458 1 0.0761448 0.758811 0.0141884
478 1 0.910852 0.755423 0.0105864
456 1 0.844276 0.600514 0.0833083
436 1 0.000146882 0.599829 0.0855805
648 1 0.834869 0.92784 0.41384
457 1 0.0104678 0.675467 0.000581046
636 1 0.325611 0.913296 0.421775
459 1 0.0760295 0.673683 0.0902515
455 1 0.920307 0.51021 0.0899738
533 1 0.169672 0.672902 0.176229
530 1 0.086428 0.745051 0.186385
557 1 0.167793 0.830646 0.184715
464 1 0.163697 0.760072 0.0940691
463 1 0.241854 0.676452 0.0814608
487 1 0.244937 0.833652 0.0940656
497 1 0.672693 0.84746 0.00233268
453 1 0.82226 0.504814 0.0166685
468 1 0.327682 0.744001 0.0807933
467 1 0.425248 0.672551 0.0880634
472 1 0.500152 0.757733 0.0775542
489 1 0.341748 0.831665 0.0199271
471 1 0.593413 0.683499 0.0700268
476 1 0.675706 0.758476 0.077057
685 1 0.483493 0.671297 0.496996
507 1 0.0761579 0.509026 0.264366
511 1 0.248554 0.508122 0.242822
475 1 0.746961 0.682476 0.0787052
499 1 0.76387 0.834412 0.0809129
3 1 0.0807665 0.99286 0.102698
597 1 0.827377 0.502865 0.340295
73 1 0.995255 0.996705 0.195427
480 1 0.838838 0.757261 0.091729
460 1 0.00338148 0.764587 0.0917991
479 1 0.918105 0.678812 0.0861167
483 1 0.0966134 0.846111 0.0815052
488 1 0.177294 0.924896 0.0996534
484 1 0.991007 0.916001 0.0972485
553 1 0.0102603 0.82943 0.187244
644 1 0.664776 0.927896 0.423037
577 1 0.983308 0.513283 0.333006
638 1 0.587916 0.912106 0.348258
81 1 0.330012 0.999235 0.167764
710 1 0.573057 0.929374 0.497333
635 1 0.416767 0.82362 0.412057
646 1 0.903199 0.924348 0.335966
492 1 0.337205 0.908143 0.101026
491 1 0.419384 0.83939 0.0956179
562 1 0.419301 0.918627 0.179684
454 1 0.913904 0.584871 0.00835845
501 1 0.854158 0.848766 0.00162908
496 1 0.494521 0.92035 0.0895329
495 1 0.586129 0.8404 0.0740139
566 1 0.590281 0.923394 0.160534
486 1 0.249068 0.930878 0.00584632
466 1 0.417266 0.745006 0.00700745
442 1 0.417802 0.584168 0.00927973
23 1 0.909314 0.994901 0.097617
500 1 0.686187 0.915538 0.0834414
504 1 0.82889 0.918842 0.0809702
469 1 0.506423 0.659793 0.00561051
503 1 0.908212 0.840169 0.103769
574 1 0.918938 0.923317 0.196808
682 1 0.409355 0.767244 0.494731
506 1 0.079851 0.590202 0.184755
435 1 0.0920852 0.524704 0.0836575
512 1 0.183809 0.599525 0.252093
508 1 0.993224 0.59101 0.261159
510 1 0.257164 0.595461 0.161976
516 1 0.336557 0.58337 0.230043
485 1 0.169401 0.839849 0.00300733
541 1 0.510077 0.668949 0.162412
539 1 0.421179 0.670417 0.246589
481 1 0.988314 0.846896 0.0145867
17 1 0.673912 0.998515 0.00447899
520 1 0.517122 0.580018 0.247991
524 1 0.664019 0.565479 0.252462
523 1 0.756137 0.524625 0.25739
505 1 0.00761361 0.509062 0.175122
528 1 0.835141 0.593397 0.250484
594 1 0.740887 0.599474 0.335347
450 1 0.740899 0.591711 0.00606223
697 1 0.00463585 0.830617 0.494437
526 1 0.912862 0.591887 0.160709
551 1 0.920799 0.662774 0.244342
531 1 0.0835125 0.662215 0.258339
602 1 0.0880747 0.743524 0.344737
532 1 0.995676 0.750911 0.248541
534 1 0.249995 0.745903 0.177338
537 1 0.339853 0.682138 0.174977
605 1 0.17704 0.657547 0.351633
536 1 0.157895 0.754419 0.256689
535 1 0.267223 0.679669 0.254329
540 1 0.341242 0.745749 0.289147
538 1 0.425679 0.755755 0.1653
563 1 0.421637 0.840005 0.250026
609 1 0.346984 0.634587 0.329484
544 1 0.499045 0.753618 0.238154
543 1 0.578455 0.659685 0.257682
542 1 0.58691 0.739494 0.180093
548 1 0.664533 0.766858 0.262849
545 1 0.670798 0.672294 0.154891
547 1 0.733645 0.675616 0.255265
546 1 0.740994 0.761728 0.174309
571 1 0.740558 0.84898 0.259673
618 1 0.74404 0.754915 0.328073
529 1 0.997947 0.683189 0.170926
549 1 0.819774 0.665538 0.175711
552 1 0.817313 0.757859 0.247363
550 1 0.915268 0.747969 0.176162
622 1 0.896517 0.748887 0.324823
690 1 0.755473 0.754591 0.495637
702 1 0.249821 0.922866 0.487045
555 1 0.0815334 0.834396 0.262535
554 1 0.0859039 0.90045 0.166643
560 1 0.165722 0.932348 0.250147
527 1 0.92452 0.505344 0.237121
558 1 0.258705 0.916118 0.185641
559 1 0.254714 0.826869 0.263539
678 1 0.254975 0.745695 0.490067
561 1 0.334832 0.823814 0.179273
433 1 0.998096 0.503939 0.0115084
564 1 0.339891 0.926861 0.251958
568 1 0.497074 0.921127 0.262423
565 1 0.516504 0.83199 0.161007
567 1 0.587636 0.842315 0.236658
637 1 0.511139 0.837488 0.34366
569 1 0.667631 0.841089 0.159943
570 1 0.747685 0.927209 0.176276
572 1 0.656495 0.937884 0.248285
645 1 0.82726 0.835859 0.34438
573 1 0.831125 0.854938 0.183008
556 1 0.000965243 0.912225 0.268755
576 1 0.812937 0.917584 0.260837
575 1 0.91186 0.837616 0.264271
525 1 0.823305 0.509652 0.174405
578 1 0.0973699 0.582307 0.3327
584 1 0.161425 0.572894 0.426888
580 1 0.995719 0.582361 0.417516
582 1 0.2646 0.567802 0.334689
640 1 0.495986 0.917526 0.419755
639 1 0.590244 0.841772 0.421429
628 1 0.997076 0.918624 0.415778
439 1 0.245613 0.510437 0.0878549
588 1 0.331252 0.568362 0.432849
586 1 0.436985 0.578142 0.315295
592 1 0.490406 0.587853 0.417205
590 1 0.575544 0.584902 0.346509
617 1 0.65799 0.671602 0.330908
621 1 0.815092 0.674553 0.316878
596 1 0.670424 0.582519 0.41905
600 1 0.832092 0.605268 0.402023
633 1 0.34126 0.836821 0.330243
490 1 0.42504 0.922212 0.00536557
706 1 0.423478 0.912095 0.495153
598 1 0.91186 0.592756 0.330754
461 1 0.149255 0.665484 0.00451852
625 1 0.00253099 0.827954 0.338151
603 1 0.0903276 0.653916 0.423048
608 1 0.178881 0.760709 0.429104
601 1 0.993687 0.67839 0.349633
604 1 0.990655 0.746586 0.42955
606 1 0.242972 0.746222 0.339064
607 1 0.259447 0.644557 0.423638
631 1 0.253435 0.836552 0.403724
610 1 0.438226 0.748683 0.328779
612 1 0.326294 0.738746 0.409433
611 1 0.40357 0.662362 0.419642
616 1 0.507023 0.759162 0.437915
614 1 0.585052 0.749796 0.34202
615 1 0.588751 0.666894 0.421685
613 1 0.503552 0.663401 0.337288
620 1 0.665798 0.755174 0.419452
509 1 0.169916 0.506296 0.175571
641 1 0.666936 0.843912 0.342297
643 1 0.744479 0.845628 0.426632
619 1 0.751217 0.675562 0.416433
624 1 0.82577 0.753396 0.417541
647 1 0.923306 0.833395 0.404579
623 1 0.916671 0.668434 0.438062
626 1 0.0839502 0.918725 0.341809
629 1 0.167906 0.844697 0.333341
627 1 0.0937605 0.844373 0.414503
502 1 0.920737 0.928363 0.00906233
630 1 0.254097 0.932301 0.347322
632 1 0.161131 0.920281 0.412502
443 1 0.410242 0.506677 0.0894233
677 1 0.166321 0.667912 0.494772
681 1 0.331869 0.665114 0.496426
9 1 0.337081 0.98613 0.0236198
674 1 0.090445 0.742279 0.495975
15 1 0.57751 0.998187 0.0852455
155 1 0.418534 0.993066 0.430335
438 1 0.257195 0.613964 0.000541911
656 1 0.172223 0.590015 0.579188
864 1 0.832763 0.915272 0.906983
498 1 0.76519 0.917091 0.99698
863 1 0.913051 0.843355 0.918561
739 1 0.756084 0.508397 0.754066
660 1 0.323143 0.578298 0.579447
730 1 0.418608 0.584273 0.686218
701 1 0.170806 0.848171 0.513658
860 1 0.684824 0.923973 0.926942
664 1 0.510104 0.591517 0.590148
668 1 0.66173 0.594036 0.585126
669 1 0.838001 0.518045 0.506949
717 1 0.836486 0.839979 0.504338
670 1 0.911865 0.59009 0.504381
738 1 0.744518 0.586022 0.677921
672 1 0.826119 0.590653 0.593664
666 1 0.747374 0.590667 0.512701
811 1 0.742241 0.504049 0.935781
652 1 0.0139671 0.572681 0.581968
742 1 0.916375 0.580427 0.672222
689 1 0.677594 0.687904 0.505148
735 1 0.575738 0.507711 0.76003
803 1 0.405183 0.503586 0.922144
797 1 0.153325 0.507493 0.842094
675 1 0.0852551 0.668684 0.581215
676 1 0.00443992 0.751679 0.573757
680 1 0.172502 0.753577 0.577447
699 1 0.0864614 0.826946 0.575265
773 1 0.16226 0.833775 0.668643
679 1 0.249964 0.670344 0.582495
684 1 0.340716 0.762828 0.576373
801 1 0.321275 0.519378 0.861047
855 1 0.583224 0.840306 0.919743
683 1 0.405572 0.660089 0.575606
707 1 0.417394 0.831468 0.584552
688 1 0.498785 0.735797 0.591425
754 1 0.421575 0.768928 0.667262
303 1 0.585921 0.996341 0.754542
686 1 0.585509 0.747973 0.502112
687 1 0.586699 0.676048 0.584516
761 1 0.658424 0.667249 0.674516
692 1 0.672778 0.759818 0.585873
727 1 0.260709 0.512018 0.759446
371 1 0.412951 0.997021 0.926902
691 1 0.755783 0.674392 0.594003
715 1 0.762735 0.827704 0.574545
762 1 0.750957 0.757811 0.662626
696 1 0.838058 0.751499 0.589334
695 1 0.922136 0.656189 0.594177
805 1 0.494223 0.501592 0.84664
673 1 0.000450891 0.651275 0.502779
719 1 0.917518 0.844223 0.585088
765 1 0.838222 0.682732 0.664094
766 1 0.932593 0.763035 0.658364
859 1 0.756263 0.828602 0.922084
770 1 0.070165 0.927922 0.659039
441 1 0.320848 0.516494 0.99345
369 1 0.328359 0.988763 0.845283
703 1 0.250148 0.846893 0.583749
704 1 0.166547 0.926689 0.589277
705 1 0.322598 0.836207 0.50724
473 1 0.66318 0.675904 0.990552
708 1 0.334312 0.921224 0.578588
778 1 0.415872 0.915627 0.676291
711 1 0.596993 0.848285 0.574269
712 1 0.503342 0.927498 0.586608
782 1 0.581476 0.918469 0.665503
731 1 0.396303 0.515135 0.776606
789 1 0.838556 0.830391 0.665872
716 1 0.678865 0.926235 0.579932
786 1 0.752945 0.910105 0.680164
700 1 0.00342993 0.918409 0.570634
720 1 0.827368 0.931489 0.596085
446 1 0.582593 0.57959 0.997991
790 1 0.92209 0.926868 0.669197
493 1 0.499397 0.840885 0.998576
722 1 0.0803475 0.588473 0.670997
724 1 0.99865 0.6026 0.759538
709 1 0.498237 0.834865 0.508354
726 1 0.257053 0.590575 0.670613
728 1 0.155683 0.589427 0.750357
732 1 0.326698 0.59654 0.765961
482 1 0.0807947 0.910423 0.997986
462 1 0.254648 0.781459 0.992294
671 1 0.922867 0.51322 0.587536
736 1 0.480078 0.58733 0.763765
755 1 0.428636 0.684816 0.739547
802 1 0.410878 0.59575 0.839939
734 1 0.59588 0.581898 0.668133
474 1 0.752936 0.75391 0.991027
806 1 0.574757 0.590461 0.834491
718 1 0.909159 0.924707 0.512196
740 1 0.667086 0.584247 0.757742
744 1 0.830936 0.588215 0.748197
743 1 0.915822 0.505322 0.762102
793 1 0.993346 0.501991 0.846955
795 1 0.0767236 0.508407 0.917046
749 1 0.169582 0.67209 0.659672
747 1 0.091175 0.682055 0.74708
746 1 0.0801361 0.747917 0.666458
745 1 0.994036 0.674023 0.673163
752 1 0.175674 0.761341 0.751487
753 1 0.335538 0.667028 0.667819
750 1 0.24919 0.775463 0.66227
751 1 0.265645 0.687766 0.741555
757 1 0.517454 0.678516 0.677945
756 1 0.335899 0.762064 0.744537
760 1 0.502807 0.770336 0.759558
781 1 0.500779 0.838359 0.675902
759 1 0.590882 0.67373 0.752016
758 1 0.587663 0.768361 0.683262
764 1 0.671962 0.755325 0.744011
857 1 0.672982 0.841006 0.855646
763 1 0.752947 0.670339 0.743555
767 1 0.912588 0.664184 0.741149
768 1 0.855519 0.751904 0.75321
748 1 0.997552 0.756281 0.746127
771 1 0.0796588 0.83105 0.744145
477 1 0.842218 0.667219 0.995899
841 1 0.999488 0.839791 0.830362
733 1 0.493092 0.504361 0.68316
775 1 0.243765 0.8492 0.743422
776 1 0.166626 0.926605 0.754345
774 1 0.242495 0.926636 0.664398
713 1 0.66804 0.8461 0.502345
846 1 0.241808 0.918279 0.828926
777 1 0.334167 0.847213 0.663138
779 1 0.412561 0.834906 0.771393
780 1 0.336083 0.912847 0.7471
799 1 0.235518 0.523436 0.914284
784 1 0.504906 0.903118 0.759732
854 1 0.582998 0.923112 0.837358
783 1 0.595247 0.834047 0.777512
858 1 0.751395 0.911901 0.841383
785 1 0.659826 0.846161 0.669968
788 1 0.676573 0.910739 0.766961
787 1 0.757663 0.832525 0.756887
791 1 0.919276 0.843644 0.750676
769 1 0.00778608 0.843137 0.667017
772 1 0.998554 0.93326 0.753938
792 1 0.839466 0.914933 0.753126
861 1 0.831956 0.838523 0.829334
862 1 0.913799 0.920362 0.836618
815 1 0.913116 0.508146 0.931976
794 1 0.0788338 0.585735 0.846909
809 1 0.651363 0.513704 0.841941
725 1 0.167798 0.502827 0.675249
800 1 0.170446 0.597378 0.912486
798 1 0.234376 0.598473 0.822757
650 1 0.0805232 0.561822 0.502011
804 1 0.324958 0.61043 0.91176
808 1 0.502925 0.597517 0.922962
714 1 0.762771 0.918957 0.51401
658 1 0.42154 0.566382 0.502024
856 1 0.494545 0.925086 0.918483
812 1 0.665657 0.582391 0.920072
667 1 0.736738 0.514376 0.597261
810 1 0.747365 0.588928 0.841541
833 1 0.681401 0.667149 0.835253
814 1 0.904131 0.581647 0.839813
816 1 0.82351 0.581032 0.918893
662 1 0.569 0.576634 0.509928
796 1 0.992372 0.586681 0.920619
819 1 0.0874756 0.680099 0.908167
818 1 0.0822959 0.76818 0.83301
824 1 0.174579 0.760126 0.920207
821 1 0.163935 0.682 0.81765
823 1 0.248187 0.685476 0.906028
822 1 0.256186 0.76707 0.83038
827 1 0.423955 0.666505 0.927667
829 1 0.506805 0.67093 0.837958
825 1 0.345757 0.684089 0.827869
828 1 0.345484 0.750375 0.912789
826 1 0.432218 0.75297 0.845165
832 1 0.499646 0.748649 0.928938
830 1 0.590071 0.757089 0.847577
831 1 0.591173 0.666003 0.914075
836 1 0.66777 0.753032 0.923558
223 1 0.248454 0.996703 0.57917
834 1 0.759376 0.750549 0.821599
835 1 0.756892 0.670195 0.928
840 1 0.842902 0.751303 0.931618
817 1 0.991297 0.671291 0.844569
837 1 0.847614 0.680002 0.846662
839 1 0.924051 0.684809 0.929367
838 1 0.928523 0.754086 0.838312
820 1 0.00345967 0.758354 0.924444
721 1 0.987367 0.505658 0.670339
844 1 0.994105 0.92572 0.929996
301 1 0.497686 0.998343 0.686111
843 1 0.084814 0.827381 0.926507
842 1 0.0814464 0.915601 0.834014
845 1 0.157334 0.85071 0.825579
729 1 0.344212 0.511504 0.667704
848 1 0.155432 0.928884 0.924245
847 1 0.237033 0.859562 0.922102
849 1 0.323472 0.841696 0.828225
852 1 0.330967 0.92483 0.929482
850 1 0.420039 0.918968 0.839313
851 1 0.416289 0.839958 0.915062
853 1 0.498189 0.843895 0.850253
470 1 0.59432 0.762696 0.990426
361 1 0.00747472 0.997291 0.840484
465 1 0.337077 0.675985 0.993418
693 1 0.825108 0.673129 0.503644
741 1 0.836851 0.508304 0.668516
659 1 0.428619 0.509888 0.586513
434 1 0.0842121 0.588215 0.99729
307 1 0.765372 0.988367 0.742394
694 1 0.919152 0.767994 0.501326
654 1 0.244104 0.573938 0.508413
653 1 0.169602 0.500299 0.513758
21 1 0.839699 0.999783 0.993502
437 1 0.16995 0.512596 0.998898
375 1 0.585931 0.999907 0.923617
807 1 0.572866 0.509251 0.91455
