ITEM: TIMESTEP
5500
ITEM: NUMBER OF ATOMS
864
ITEM: BOX BOUNDS pp pp pp
0.0000000000000000e+00 3.1559999999999999e+01
0.0000000000000000e+00 3.1559999999999999e+01
0.0000000000000000e+00 3.1559999999999999e+01
ITEM: ATOMS id type xs ys zs
4 1 -0.0117296 0.0742111 0.0719694
2 1 0.0846699 0.0796413 -0.0120507
8 1 0.170205 0.072779 0.0722753
146 1 0.0879723 0.0833867 0.156228
149 1 0.162128 0.993255 0.161105
7 1 0.240697 0.977066 0.0913512
31 1 0.245658 0.159971 0.0786477
12 1 0.322534 0.07149 0.0682214
150 1 0.243682 0.0761168 0.160288
6 1 0.248032 0.0657484 0.990319
10 1 0.418957 0.0846932 0.00382941
16 1 0.506332 0.0836258 0.0922597
11 1 0.396568 0.993843 0.104806
33 1 0.324484 0.164874 -0.0178944
15 1 0.580579 0.986678 0.0862862
39 1 0.574472 0.158786 0.0758699
14 1 0.583379 0.0765328 0.999595
20 1 0.663882 0.0637947 0.0696992
24 1 0.842383 0.073047 0.080403
43 1 0.752718 0.15103 0.0812127
162 1 0.751413 0.0770844 0.157239
41 1 0.678636 0.166693 1.00641
165 1 0.819033 0.994089 0.164497
166 1 0.923804 0.077121 0.161779
27 1 0.0812435 0.152764 0.0715047
51 1 0.0781128 0.335596 0.0719349
32 1 0.16069 0.25293 0.0701733
170 1 0.0819477 0.26257 0.155222
173 1 0.150339 0.172018 0.156353
174 1 0.238291 0.251372 0.183452
197 1 0.180574 0.343151 0.177339
55 1 0.250967 0.325141 0.0735615
35 1 0.411467 0.171036 0.0895833
36 1 0.332839 0.239375 0.0739033
177 1 0.322276 0.169822 0.156606
178 1 0.417118 0.258805 0.171364
205 1 0.49732 0.315907 0.168077
40 1 0.50745 0.239507 0.0773183
44 1 0.676923 0.243738 0.0868523
63 1 0.578025 0.350191 0.076467
209 1 0.660273 0.32405 0.148925
37 1 0.492037 0.168949 1.00183
67 1 0.750057 0.322167 0.0769555
185 1 0.671828 0.159342 0.15843
169 1 1.01712 0.158522 0.164907
48 1 0.830134 0.239688 0.0814317
28 1 0.00452368 0.23552 0.0851422
47 1 0.915952 0.160457 0.0883072
190 1 0.928451 0.250232 0.166933
193 1 0.0104887 0.331256 0.181425
75 1 0.0740971 0.494896 0.0832148
52 1 0.992486 0.409649 0.079262
73 1 0.996108 0.50193 0.991633
50 1 0.0807971 0.424051 1.00829
77 1 0.169701 0.503272 0.0159132
56 1 0.180638 0.395454 0.086805
54 1 0.242908 0.418735 0.00648488
59 1 0.41678 0.320124 0.0780134
60 1 0.330531 0.40011 0.0831948
83 1 0.409125 0.499047 0.096992
58 1 0.408932 0.429732 0.00396805
64 1 0.488094 0.425741 0.0764252
87 1 0.584695 0.506322 0.0879381
229 1 0.503137 0.495919 0.17341
206 1 0.595522 0.430118 0.165656
68 1 0.66739 0.425295 0.0929342
72 1 0.831278 0.4233 0.0850939
91 1 0.755828 0.515556 0.0862531
210 1 0.750744 0.414074 0.165027
233 1 0.674312 0.509974 0.17438
71 1 0.907774 0.325679 0.0812609
95 1 0.926479 0.49381 0.073882
214 1 0.913577 0.417632 0.152871
74 1 0.0846775 0.584537 1.00931
80 1 0.169238 0.578505 0.0892368
245 1 0.155033 0.664693 0.164985
99 1 0.0878013 0.668838 0.0837574
79 1 0.26387 0.509825 0.0882382
103 1 0.23623 0.671919 0.0863162
101 1 0.164849 0.672231 1.01083
78 1 0.249628 0.57668 0.989137
84 1 0.327011 0.590702 0.0806231
107 1 0.418824 0.674457 0.0837632
226 1 0.411132 0.590902 0.175249
249 1 0.330301 0.661523 0.163519
88 1 0.484231 0.589781 0.0871556
111 1 0.571762 0.672078 0.0857843
253 1 0.506174 0.658238 0.164531
230 1 0.587205 0.589188 0.160615
113 1 0.667677 0.677757 0.984985
92 1 0.66345 0.599457 0.0757173
115 1 0.752739 0.668377 0.0870757
261 1 0.834167 0.67558 0.177188
234 1 0.751482 0.59188 0.168551
96 1 0.838825 0.602029 0.0813814
76 1 0.987917 0.586585 0.0859069
119 1 0.916975 0.675117 0.0833506
97 1 0.99915 0.6464 1.00473
94 1 0.905911 0.587358 0.00698352
117 1 0.83839 0.67704 0.00371646
100 1 0.00118409 0.739973 0.0755529
123 1 0.0713112 0.81994 0.0824167
269 1 0.164536 0.827954 0.172526
98 1 0.0637002 0.740814 0.990088
104 1 0.161437 0.755082 0.0946272
102 1 0.250187 0.772627 1.00144
108 1 0.330401 0.734326 0.087117
106 1 0.424128 0.748544 -0.000364528
112 1 0.495991 0.767381 0.0771457
131 1 0.415785 0.829435 0.0966187
116 1 0.642317 0.744637 0.0777834
277 1 0.499958 0.838124 0.179199
254 1 0.586463 0.765308 0.175872
110 1 0.580677 0.756587 1.00865
257 1 0.663031 0.674085 0.168
258 1 0.745647 0.754242 0.166199
114 1 0.740531 0.743158 0.0146969
120 1 0.829528 0.754897 0.0943308
121 1 0.00423247 0.843311 -0.00403725
118 1 0.92443 0.733717 0.991792
3 1 0.0859189 0.986713 0.0892601
124 1 0.994123 0.922199 0.0855735
266 1 0.085504 0.901805 0.162318
5 1 0.170692 -0.0184487 1.00015
127 1 0.246951 0.820894 0.0867261
128 1 0.165011 0.903561 0.0911096
270 1 0.246964 0.88833 0.16615
126 1 0.232708 0.8923 0.00460858
132 1 0.333088 0.897316 0.0864382
274 1 0.398648 0.89468 0.176732
130 1 0.412213 0.921645 0.00941115
273 1 0.337672 0.813466 0.163686
129 1 0.332984 0.821917 0.999862
13 1 0.485633 1.0055 0.0140663
135 1 0.582734 0.852485 0.0850625
136 1 0.494775 0.910563 0.088391
278 1 0.583271 0.904757 0.179113
140 1 0.671405 0.910118 0.0776614
134 1 0.584591 0.921035 0.99487
137 1 0.658542 0.834242 1.00499
139 1 0.751897 0.825507 0.082323
19 1 0.748473 0.983456 0.0834099
285 1 0.842544 0.824966 0.164293
144 1 0.838929 0.894669 0.0760104
143 1 0.923964 0.817576 0.0820445
23 1 0.912304 0.987707 0.0887508
142 1 0.913894 0.916432 -0.00857191
290 1 0.0859202 0.0849222 0.333516
152 1 0.16217 0.071398 0.252562
294 1 0.237294 0.0921179 0.330142
156 1 0.310789 0.0729645 0.256104
151 1 0.240218 0.991241 0.252483
321 1 0.337034 0.15095 0.322154
154 1 0.388202 0.0766471 0.166214
157 1 0.499034 0.965202 0.167376
160 1 0.497984 0.0725839 0.233863
297 1 0.346458 0.00818249 0.329784
301 1 0.486411 0.00264387 0.322899
298 1 0.426763 0.0882859 0.334599
158 1 0.594578 0.0824385 0.153221
159 1 0.582168 1.00027 0.253913
183 1 0.588019 0.154476 0.241865
329 1 0.659802 0.157344 0.326312
164 1 0.671121 0.0750496 0.248041
187 1 0.753697 0.179242 0.256972
306 1 0.744594 0.0736822 0.324776
148 1 0.0171069 0.0708246 0.236904
289 1 -0.00109361 0.992417 0.347807
168 1 0.832577 0.0699811 0.250564
310 1 0.923223 0.0773454 0.335095
167 1 0.919513 0.00472121 0.247815
171 1 0.0894822 0.158396 0.24172
176 1 0.156993 0.248382 0.247363
172 1 -0.00148068 0.241264 0.254939
175 1 0.231008 0.159162 0.238948
180 1 0.327187 0.236689 0.23709
201 1 0.321706 0.324498 0.168399
318 1 0.25751 0.242294 0.328965
179 1 0.406971 0.154998 0.239778
181 1 0.502895 0.165215 0.164832
203 1 0.417072 0.33081 0.247162
184 1 0.507778 0.243955 0.252858
182 1 0.591625 0.235897 0.156472
188 1 0.67319 0.25376 0.241642
207 1 0.573742 0.332809 0.237151
186 1 0.750686 0.245833 0.170427
211 1 0.768576 0.336967 0.254892
330 1 0.751148 0.25233 0.338907
192 1 0.843352 0.25045 0.245647
191 1 0.929028 0.162152 0.231333
213 1 0.829029 0.329378 0.152839
189 1 0.831669 0.152959 0.162972
334 1 0.916326 0.24804 0.325515
194 1 0.0804498 0.406714 0.169722
195 1 0.0930838 0.328801 0.247015
219 1 0.0717939 0.484742 0.257624
200 1 0.160456 0.416556 0.257264
217 1 0.00901428 0.500411 0.170355
198 1 0.260794 0.421392 0.163816
221 1 0.155145 0.476878 0.168565
199 1 0.245824 0.32167 0.264087
223 1 0.252517 0.489866 0.250842
202 1 0.410407 0.39828 0.167396
225 1 0.347198 0.493956 0.186087
204 1 0.341975 0.418567 0.259681
346 1 0.420986 0.407528 0.333935
227 1 0.419369 0.494713 0.261591
208 1 0.509815 0.425167 0.253048
231 1 0.592142 0.500307 0.249883
350 1 0.584289 0.420605 0.335007
237 1 0.843799 0.498623 0.163058
357 1 0.839058 0.334912 0.346744
212 1 0.665114 0.405333 0.255807
216 1 0.833472 0.423196 0.241
354 1 0.75714 0.41592 0.327863
215 1 0.916307 0.337825 0.24222
196 1 0.988814 0.41329 0.247346
239 1 0.925016 0.504127 0.237813
218 1 0.0759274 0.587234 0.164399
362 1 0.0927651 0.583458 0.319684
220 1 0.00201372 0.582878 0.26114
365 1 0.16742 0.483404 0.337589
224 1 0.173845 0.55689 0.235302
222 1 0.255825 0.574515 0.172905
247 1 0.246766 0.659573 0.240627
228 1 0.337263 0.58599 0.26157
251 1 0.426391 0.664209 0.260916
370 1 0.423159 0.591214 0.338306
232 1 0.489887 0.575082 0.244259
255 1 0.581576 0.65243 0.251313
236 1 0.671706 0.577002 0.255591
374 1 0.582183 0.586081 0.349757
377 1 0.66587 0.494161 0.334326
235 1 0.752305 0.497993 0.258099
240 1 0.848566 0.58275 0.264068
378 1 0.748641 0.592324 0.34229
401 1 0.670947 0.660436 0.34829
241 1 0.998116 0.665698 0.169902
238 1 0.917415 0.581492 0.157523
263 1 0.920756 0.670745 0.27117
382 1 0.928051 0.581396 0.35083
242 1 0.0782578 0.750314 0.157714
243 1 0.0858816 0.665216 0.251852
248 1 0.165632 0.736917 0.249805
385 1 0.00897525 0.66974 0.34328
389 1 0.165862 0.668671 0.339247
246 1 0.249765 0.749859 0.170323
390 1 0.233035 0.737026 0.341743
252 1 0.336763 0.733505 0.247008
250 1 0.437732 0.745294 0.168152
394 1 0.420072 0.745326 0.346736
275 1 0.420327 0.815891 0.254181
256 1 0.511265 0.743578 0.247775
260 1 0.676817 0.770371 0.24564
398 1 0.595955 0.739265 0.331845
259 1 0.732374 0.661279 0.251384
283 1 0.763848 0.825962 0.240236
425 1 0.68103 0.835193 0.332741
244 1 0.00846631 0.753746 0.253338
409 1 0.00155555 0.82738 0.343621
262 1 0.927931 0.751533 0.166073
264 1 0.832419 0.750845 0.253302
145 1 0.00640959 0.993157 0.168238
267 1 0.0805949 0.836259 0.254201
147 1 0.0923189 0.989787 0.249122
272 1 0.168896 0.913201 0.248666
153 1 0.3142 0.97847 0.170144
271 1 0.227655 0.81911 0.257028
414 1 0.232702 0.909546 0.351481
276 1 0.332202 0.912613 0.256399
413 1 0.155931 0.837705 0.341011
155 1 0.417324 0.978929 0.232504
280 1 0.509106 0.908116 0.26104
417 1 0.334813 0.829606 0.325148
281 1 0.669888 0.829136 0.155652
279 1 0.582489 0.824819 0.269762
284 1 0.68082 0.900431 0.23134
421 1 0.507508 0.834626 0.340215
422 1 0.590814 0.918043 0.341591
161 1 0.666748 0.992215 0.17428
163 1 0.748444 0.984056 0.248592
282 1 0.756845 0.902264 0.146342
426 1 0.750489 0.918448 0.350542
265 1 0.996304 0.849447 0.174463
287 1 0.921021 0.829037 0.255908
288 1 0.838385 0.899518 0.261698
286 1 0.906671 0.924486 0.182868
268 1 1.01036 0.922028 0.245647
430 1 0.903983 0.912005 0.340579
315 1 0.0788726 0.166151 0.416342
291 1 0.0997453 0.00315351 0.417646
296 1 0.163452 0.0903718 0.409125
437 1 0.151879 1.00127 0.513744
319 1 0.246626 0.164926 0.411666
300 1 0.33282 0.0807306 0.428288
295 1 0.251517 1.00689 0.416443
441 1 0.332771 0.00670015 0.503909
304 1 0.494214 0.0822199 0.412063
299 1 0.414956 -0.00301672 0.413929
302 1 0.567544 0.0859637 0.317842
303 1 0.570258 1.01151 0.403119
308 1 0.66159 0.0876897 0.416609
327 1 0.57053 0.158082 0.422694
333 1 0.828039 0.170805 0.339883
450 1 0.746697 0.0877074 0.4882
331 1 0.737161 0.161998 0.416628
477 1 0.828199 0.176028 0.511675
309 1 0.841428 0.00011283 0.349161
292 1 0.0148681 0.0835341 0.410807
312 1 0.839655 0.0746202 0.419749
311 1 0.917196 0.000146564 0.423649
313 1 0.994415 0.162592 0.326343
314 1 0.0786052 0.251371 0.324663
320 1 0.173587 0.252648 0.412175
317 1 0.171868 0.176304 0.335604
324 1 0.338348 0.246664 0.416762
462 1 0.261353 0.247329 0.501035
489 1 0.330589 0.336678 0.50689
323 1 0.419548 0.163491 0.414546
322 1 0.416712 0.235428 0.318675
326 1 0.574191 0.244809 0.343741
325 1 0.495867 0.177438 0.342256
328 1 0.50498 0.23988 0.428661
332 1 0.671723 0.235699 0.417748
353 1 0.646082 0.327285 0.324766
355 1 0.7394 0.327585 0.424593
336 1 0.837694 0.250915 0.408612
337 1 0.994216 0.323244 0.338957
335 1 0.925278 0.150063 0.424395
316 1 0.972845 0.244684 0.415547
359 1 0.904042 0.347761 0.430436
481 1 0.000177347 0.337039 0.500805
338 1 0.0712081 0.40541 0.334118
361 1 0.998847 0.504412 0.355211
339 1 0.0751397 0.32815 0.422969
344 1 0.174221 0.414724 0.42491
341 1 0.151913 0.333514 0.335088
482 1 0.080889 0.416443 0.49246
343 1 0.252999 0.324442 0.409923
342 1 0.246979 0.406542 0.337511
485 1 0.170013 0.329913 0.492011
486 1 0.238957 0.40251 0.513859
369 1 0.322941 0.50353 0.324451
345 1 0.343219 0.31594 0.323239
348 1 0.334359 0.417899 0.414838
347 1 0.40993 0.336529 0.422115
349 1 0.489825 0.315901 0.342066
351 1 0.58388 0.330007 0.423487
352 1 0.496957 0.409947 0.415107
356 1 0.668579 0.419033 0.418698
379 1 0.76436 0.509493 0.415071
498 1 0.747004 0.419866 0.507891
525 1 0.827594 0.486423 0.502538
340 1 1.00684 0.413587 0.423564
360 1 0.814456 0.405395 0.420465
358 1 0.920098 0.410285 0.330987
383 1 0.901544 0.496081 0.422208
502 1 0.912585 0.425339 0.505916
363 1 0.0914978 0.486327 0.407059
368 1 0.163017 0.575084 0.410706
387 1 0.105247 0.672737 0.421064
364 1 0.0365592 0.587692 0.41336
367 1 0.257647 0.488896 0.420186
366 1 0.243569 0.582482 0.326509
537 1 0.339245 0.66393 0.506518
510 1 0.259599 0.577951 0.501001
393 1 0.332235 0.670463 0.326579
371 1 0.39773 0.504942 0.405205
373 1 0.501166 0.513208 0.333123
372 1 0.326046 0.570566 0.410445
513 1 0.317985 0.479658 0.502406
397 1 0.503416 0.66595 0.334489
375 1 0.589906 0.505069 0.421891
376 1 0.489194 0.584848 0.422423
381 1 0.84086 0.487736 0.336198
380 1 0.665721 0.584853 0.422636
403 1 0.759618 0.664403 0.4254
384 1 0.83487 0.588682 0.41482
407 1 0.921719 0.663529 0.417528
505 1 1 0.502246 0.490197
526 1 0.903021 0.589928 0.50839
386 1 0.0838478 0.754629 0.338458
388 1 0.0139797 0.738119 0.423708
411 1 0.07599 0.841326 0.421181
392 1 0.172405 0.747789 0.424715
391 1 0.244279 0.66161 0.420829
557 1 0.175459 0.824 0.505759
534 1 0.247933 0.735513 0.509335
396 1 0.323101 0.736462 0.424573
395 1 0.415272 0.665393 0.418341
419 1 0.408194 0.831458 0.410276
399 1 0.577839 0.67035 0.415727
400 1 0.504074 0.7547 0.407623
565 1 0.512152 0.820459 0.495761
542 1 0.590002 0.745832 0.5124
404 1 0.686032 0.743976 0.429173
402 1 0.749723 0.748668 0.332606
408 1 0.838003 0.737696 0.418653
569 1 0.671228 0.839076 0.496431
406 1 0.923152 0.755143 0.349763
405 1 0.8341 0.669745 0.337139
529 1 -0.00867187 0.648678 0.499503
573 1 0.852587 0.827121 0.507744
550 1 0.922973 0.735836 0.517943
410 1 0.0864671 0.924881 0.328894
554 1 0.0909768 0.910579 0.511171
293 1 0.1623 -0.00193558 0.336389
412 1 0.00749761 0.93274 0.432319
415 1 0.248914 0.817652 0.414402
561 1 0.316318 0.830317 0.507174
416 1 0.167444 0.908522 0.430725
558 1 0.239416 0.936748 0.508818
420 1 0.319562 0.914883 0.410817
418 1 0.417607 0.91426 0.330045
562 1 0.393974 0.927605 0.493424
305 1 0.656654 0.00173212 0.334737
424 1 0.482251 0.905241 0.430113
423 1 0.595717 0.836016 0.413774
428 1 0.654042 0.927273 0.419429
427 1 0.767456 0.823291 0.44117
429 1 0.833945 0.823005 0.338075
307 1 0.742486 -0.00257547 0.413248
432 1 0.848367 0.90053 0.425696
431 1 0.942413 0.830676 0.432214
574 1 0.9151 0.923295 0.502478
434 1 0.0963348 0.0872619 0.513282
433 1 0.0162672 0.0108584 0.510669
461 1 0.176085 0.163607 0.514849
459 1 0.0924164 0.168758 0.595855
577 1 1.00869 -0.00415146 0.682101
440 1 0.167671 0.0830074 0.601425
605 1 0.15225 0.174556 0.676804
438 1 0.246189 0.0795656 0.514099
463 1 0.248478 0.171931 0.598181
444 1 0.328681 0.0861551 0.594413
465 1 0.334012 0.174385 0.512837
582 1 0.250017 0.0981882 0.678174
442 1 0.413634 0.0874911 0.500666
467 1 0.415078 0.174687 0.585726
586 1 0.41737 0.0773728 0.665506
448 1 0.517244 0.0722336 0.592144
446 1 0.587981 0.0808983 0.50123
452 1 0.654295 0.0817343 0.583653
473 1 0.664889 0.164418 0.497336
456 1 0.838626 0.0739532 0.593067
475 1 0.743068 0.166854 0.58297
457 1 1.01123 0.181284 0.510749
454 1 0.916023 0.0699518 0.511042
436 1 0.998776 0.0951654 0.586154
479 1 0.908642 0.172383 0.57764
598 1 0.930216 0.0920783 0.669881
458 1 0.0934898 0.246606 0.515643
464 1 0.182767 0.256776 0.576673
483 1 0.105459 0.335611 0.587167
625 1 0.988941 0.345806 0.66155
602 1 0.0861471 0.262065 0.65609
629 1 0.173729 0.343189 0.665334
468 1 0.339767 0.258915 0.590697
606 1 0.249537 0.254417 0.675743
633 1 0.347721 0.333463 0.671219
466 1 0.429306 0.252936 0.493176
472 1 0.506085 0.23857 0.570221
469 1 0.491669 0.15521 0.499307
491 1 0.424038 0.339675 0.593084
470 1 0.591411 0.242149 0.497578
471 1 0.582119 0.160087 0.579139
497 1 0.666914 0.330251 0.494138
474 1 0.743287 0.250385 0.503129
476 1 0.648074 0.248234 0.586195
480 1 0.817224 0.250068 0.587746
499 1 0.738116 0.325865 0.57778
501 1 0.837327 0.335225 0.522384
478 1 0.923695 0.255267 0.502484
460 1 0.995751 0.267188 0.595155
503 1 0.912587 0.335585 0.593021
488 1 0.153131 0.438938 0.591815
484 1 -0.00254894 0.42006 0.572558
507 1 0.07724 0.50204 0.581745
626 1 0.0704151 0.41737 0.66215
487 1 0.250405 0.328964 0.595007
492 1 0.33585 0.402517 0.585945
511 1 0.261735 0.500631 0.5876
493 1 0.487752 0.340066 0.487659
490 1 0.405058 0.417045 0.505779
634 1 0.415769 0.414268 0.672072
661 1 0.512825 0.495001 0.672979
521 1 0.672338 0.503796 0.494738
517 1 0.500037 0.495695 0.484394
496 1 0.506727 0.428372 0.579848
495 1 0.573084 0.335554 0.587119
494 1 0.582113 0.416422 0.487009
519 1 0.58432 0.50536 0.580055
500 1 0.658386 0.408553 0.569406
523 1 0.741289 0.503376 0.595985
649 1 0.992694 0.492736 0.650952
504 1 0.825198 0.417921 0.598382
646 1 0.910813 0.422978 0.662439
527 1 0.917967 0.506323 0.577263
506 1 0.0857263 0.570186 0.503968
512 1 0.164581 0.567674 0.578417
531 1 0.0804258 0.651176 0.59311
509 1 0.172893 0.496408 0.497588
516 1 0.337658 0.569232 0.596661
653 1 0.161081 0.508254 0.672198
657 1 0.341192 0.503584 0.674884
654 1 0.252786 0.578509 0.663001
514 1 0.398703 0.567648 0.501833
515 1 0.402598 0.483177 0.599824
541 1 0.50659 0.680424 0.499825
520 1 0.485087 0.552608 0.579416
518 1 0.575043 0.599855 0.491684
543 1 0.59439 0.65943 0.588425
522 1 0.758035 0.582809 0.498239
545 1 0.67115 0.665962 0.486132
524 1 0.67312 0.583462 0.582867
528 1 0.822157 0.586715 0.5913
547 1 0.742827 0.665111 0.594127
508 1 0.992063 0.577965 0.584805
551 1 0.915397 0.656266 0.597231
670 1 0.919258 0.581937 0.685852
533 1 0.171952 0.653001 0.506421
530 1 0.0853588 0.740641 0.499428
555 1 0.0936834 0.830031 0.582731
553 1 0.00469619 0.839254 0.516162
673 1 -0.00876677 0.665858 0.666471
674 1 0.0777479 0.762084 0.663991
535 1 0.260985 0.65747 0.586278
536 1 0.155829 0.739833 0.583062
678 1 0.245895 0.748529 0.653507
540 1 0.337318 0.747328 0.567864
539 1 0.416184 0.656581 0.586247
538 1 0.414357 0.747724 0.505075
544 1 0.517348 0.745902 0.587507
563 1 0.419687 0.842593 0.561165
567 1 0.605905 0.830147 0.587381
546 1 0.756333 0.745278 0.507481
548 1 0.675369 0.750899 0.587323
571 1 0.752012 0.841253 0.571868
549 1 0.829318 0.668243 0.510782
532 1 0.0149792 0.748789 0.575471
552 1 0.831468 0.744231 0.589336
697 1 -0.00205307 0.838264 0.676468
435 1 0.0863581 1.0061 0.596768
560 1 0.166969 0.91539 0.594499
556 1 0.0122292 0.924502 0.589424
559 1 0.25072 0.841076 0.584576
439 1 0.254558 0.00750041 0.598448
702 1 0.24813 0.918041 0.674812
445 1 0.500212 0.987681 0.489184
564 1 0.339705 0.913348 0.600877
443 1 0.400838 1.00346 0.598222
568 1 0.505983 0.92567 0.575769
705 1 0.346924 0.83631 0.668846
449 1 0.659657 0.995573 0.510389
566 1 0.588489 0.904175 0.494785
593 1 0.686854 0.998233 0.662375
447 1 0.593075 0.986723 0.586065
572 1 0.676615 0.919851 0.579763
570 1 0.743312 0.916539 0.493735
451 1 0.753667 0.0114408 0.585281
453 1 0.828251 1.00099 0.498979
576 1 0.844566 0.923939 0.586554
717 1 0.839181 0.835267 0.659666
455 1 0.930805 0.999588 0.593772
575 1 0.927055 0.836773 0.585369
581 1 0.184058 1.00107 0.668422
578 1 0.0824349 0.0973073 0.693309
579 1 0.0899788 0.00543756 0.753837
580 1 -0.000622702 0.111458 0.757385
584 1 0.170056 0.0862174 0.764719
583 1 0.249842 1.00906 0.75744
588 1 0.334022 0.0894242 0.742637
753 1 0.336451 0.169165 0.839685
592 1 0.508096 0.0704018 0.759509
611 1 0.416455 0.161626 0.751073
587 1 0.418358 0.000749315 0.761093
590 1 0.591332 0.0803717 0.662411
615 1 0.586259 0.168288 0.737655
596 1 0.676419 0.087564 0.743844
617 1 0.670766 0.162284 0.66656
594 1 0.751812 0.0858712 0.658861
621 1 0.829125 0.169043 0.659191
619 1 0.747231 0.163993 0.748032
600 1 0.823266 0.0794655 0.732829
599 1 0.903597 0.998616 0.747182
623 1 0.931062 0.192981 0.768935
765 1 0.8284 0.179722 0.816184
601 1 0.00107772 0.182019 0.671419
603 1 0.0910662 0.183154 0.758793
604 1 0.0151249 0.265504 0.750191
769 1 0.994006 0.335946 0.835282
607 1 0.249964 0.176415 0.757067
608 1 0.174929 0.258558 0.74282
612 1 0.342011 0.244323 0.738702
613 1 0.496245 0.164471 0.675447
637 1 0.500706 0.331313 0.664603
609 1 0.336232 0.170746 0.661996
610 1 0.427494 0.250968 0.66936
754 1 0.411208 0.245456 0.829512
616 1 0.507158 0.260248 0.754748
614 1 0.567925 0.246905 0.667222
620 1 0.673385 0.245464 0.750174
639 1 0.596971 0.323435 0.74644
618 1 0.739516 0.249416 0.659798
643 1 0.743256 0.33411 0.742637
762 1 0.75028 0.256813 0.835966
645 1 0.836766 0.338477 0.672649
624 1 0.835033 0.260818 0.751781
789 1 0.821719 0.342656 0.839986
622 1 0.907695 0.255222 0.656864
627 1 0.0967349 0.335394 0.736315
773 1 0.173352 0.344816 0.835737
632 1 0.16636 0.408632 0.753558
628 1 0.996736 0.413236 0.756595
631 1 0.254367 0.342329 0.746773
630 1 0.251621 0.416431 0.672166
636 1 0.337308 0.425335 0.757767
797 1 0.167819 0.476409 0.841613
774 1 0.265763 0.415598 0.825424
635 1 0.407102 0.33459 0.762964
640 1 0.501125 0.408242 0.746938
778 1 0.411148 0.422245 0.83585
781 1 0.500149 0.345609 0.833624
641 1 0.666368 0.336902 0.662856
665 1 0.665997 0.509273 0.661953
638 1 0.588432 0.408248 0.672839
782 1 0.587378 0.413941 0.840243
644 1 0.666002 0.416911 0.74749
809 1 0.666669 0.504129 0.828452
642 1 0.757495 0.413768 0.675348
667 1 0.755089 0.505008 0.751292
813 1 0.834819 0.500458 0.839006
786 1 0.74572 0.413105 0.825802
647 1 0.917617 0.348762 0.742427
648 1 0.833988 0.427795 0.76234
671 1 0.923854 0.502986 0.756543
790 1 0.906393 0.411709 0.844592
650 1 0.0780835 0.569024 0.671881
651 1 0.0820719 0.491958 0.755225
656 1 0.160925 0.570156 0.769198
793 1 -0.0101813 0.490224 0.83804
821 1 0.170705 0.670494 0.829594
655 1 0.254297 0.511309 0.752414
660 1 0.334577 0.590898 0.735332
798 1 0.260782 0.592211 0.827838
659 1 0.413538 0.500781 0.755604
658 1 0.425883 0.565979 0.659996
683 1 0.413091 0.666185 0.724232
662 1 0.575093 0.583099 0.659679
689 1 0.665132 0.664726 0.674212
663 1 0.594587 0.506824 0.750286
664 1 0.49441 0.584878 0.737615
687 1 0.586033 0.677187 0.744492
668 1 0.657065 0.599032 0.763356
666 1 0.743763 0.590456 0.688873
672 1 0.832682 0.587561 0.757332
691 1 0.746087 0.676732 0.749943
669 1 0.821218 0.499494 0.663178
652 1 1.01493 0.594457 0.747659
695 1 0.918008 0.669942 0.74645
814 1 0.919428 0.584542 0.825154
817 1 0.00550221 0.673081 0.850297
675 1 0.0806373 0.674227 0.741955
818 1 0.0911106 0.741099 0.82567
677 1 0.159499 0.662296 0.65939
679 1 0.245415 0.658018 0.744979
680 1 0.175361 0.744887 0.749618
701 1 0.178318 0.831747 0.665814
685 1 0.510093 0.666447 0.657218
681 1 0.328339 0.667476 0.661179
682 1 0.421758 0.744382 0.64919
684 1 0.330911 0.733243 0.74534
707 1 0.400792 0.832917 0.764834
686 1 0.594509 0.753872 0.662106
713 1 0.678798 0.835803 0.665682
688 1 0.498497 0.758762 0.735497
692 1 0.666512 0.747766 0.74921
711 1 0.584936 0.830596 0.740605
857 1 0.676766 0.825991 0.819825
690 1 0.756867 0.759408 0.665018
693 1 0.829526 0.670038 0.66355
715 1 0.759324 0.834464 0.738816
676 1 0.999276 0.741762 0.742601
694 1 0.912098 0.752911 0.649516
696 1 0.850015 0.755667 0.739583
698 1 0.0830894 0.917076 0.670193
699 1 0.0919528 0.837797 0.740886
700 1 1.01294 0.901141 0.753946
585 1 0.331561 -0.000110305 0.679932
703 1 0.260134 0.822579 0.740967
704 1 0.164983 0.918167 0.764418
708 1 0.324336 0.91716 0.764256
709 1 0.486797 0.852647 0.656812
706 1 0.412124 0.924846 0.689833
712 1 0.492015 0.902918 0.752106
710 1 0.576282 0.918612 0.675151
591 1 0.598983 0.00450265 0.749986
589 1 0.504112 0.00210971 0.666066
854 1 0.597012 0.909143 0.835946
714 1 0.753525 0.910737 0.657523
597 1 0.834037 0.990406 0.666073
595 1 0.757239 -0.00554873 0.751986
716 1 0.684202 0.920203 0.755887
720 1 0.834313 0.904414 0.735023
718 1 0.920402 0.906047 0.6705
741 1 0.834441 0.00238655 0.833938
719 1 0.921116 0.834746 0.762048
862 1 0.924432 0.937382 0.831418
722 1 0.0785343 0.0937801 0.842216
747 1 0.0870456 0.166671 0.918652
726 1 0.252403 0.0907626 0.835064
728 1 0.172081 0.087091 0.914073
729 1 0.341506 0.00686769 0.827725
732 1 0.338289 0.076648 0.919446
730 1 0.419426 0.0794935 0.841808
736 1 0.503524 0.0833469 0.911205
9 1 0.332646 0.991732 0.00201115
734 1 0.595465 0.0905529 0.831901
740 1 0.672684 0.0833321 0.9161
759 1 0.588819 0.1684 0.933093
761 1 0.667109 0.174313 0.835925
733 1 0.524548 -0.00539583 0.839519
735 1 0.587909 0.993659 0.922791
738 1 0.762306 0.0854028 0.83672
18 1 0.753799 0.0718904 0.00365897
763 1 0.761778 0.160921 0.916197
25 1 0.992403 0.166736 1.00695
22 1 0.913282 0.0840699 0.997886
745 1 0.00454612 0.177695 0.836501
742 1 0.922813 0.0735847 0.817313
724 1 0.00596626 0.0886995 0.915987
744 1 0.844142 0.076948 0.913112
767 1 0.918308 0.165415 0.898361
29 1 0.164621 0.162199 0.996356
26 1 0.0786129 0.237422 0.994645
749 1 0.16323 0.176006 0.830444
746 1 0.0895983 0.279596 0.839105
752 1 0.159323 0.255991 0.910224
30 1 0.239789 0.241599 0.998652
750 1 0.236301 0.253354 0.839099
777 1 0.329876 0.325985 0.843582
751 1 0.234812 0.165607 0.919298
57 1 0.333543 0.331201 0.991863
757 1 0.503084 0.161329 0.829787
756 1 0.319549 0.244687 0.912511
34 1 0.413668 0.249675 0.996388
755 1 0.417386 0.159429 0.909691
760 1 0.504284 0.255134 0.919466
38 1 0.584507 0.246495 0.00219911
65 1 0.673837 0.328147 0.000932497
758 1 0.588592 0.242511 0.839286
783 1 0.577759 0.339756 0.91953
785 1 0.662745 0.329529 0.842049
42 1 0.756665 0.251162 1.00009
764 1 0.662148 0.243331 0.927129
768 1 0.833169 0.254781 0.918706
45 1 0.840235 0.165309 -0.000559257
748 1 0.994536 0.24822 0.922035
766 1 0.909482 0.271584 0.839482
46 1 0.915044 0.244569 1.01154
791 1 0.913203 0.338545 0.922416
771 1 0.0734795 0.336841 0.927256
53 1 0.157075 0.325748 -0.010317
770 1 0.0839803 0.407034 0.833068
795 1 0.0796631 0.496907 0.928361
776 1 0.16446 0.409703 0.93264
49 1 0.992455 0.336344 1.00417
772 1 0.991885 0.421662 0.920812
81 1 0.327146 0.508174 1.00003
775 1 0.245493 0.332655 0.916359
799 1 0.252428 0.495954 0.923151
61 1 0.498174 0.325392 -0.00275748
85 1 0.508391 0.501093 0.00179287
779 1 0.428662 0.336584 0.922891
780 1 0.33691 0.418784 0.92797
784 1 0.498736 0.422928 0.924413
805 1 0.513603 0.513285 0.834424
62 1 0.589449 0.42456 -0.00609985
787 1 0.746695 0.331653 0.919056
66 1 0.753237 0.411081 0.00584218
788 1 0.667032 0.427367 0.914134
89 1 0.669834 0.50899 -0.00776373
811 1 0.740243 0.51329 0.912993
70 1 0.91155 0.418602 1.00157
69 1 0.834455 0.344032 0.000357225
792 1 0.826665 0.41748 0.938402
93 1 0.836459 0.509547 0.00786547
794 1 0.0766669 0.572426 0.828902
819 1 0.0851927 0.648475 0.920787
796 1 0.000831124 0.575615 0.910201
105 1 0.323811 0.664627 1.00009
800 1 0.17374 0.574734 0.902785
823 1 0.237096 0.660626 0.917663
801 1 0.322636 0.501677 0.844622
804 1 0.334316 0.583884 0.907297
82 1 0.414654 0.572951 1.0092
802 1 0.412674 0.582134 0.825631
803 1 0.419975 0.507817 0.912488
109 1 0.489881 0.660267 -0.00244854
807 1 0.588857 0.517876 0.909453
806 1 0.579297 0.605736 0.840545
808 1 0.497875 0.593111 0.918328
86 1 0.580992 0.587682 0.00333124
831 1 0.578244 0.668304 0.933357
829 1 0.490196 0.661694 0.841474
810 1 0.746194 0.592488 0.836013
812 1 0.65852 0.595402 0.925066
90 1 0.754004 0.594514 -0.00230273
815 1 0.913228 0.51815 0.918712
816 1 0.825093 0.595427 0.921846
839 1 0.91794 0.6567 0.913199
841 1 0.00210816 0.838833 0.85078
820 1 -0.00260521 0.758606 0.917266
843 1 0.0884863 0.839199 0.917378
125 1 0.146265 0.811939 0.00465594
822 1 0.256942 0.753175 0.825879
845 1 0.163083 0.824655 0.821408
824 1 0.167311 0.743102 0.907366
847 1 0.239318 0.835464 0.903853
826 1 0.415334 0.743526 0.826177
825 1 0.347321 0.658219 0.823238
827 1 0.409151 0.663917 0.919771
828 1 0.316573 0.738503 0.916012
133 1 0.48609 0.847453 0.987497
830 1 0.573643 0.740098 0.84156
832 1 0.513254 0.755412 0.928658
836 1 0.682422 0.766074 0.915474
834 1 0.767866 0.758952 0.823705
833 1 0.673378 0.681857 0.848555
837 1 0.835895 0.681036 0.819272
835 1 0.754257 0.688407 0.922126
838 1 0.922433 0.756601 0.837119
861 1 0.842846 0.841112 0.830963
840 1 0.842701 0.755561 0.911329
141 1 0.842716 0.808792 1.00065
863 1 0.919454 0.83169 0.926687
1 1 -0.000168487 0.999021 0.00533401
122 1 0.0875249 0.912082 1.00225
723 1 0.0771199 0.00055872 0.914355
842 1 0.079226 0.912477 0.839638
844 1 0.0117297 0.91793 0.923824
725 1 0.159708 1.01143 0.845758
846 1 0.249133 0.920656 0.838642
727 1 0.262801 0.0034169 0.898246
848 1 0.168046 0.915184 0.918765
849 1 0.334806 0.832215 0.849759
851 1 0.420565 0.807501 0.90188
852 1 0.343104 0.912536 0.924331
731 1 0.4052 -0.00737227 0.914724
850 1 0.410383 0.92037 0.840376
856 1 0.506588 0.919531 0.913965
17 1 0.683639 0.987595 0.98923
853 1 0.508025 0.824964 0.831831
855 1 0.581562 0.836725 0.916376
737 1 0.676251 0.99773 0.845394
860 1 0.679104 0.898846 0.909092
739 1 0.761717 1.00667 0.908321
138 1 0.756824 0.903241 1.00911
859 1 0.769995 0.840116 0.913283
858 1 0.762999 0.91259 0.828326
721 1 0.00104778 1.00454 0.818824
21 1 0.832385 0.993933 1.00317
743 1 0.934469 1.00926 0.915815
864 1 0.844595 0.922958 0.903788
