ITEM: TIMESTEP
2250
ITEM: NUMBER OF ATOMS
864
ITEM: BOX BOUNDS pp pp pp
0.0000000000000000e+00 3.1559999999999999e+01
0.0000000000000000e+00 3.1559999999999999e+01
0.0000000000000000e+00 3.1559999999999999e+01
ITEM: ATOMS id type xs ys zs
27 1 0.091268 0.149488 0.0700676
4 1 0.00868684 0.0736496 0.067267
145 1 0.994316 0.0157383 0.309413
196 1 0.00783828 0.410719 0.410721
11 1 0.430671 0.0118905 0.0777189
8 1 0.170336 0.0786648 0.0852979
7 1 0.249866 0.0045842 0.0794456
31 1 0.254494 0.154146 0.0761172
245 1 0.168357 0.161875 0.497451
12 1 0.343944 0.0845855 0.0869201
105 1 0.324779 0.174363 0.16413
70 1 0.909086 0.433378 0.00655502
82 1 0.417469 0.0914935 0.173332
661 1 0.497344 0.495466 0.499653
16 1 0.512438 0.0830208 0.0813359
14 1 0.601352 0.0880424 0.00727436
649 1 0.00865108 0.497374 0.497943
599 1 0.918873 0.477155 0.413234
521 1 0.667322 0.488358 0.174941
20 1 0.674856 0.095301 0.089707
113 1 0.662146 0.160316 0.166492
523 1 0.747815 0.497219 0.255889
281 1 0.654983 0.345157 0.498166
515 1 0.405603 0.469331 0.263245
24 1 0.836632 0.0794345 0.0807223
218 1 0.0858928 0.0758235 0.498254
98 1 0.0709027 0.24777 0.156466
125 1 0.156677 0.313157 0.159588
101 1 0.176313 0.15884 0.155293
32 1 0.157878 0.238381 0.0758619
55 1 0.253396 0.32636 0.0685296
50 1 0.0801799 0.406293 0.000459674
36 1 0.323624 0.243527 0.0694738
35 1 0.41878 0.163688 0.0831793
59 1 0.401706 0.328497 0.0804017
133 1 0.493484 0.329934 0.162857
208 1 0.497145 0.409783 0.430929
39 1 0.595518 0.168694 0.0844101
40 1 0.502236 0.251731 0.0829336
63 1 0.589158 0.332081 0.0588486
44 1 0.663384 0.252975 0.0913388
43 1 0.762046 0.16304 0.0938807
114 1 0.740029 0.245696 0.164952
137 1 0.67313 0.339212 0.181824
28 1 0.994969 0.243739 0.078801
48 1 0.839347 0.236472 0.0795825
47 1 0.91458 0.15836 0.0777951
117 1 0.833059 0.172484 0.168649
97 1 0.0137159 0.160838 0.141422
118 1 0.932777 0.238929 0.162999
579 1 0.0783326 0.491092 0.41959
435 1 0.0772623 0.496838 0.0823131
51 1 0.0808687 0.33182 0.0774165
56 1 0.178351 0.391387 0.0918884
122 1 0.0903859 0.415616 0.165213
60 1 0.326928 0.412 0.0809297
439 1 0.239449 0.499662 0.0787471
81 1 0.351386 0.00381769 0.173192
130 1 0.404526 0.40457 0.177644
64 1 0.500079 0.404632 0.0737615
443 1 0.42037 0.481838 0.0877141
68 1 0.660462 0.412068 0.0914271
447 1 0.58135 0.483493 0.0897611
230 1 0.588731 0.0976504 0.494475
9 1 0.332758 0.00969649 0.00770351
67 1 0.759429 0.344586 0.106605
138 1 0.757002 0.424166 0.184567
242 1 0.0908732 0.256271 0.496569
53 1 0.169423 0.32776 0.00867944
121 1 0.998146 0.329915 0.15558
52 1 0.00300734 0.418484 0.0807352
71 1 0.916675 0.328409 0.0856768
72 1 0.848002 0.424016 0.098157
142 1 0.928978 0.417768 0.171732
75 1 0.087308 0.00211395 0.240582
74 1 0.0943722 0.0921937 0.164845
146 1 0.102924 0.0896338 0.340478
18 1 0.76164 0.0881086 0.00881371
149 1 0.175589 0.0124257 0.324155
83 1 0.41814 0.01197 0.268787
78 1 0.256047 0.0752714 0.168671
80 1 0.181198 0.0971119 0.244433
103 1 0.247939 0.186547 0.249251
150 1 0.23748 0.0992576 0.330173
266 1 0.0779316 0.41093 0.496274
84 1 0.320499 0.0897548 0.25553
88 1 0.50395 0.0897453 0.246904
177 1 0.331343 0.160093 0.343998
86 1 0.577977 0.0895747 0.165724
158 1 0.588191 0.0777841 0.329707
669 1 0.823655 0.489614 0.48682
92 1 0.658373 0.0721155 0.24951
90 1 0.735424 0.0635829 0.178964
162 1 0.746318 0.0777844 0.318788
3 1 0.0946076 8.42901e-05 0.0855945
278 1 0.579202 0.420096 0.489248
76 1 0.989871 0.0834604 0.227498
96 1 0.838509 0.0700874 0.232113
94 1 0.917878 0.0838446 0.153365
119 1 0.919721 0.165228 0.24776
99 1 0.0879828 0.159787 0.254921
104 1 0.153626 0.239478 0.253215
123 1 0.0850708 0.31821 0.248223
197 1 0.165844 0.320671 0.321814
102 1 0.246431 0.240243 0.141137
108 1 0.325396 0.243818 0.249122
201 1 0.334645 0.328455 0.335267
129 1 0.335998 0.319514 0.160875
106 1 0.411251 0.244527 0.166153
107 1 0.423958 0.170078 0.249353
131 1 0.421816 0.327592 0.250014
178 1 0.419853 0.24757 0.333847
181 1 0.505967 0.16192 0.330036
109 1 0.499225 0.166079 0.162777
110 1 0.578044 0.246432 0.156398
111 1 0.592948 0.1839 0.261916
112 1 0.504251 0.243646 0.257491
116 1 0.673983 0.261802 0.26251
135 1 0.578732 0.325142 0.248557
115 1 0.750819 0.163964 0.241663
139 1 0.756721 0.332451 0.253951
189 1 0.837606 0.150447 0.325791
186 1 0.758996 0.239987 0.342887
213 1 0.86089 0.33263 0.335443
100 1 0.00592802 0.23982 0.24142
120 1 0.833012 0.244968 0.253014
190 1 0.934602 0.242229 0.327202
527 1 0.912493 0.496788 0.252439
124 1 0.00546913 0.410415 0.247759
128 1 0.160113 0.410501 0.244223
581 1 0.163237 0.473056 0.340896
507 1 0.0923305 0.49818 0.259688
127 1 0.229551 0.323392 0.237092
126 1 0.252877 0.396074 0.170082
132 1 0.331585 0.402609 0.25229
511 1 0.232291 0.495642 0.25739
585 1 0.337057 0.48894 0.343543
513 1 0.318561 0.480706 0.173057
509 1 0.180509 0.492794 0.16285
202 1 0.428855 0.419462 0.350481
157 1 0.510929 0.00595897 0.344661
519 1 0.569878 0.483009 0.256982
134 1 0.574071 0.399765 0.175263
517 1 0.489141 0.46639 0.167964
136 1 0.496039 0.396616 0.254198
209 1 0.663389 0.334584 0.345758
265 1 0.993161 0.330663 0.497818
204 1 0.337848 0.405633 0.425161
198 1 0.254869 0.402166 0.337212
140 1 0.664753 0.415868 0.264519
141 1 0.840982 0.329802 0.167213
143 1 0.913445 0.32278 0.245476
144 1 0.841925 0.409287 0.247094
285 1 0.835989 0.33937 0.496265
216 1 0.837537 0.414277 0.410427
171 1 0.0954059 0.156961 0.425784
148 1 0.00221591 0.06541 0.405917
153 1 0.323692 0.00125252 0.329962
152 1 0.177352 0.0663636 0.414697
451 1 0.741239 0.489927 0.0861491
154 1 0.420692 0.0868554 0.352307
156 1 0.34051 0.0773756 0.423336
262 1 0.919524 0.234745 0.497311
85 1 0.503227 0.00464862 0.176132
160 1 0.494216 0.087018 0.422699
183 1 0.592536 0.157749 0.401027
199 1 0.264908 0.324472 0.42319
159 1 0.580375 0.0128653 0.426506
212 1 0.659064 0.427289 0.407479
185 1 0.674652 0.167448 0.339854
164 1 0.673062 0.0830201 0.407756
257 1 0.685395 0.154048 0.494482
214 1 0.929854 0.411331 0.327866
168 1 0.847396 0.0726277 0.434029
166 1 0.906305 0.0716877 0.325799
169 1 0.000812856 0.158562 0.334498
195 1 0.0784088 0.332059 0.426878
170 1 0.0738734 0.246968 0.332275
176 1 0.179537 0.267073 0.427198
210 1 0.746182 0.426289 0.34049
46 1 0.909703 0.252106 0.000163493
173 1 0.165507 0.189282 0.349306
175 1 0.248629 0.168269 0.42497
174 1 0.253669 0.256412 0.329545
180 1 0.331375 0.242694 0.424939
205 1 0.500669 0.326534 0.336047
203 1 0.419898 0.307575 0.436519
179 1 0.416132 0.171003 0.432445
254 1 0.591836 0.239951 0.486073
184 1 0.510505 0.235855 0.420655
207 1 0.581127 0.322185 0.419055
182 1 0.588166 0.252109 0.344721
211 1 0.747264 0.348345 0.411167
187 1 0.762559 0.154331 0.412802
206 1 0.573422 0.415563 0.348348
188 1 0.687537 0.242902 0.422699
193 1 0.988641 0.331562 0.333348
191 1 0.927731 0.165008 0.412178
192 1 0.838773 0.255385 0.418601
215 1 0.923748 0.332031 0.42125
172 1 0.000211641 0.247583 0.424158
194 1 0.0814297 0.405082 0.325076
200 1 0.18529 0.403928 0.42653
6 1 0.238555 0.071478 0.000617409
583 1 0.250944 0.486745 0.418086
147 1 0.0909275 0.00148329 0.401706
34 1 0.421126 0.244925 0.0134578
243 1 0.0837056 0.178512 0.582274
220 1 0.0225494 0.0684013 0.585428
657 1 0.340182 0.496079 0.501138
433 1 0.00368269 0.499562 0.992856
224 1 0.159649 0.0862829 0.591812
228 1 0.323115 0.0721474 0.583979
66 1 0.75659 0.426523 0.992676
432 1 0.831637 0.429643 0.92053
57 1 0.337303 0.331963 0.998819
298 1 0.421941 0.0818445 0.673688
251 1 0.41956 0.170022 0.609895
226 1 0.425747 0.0902011 0.508031
655 1 0.256679 0.497418 0.576735
232 1 0.495338 0.0980888 0.585873
236 1 0.678022 0.071086 0.585834
255 1 0.579461 0.173625 0.586983
2 1 0.0958883 0.079147 0.984648
306 1 0.757929 0.0841742 0.66164
333 1 0.840575 0.157071 0.648618
234 1 0.753547 0.0805219 0.508075
240 1 0.843955 0.0784612 0.576858
263 1 0.927587 0.157895 0.576698
310 1 0.933397 0.0819965 0.659802
62 1 0.587225 0.421714 0.981919
267 1 0.0852141 0.343794 0.575099
248 1 0.166604 0.246449 0.597539
244 1 0.0102229 0.269541 0.578243
805 1 0.501483 0.499621 0.830075
247 1 0.245625 0.164869 0.579795
651 1 0.077477 0.484431 0.587496
271 1 0.254428 0.328253 0.590944
801 1 0.328432 0.492778 0.827403
250 1 0.415003 0.240966 0.514505
252 1 0.341584 0.250214 0.58889
322 1 0.432196 0.2486 0.697384
253 1 0.499375 0.167577 0.502818
256 1 0.502172 0.247259 0.577592
353 1 0.668067 0.344484 0.665985
279 1 0.583661 0.31691 0.592516
65 1 0.69278 0.334999 0.993302
259 1 0.751591 0.165312 0.589041
260 1 0.661269 0.246686 0.579043
330 1 0.738385 0.260676 0.660864
667 1 0.747706 0.493977 0.571164
264 1 0.828881 0.256494 0.579811
334 1 0.922437 0.241519 0.6549
286 1 0.928586 0.420288 0.500473
268 1 0.00143622 0.404109 0.580786
272 1 0.174038 0.42273 0.589259
269 1 0.1681 0.332586 0.514405
793 1 0.00387073 0.498606 0.826692
342 1 0.260767 0.424548 0.657826
270 1 0.260616 0.402158 0.507888
276 1 0.335215 0.416224 0.591097
345 1 0.343478 0.330161 0.665981
275 1 0.428156 0.324785 0.584003
280 1 0.507003 0.423218 0.587015
346 1 0.420606 0.415097 0.671521
350 1 0.584334 0.412177 0.661608
274 1 0.419217 0.401421 0.500468
283 1 0.743942 0.347551 0.584564
284 1 0.657214 0.422001 0.566832
354 1 0.75037 0.42691 0.662243
659 1 0.42064 0.496264 0.579672
737 1 0.665266 0.497807 0.660029
287 1 0.910167 0.338398 0.580663
288 1 0.834741 0.422122 0.577997
671 1 0.926822 0.483099 0.582038
45 1 0.853544 0.160187 0.990755
241 1 0.0101006 0.165344 0.506532
653 1 0.170386 0.482737 0.500463
290 1 0.084007 0.0866657 0.671275
292 1 0.996858 0.0867261 0.742048
315 1 0.0818897 0.187072 0.770435
362 1 0.0782446 0.0704852 0.825056
389 1 0.174059 0.176958 0.840746
294 1 0.243595 0.0773994 0.671664
296 1 0.15974 0.0887006 0.752691
366 1 0.250951 0.0787796 0.844163
30 1 0.255822 0.247756 0.991131
300 1 0.330598 0.0678913 0.760211
304 1 0.497696 0.0858607 0.767829
49 1 0.994571 0.340636 0.991425
393 1 0.326967 0.154166 0.839684
325 1 0.50508 0.152363 0.681606
302 1 0.593212 0.0771404 0.665421
374 1 0.581988 0.0714744 0.843274
308 1 0.68107 0.0735162 0.746355
378 1 0.748003 0.067502 0.827134
312 1 0.830966 0.0638394 0.748154
721 1 0.993798 0.489056 0.66394
313 1 0.0109284 0.167991 0.6702
335 1 0.891918 0.16924 0.750167
382 1 0.922622 0.0659611 0.824402
317 1 0.175382 0.168562 0.675224
314 1 0.0787787 0.254079 0.665341
339 1 0.0770369 0.328851 0.751461
320 1 0.175842 0.253532 0.747912
319 1 0.250794 0.163409 0.752034
321 1 0.323118 0.167362 0.67818
318 1 0.255703 0.26189 0.676989
324 1 0.346762 0.241813 0.755443
323 1 0.416426 0.152331 0.761044
394 1 0.430281 0.245807 0.839793
397 1 0.511501 0.16397 0.85218
326 1 0.589214 0.231616 0.674778
329 1 0.670664 0.152458 0.66002
328 1 0.511457 0.255741 0.767887
327 1 0.600843 0.147421 0.757927
332 1 0.671476 0.243067 0.747846
401 1 0.685385 0.1473 0.842903
405 1 0.81133 0.15639 0.816033
331 1 0.754935 0.163191 0.728879
355 1 0.741624 0.33468 0.745226
402 1 0.743472 0.250033 0.826415
316 1 0.988415 0.255874 0.760299
336 1 0.83375 0.253844 0.728192
406 1 0.898533 0.260278 0.8286
429 1 0.815611 0.33391 0.815318
385 1 0.99303 0.153181 0.824952
338 1 0.0930169 0.418895 0.670193
340 1 0.990987 0.403327 0.742876
54 1 0.249616 0.424879 0.989657
341 1 0.163892 0.333592 0.676178
344 1 0.175529 0.407476 0.740623
343 1 0.257854 0.340182 0.739491
413 1 0.167068 0.340127 0.820573
414 1 0.254938 0.405683 0.813418
347 1 0.422616 0.337533 0.759955
348 1 0.337683 0.420114 0.741311
418 1 0.419944 0.425495 0.827096
349 1 0.5036 0.326137 0.665664
351 1 0.580884 0.338496 0.755263
352 1 0.500064 0.41441 0.755396
229 1 0.506041 0.00854766 0.506509
357 1 0.830437 0.334935 0.656562
293 1 0.171262 0.00839849 0.670406
356 1 0.666062 0.417571 0.745077
426 1 0.742137 0.435759 0.831444
337 1 0.0105782 0.330954 0.663513
358 1 0.920139 0.410802 0.668188
359 1 0.919895 0.334982 0.74995
409 1 0.997634 0.334521 0.829434
360 1 0.815558 0.413109 0.741045
387 1 0.088495 0.153203 0.907216
364 1 0.00481963 0.0721656 0.903454
21 1 0.831762 0.0105971 0.999102
367 1 0.256942 0.0040598 0.917456
368 1 0.161123 0.0737287 0.907062
372 1 0.339422 0.0777969 0.917175
371 1 0.429413 0.0058118 0.933767
731 1 0.418855 0.496779 0.733796
370 1 0.431024 0.0743955 0.84652
33 1 0.319288 0.156482 0.991026
395 1 0.41271 0.166186 0.917276
221 1 0.1686 0.00642488 0.505287
430 1 0.908232 0.419296 0.816158
376 1 0.510542 0.0692936 0.930588
399 1 0.595138 0.15988 0.926683
380 1 0.664598 0.0741165 0.914237
384 1 0.837837 0.083434 0.90324
403 1 0.760266 0.160131 0.923364
10 1 0.417703 0.10176 0.997147
42 1 0.758821 0.245032 0.988353
407 1 0.921738 0.152543 0.906445
386 1 0.0940473 0.265451 0.837501
392 1 0.1709 0.257361 0.915365
411 1 0.0769674 0.353762 0.906818
26 1 0.0670362 0.264518 0.976574
222 1 0.252207 0.0786997 0.508762
37 1 0.508537 0.162202 0.989173
390 1 0.266518 0.250872 0.831234
391 1 0.250407 0.164053 0.914842
415 1 0.26116 0.339308 0.914825
735 1 0.582405 0.494988 0.737147
396 1 0.336363 0.246021 0.932621
419 1 0.435271 0.339178 0.898217
400 1 0.506657 0.256764 0.915477
398 1 0.593153 0.246688 0.841833
423 1 0.596072 0.346095 0.915468
421 1 0.518965 0.333807 0.837649
38 1 0.590779 0.253478 0.993903
427 1 0.76416 0.32578 0.905921
803 1 0.434844 0.486912 0.925553
425 1 0.674518 0.344559 0.833896
404 1 0.679901 0.240394 0.916117
227 1 0.408622 4.29272e-05 0.589782
437 1 0.154845 0.49081 0.98958
388 1 0.995521 0.23937 0.897993
408 1 0.824354 0.23822 0.890898
431 1 0.898328 0.338134 0.900692
29 1 0.171322 0.166459 0.995783
412 1 0.977343 0.41972 0.909685
410 1 0.075871 0.412802 0.809881
289 1 0.0121542 0.00483536 0.668866
417 1 0.349695 0.33481 0.837429
799 1 0.235578 0.492264 0.903981
416 1 0.165508 0.411157 0.906319
25 1 0.0177279 0.161074 0.993168
238 1 0.935408 0.0760871 0.500806
795 1 0.0775317 0.497889 0.902574
725 1 0.172193 0.497994 0.680039
420 1 0.334321 0.411649 0.920835
22 1 0.929196 0.0798834 0.981974
17 1 0.684952 0.00190226 0.998666
422 1 0.586959 0.429931 0.822404
424 1 0.507143 0.412193 0.904663
277 1 0.512634 0.322301 0.509322
428 1 0.680947 0.420486 0.916009
258 1 0.759563 0.267165 0.504537
273 1 0.338036 0.324484 0.513149
61 1 0.501078 0.327537 0.997166
246 1 0.232512 0.24532 0.518316
295 1 0.245685 0.00172774 0.750111
239 1 0.939869 0.00207929 0.582576
41 1 0.678165 0.161439 0.99487
58 1 0.422604 0.404156 0.999564
261 1 0.833469 0.169412 0.506789
282 1 0.748189 0.403373 0.501596
441 1 0.336553 0.491228 0.990109
249 1 0.330201 0.168811 0.505647
233 1 0.666355 0.0141106 0.501032
69 1 0.840562 0.344147 0.99782
440 1 0.174171 0.586217 0.090066
459 1 0.0840033 0.648467 0.0910095
436 1 0.999897 0.585716 0.0783506
714 1 0.749041 0.911009 0.492236
463 1 0.259749 0.676245 0.0712895
510 1 0.256518 0.584874 0.152349
444 1 0.337262 0.560826 0.08358
448 1 0.494064 0.578822 0.0845441
467 1 0.416862 0.655231 0.0829457
702 1 0.239308 0.918292 0.498102
465 1 0.335087 0.647415 0.000378594
151 1 0.254968 0.996948 0.412579
471 1 0.57949 0.659564 0.114272
452 1 0.653127 0.569099 0.0837435
545 1 0.669095 0.667061 0.180393
473 1 0.653474 0.665938 0.00615111
456 1 0.828273 0.578019 0.0774715
475 1 0.73661 0.646299 0.0994463
522 1 0.750295 0.574883 0.179125
87 1 0.58119 0.999864 0.252746
526 1 0.909293 0.58166 0.160314
689 1 0.682487 0.669672 0.491989
79 1 0.246272 0.998594 0.254137
529 1 0.00226354 0.657167 0.17191
591 1 0.565699 0.501488 0.416962
530 1 0.102696 0.750739 0.167449
460 1 0.0159699 0.749668 0.0916096
533 1 0.175849 0.669326 0.16849
464 1 0.161586 0.732481 0.0786077
534 1 0.254336 0.758161 0.154258
468 1 0.337053 0.748937 0.0739456
538 1 0.404051 0.75325 0.165322
472 1 0.495048 0.74236 0.0854651
565 1 0.479961 0.836124 0.159379
476 1 0.648416 0.739806 0.0959332
470 1 0.579635 0.745448 0.0120397
549 1 0.824924 0.662437 0.169837
480 1 0.827631 0.745938 0.0990434
546 1 0.747352 0.752611 0.165476
569 1 0.666813 0.837704 0.149796
499 1 0.747152 0.837136 0.0697865
23 1 0.930237 0.996443 0.082837
479 1 0.912303 0.671043 0.0902462
5 1 0.162506 0.990279 0.00637225
503 1 0.929087 0.845757 0.0833164
550 1 0.902348 0.758516 0.172918
446 1 0.583975 0.569839 0.00791349
95 1 0.920914 0.999135 0.234473
483 1 0.0877824 0.831606 0.0885272
557 1 0.16314 0.853361 0.166385
553 1 0.00664773 0.824958 0.16535
487 1 0.258745 0.835491 0.0722712
488 1 0.180507 0.915174 0.0893209
93 1 0.848013 0.971859 0.148683
561 1 0.347929 0.846677 0.164778
491 1 0.414701 0.824925 0.0772518
492 1 0.347108 0.916689 0.0795496
562 1 0.421931 0.924988 0.175408
496 1 0.492511 0.921941 0.0842023
706 1 0.411315 0.917926 0.496092
497 1 0.650536 0.823978 0.00187365
495 1 0.576769 0.831136 0.0962184
500 1 0.66865 0.909576 0.0677231
566 1 0.57683 0.913433 0.165144
237 1 0.828038 0.98912 0.493039
73 1 0.0164856 0.999378 0.157514
167 1 0.908461 0.996126 0.425522
573 1 0.84242 0.841972 0.161389
570 1 0.754142 0.910852 0.148592
504 1 0.831349 0.915899 0.0608749
19 1 0.754646 0.999664 0.0790737
484 1 0.0241793 0.91948 0.0756551
474 1 0.75213 0.735984 0.0168137
163 1 0.749064 0.999246 0.400781
506 1 0.0894112 0.574932 0.159497
508 1 0.0142577 0.58995 0.254661
578 1 0.0850718 0.578977 0.337755
512 1 0.167752 0.588389 0.237427
516 1 0.329539 0.571476 0.241064
605 1 0.169795 0.646822 0.328963
541 1 0.483789 0.661095 0.167596
514 1 0.417892 0.572698 0.161753
586 1 0.399235 0.580356 0.335811
520 1 0.473382 0.584333 0.250164
539 1 0.399418 0.674854 0.257171
13 1 0.522055 0.995901 0.0134327
518 1 0.56655 0.56226 0.171241
590 1 0.577245 0.582835 0.319493
543 1 0.584001 0.668619 0.23796
457 1 0.996354 0.673969 0.0129193
524 1 0.65557 0.574417 0.247217
547 1 0.754981 0.661234 0.253944
617 1 0.668661 0.672879 0.316287
528 1 0.843308 0.578576 0.248683
594 1 0.746205 0.581606 0.326954
525 1 0.832988 0.508323 0.166169
621 1 0.835658 0.662041 0.3248
77 1 0.175337 0.985548 0.170735
597 1 0.834949 0.505861 0.327432
531 1 0.0972625 0.662345 0.242919
555 1 0.0947435 0.839183 0.248706
625 1 0.0129008 0.830886 0.327778
537 1 0.33247 0.681121 0.157158
535 1 0.261419 0.672974 0.237569
536 1 0.177618 0.759753 0.246794
540 1 0.327899 0.765311 0.248241
613 1 0.498792 0.662881 0.31991
544 1 0.483959 0.750294 0.248652
542 1 0.561319 0.753063 0.162267
614 1 0.575929 0.758961 0.320362
548 1 0.655126 0.769954 0.225691
571 1 0.752628 0.846094 0.240975
618 1 0.746373 0.744585 0.323088
551 1 0.909199 0.669478 0.235155
552 1 0.823768 0.746238 0.256637
532 1 0.991679 0.741257 0.24417
575 1 0.923307 0.85134 0.238406
622 1 0.922118 0.755193 0.329618
645 1 0.824573 0.833486 0.320551
601 1 0.00174773 0.674738 0.327379
554 1 0.0774999 0.909376 0.172791
626 1 0.0907014 0.920085 0.331324
560 1 0.17197 0.908234 0.256428
556 1 0.00530994 0.915871 0.254639
558 1 0.264965 0.923381 0.169411
559 1 0.254884 0.839761 0.242877
563 1 0.407526 0.843792 0.263774
633 1 0.318852 0.823569 0.330254
634 1 0.424034 0.921629 0.338923
564 1 0.338134 0.928311 0.252022
494 1 0.573754 0.8994 0.00699957
567 1 0.576374 0.843948 0.242923
638 1 0.585346 0.922294 0.331764
568 1 0.501993 0.921536 0.251187
572 1 0.659329 0.908148 0.246343
165 1 0.8355 0.993449 0.330016
91 1 0.75109 0.990679 0.260019
642 1 0.734414 0.911909 0.33722
453 1 0.818913 0.509265 0.00403577
574 1 0.952181 0.924553 0.155716
576 1 0.836786 0.916942 0.244908
646 1 0.912149 0.918522 0.322722
603 1 0.0814125 0.665415 0.404221
701 1 0.165485 0.82997 0.483895
580 1 0.00658524 0.594672 0.419699
589 1 0.494127 0.504102 0.324486
582 1 0.256985 0.557709 0.340499
584 1 0.159099 0.570724 0.430741
697 1 0.00103955 0.842965 0.48608
607 1 0.241811 0.643879 0.414562
588 1 0.339 0.579415 0.428146
15 1 0.60152 0.994097 0.096586
587 1 0.422243 0.504789 0.417445
681 1 0.321839 0.664897 0.497628
592 1 0.501351 0.596264 0.409094
662 1 0.573908 0.579525 0.489519
596 1 0.668659 0.579329 0.418192
665 1 0.661108 0.504651 0.494231
217 1 0.0110575 0.979778 0.488561
600 1 0.846669 0.579004 0.410423
619 1 0.760848 0.674994 0.408996
710 1 0.583648 0.919955 0.499817
693 1 0.832084 0.67523 0.487349
623 1 0.916497 0.671699 0.404087
598 1 0.930772 0.582149 0.339905
670 1 0.924254 0.558873 0.49389
629 1 0.170068 0.824662 0.333254
602 1 0.0866671 0.750655 0.323486
627 1 0.0910462 0.826043 0.401896
608 1 0.166987 0.724718 0.422956
606 1 0.236799 0.742299 0.336673
612 1 0.329613 0.744834 0.418133
609 1 0.319272 0.659746 0.341862
610 1 0.404016 0.758168 0.332833
595 1 0.745125 0.504137 0.418833
611 1 0.422391 0.673351 0.394886
635 1 0.423393 0.825097 0.42929
666 1 0.758857 0.588338 0.475088
686 1 0.58031 0.75385 0.495435
685 1 0.498686 0.665445 0.487869
637 1 0.508012 0.849839 0.334496
641 1 0.670304 0.809665 0.321995
615 1 0.585992 0.670412 0.403107
616 1 0.503156 0.753416 0.408729
624 1 0.831681 0.750843 0.397215
620 1 0.676119 0.751786 0.410729
643 1 0.743388 0.833863 0.414947
690 1 0.759298 0.757231 0.486766
647 1 0.93175 0.848996 0.41391
694 1 0.918687 0.757733 0.476648
604 1 0.003764 0.750738 0.408156
628 1 0.00630475 0.938057 0.40127
698 1 0.092608 0.910472 0.494536
630 1 0.247081 0.91643 0.331569
225 1 0.330674 0.985613 0.482499
445 1 0.500498 0.501777 0.00953274
632 1 0.173234 0.926407 0.410953
631 1 0.249661 0.830552 0.422839
155 1 0.425953 0.998323 0.423091
636 1 0.324564 0.902857 0.415583
89 1 0.669927 0.980436 0.176356
639 1 0.599296 0.836383 0.4218
640 1 0.519893 0.926455 0.418549
593 1 0.663261 0.51253 0.332666
505 1 0.991584 0.51864 0.179501
644 1 0.666285 0.922694 0.423839
717 1 0.833847 0.847023 0.496932
648 1 0.836308 0.92193 0.415643
493 1 0.489237 0.817036 0.00235132
577 1 0.00227544 0.502875 0.325178
674 1 0.0898972 0.738177 0.490171
705 1 0.32885 0.834464 0.497936
682 1 0.414899 0.741754 0.49384
455 1 0.914799 0.50934 0.086576
658 1 0.423523 0.591922 0.495196
161 1 0.664369 0.997946 0.322537
469 1 0.49967 0.660047 0.012235
478 1 0.92588 0.771628 0.0131282
652 1 0.00134578 0.572959 0.577204
650 1 0.0872205 0.579118 0.518999
675 1 0.0685307 0.667205 0.600484
749 1 0.156185 0.655634 0.650916
722 1 0.0693125 0.567409 0.667165
739 1 0.741592 0.508348 0.755429
656 1 0.161144 0.564429 0.589746
726 1 0.249179 0.587907 0.664358
660 1 0.344336 0.588249 0.579364
679 1 0.24571 0.659355 0.589967
813 1 0.83731 0.502575 0.824916
730 1 0.426757 0.593311 0.662391
683 1 0.428705 0.668315 0.581181
733 1 0.511931 0.503182 0.654078
743 1 0.930391 0.506042 0.744404
498 1 0.753823 0.900539 0.982941
663 1 0.591553 0.509923 0.580208
664 1 0.492247 0.580594 0.583159
734 1 0.581018 0.591464 0.650419
757 1 0.506842 0.672617 0.65998
668 1 0.67454 0.573821 0.570732
738 1 0.749547 0.576075 0.658712
856 1 0.495247 0.916947 0.923951
672 1 0.82282 0.571246 0.574662
695 1 0.899086 0.654126 0.579604
765 1 0.841256 0.657516 0.672487
745 1 0.985748 0.65368 0.66661
680 1 0.170333 0.742972 0.591386
377 1 0.653314 0.997911 0.831584
746 1 0.0858379 0.758363 0.672078
713 1 0.676255 0.827043 0.503316
729 1 0.337992 0.504312 0.655753
703 1 0.248198 0.845091 0.583556
753 1 0.338385 0.657803 0.664194
684 1 0.336823 0.744477 0.57731
777 1 0.331761 0.828341 0.677307
860 1 0.660768 0.90788 0.93273
754 1 0.406825 0.749576 0.663241
707 1 0.406908 0.838767 0.583477
687 1 0.596383 0.674701 0.565125
688 1 0.493426 0.751313 0.587412
711 1 0.580517 0.831206 0.585155
758 1 0.586612 0.740372 0.6549
303 1 0.578864 0.990559 0.742893
692 1 0.684569 0.744577 0.575122
691 1 0.761454 0.649657 0.572544
715 1 0.761311 0.838843 0.576058
676 1 0.995973 0.748769 0.570393
696 1 0.835961 0.750651 0.561124
719 1 0.909613 0.837033 0.580084
699 1 0.08613 0.821528 0.575229
700 1 0.0060424 0.907049 0.573929
773 1 0.168378 0.839539 0.680106
223 1 0.249948 0.992603 0.57973
769 1 0.993343 0.821377 0.672625
219 1 0.0893384 0.980247 0.581329
704 1 0.164071 0.902852 0.584155
774 1 0.246797 0.921209 0.668757
708 1 0.337217 0.912162 0.573965
482 1 0.0821997 0.916986 0.98563
449 1 0.664366 0.500403 0.981379
677 1 0.165057 0.650777 0.512906
712 1 0.502902 0.927696 0.590734
781 1 0.496495 0.83775 0.648269
778 1 0.411098 0.918037 0.667005
231 1 0.589697 0.999937 0.579059
782 1 0.581819 0.912233 0.650112
235 1 0.746927 0.985888 0.585012
716 1 0.678004 0.908975 0.586551
375 1 0.590732 0.982566 0.93269
854 1 0.585702 0.90294 0.832043
720 1 0.837256 0.927447 0.586358
790 1 0.919688 0.921134 0.662862
442 1 0.415273 0.570876 0.995499
794 1 0.0719283 0.586559 0.839263
728 1 0.163852 0.578929 0.750629
724 1 0.00664394 0.573872 0.746248
502 1 0.9166 0.917916 0.99132
844 1 0.0112782 0.90172 0.910419
673 1 0.987798 0.664236 0.505527
727 1 0.26768 0.503753 0.74465
751 1 0.236793 0.654116 0.753659
732 1 0.348666 0.574092 0.742271
798 1 0.24715 0.578803 0.843171
755 1 0.411451 0.667332 0.744911
809 1 0.661455 0.51468 0.831237
802 1 0.423816 0.578643 0.818412
678 1 0.252257 0.750154 0.51025
761 1 0.667876 0.654678 0.649454
736 1 0.515035 0.590098 0.739042
759 1 0.595088 0.663725 0.737705
797 1 0.159802 0.505548 0.823394
301 1 0.497902 0.996869 0.665313
740 1 0.661466 0.57904 0.747371
763 1 0.740721 0.654865 0.745687
837 1 0.831113 0.666828 0.829556
744 1 0.836927 0.585771 0.751803
833 1 0.674045 0.662949 0.82137
742 1 0.918677 0.573127 0.66306
434 1 0.0859867 0.584333 0.996036
767 1 0.920624 0.667709 0.758844
379 1 0.739909 0.993719 0.902762
747 1 0.0828401 0.65669 0.753926
748 1 0.0140189 0.754539 0.752184
818 1 0.080301 0.739274 0.836769
752 1 0.162804 0.740794 0.755802
825 1 0.32361 0.653381 0.820458
750 1 0.24464 0.745764 0.662323
775 1 0.248733 0.84133 0.750647
822 1 0.239586 0.758087 0.838689
756 1 0.323002 0.730295 0.74701
779 1 0.417851 0.831852 0.74392
857 1 0.668443 0.829239 0.816121
760 1 0.490643 0.750926 0.735099
764 1 0.667351 0.753307 0.737284
783 1 0.586488 0.831707 0.72263
853 1 0.501208 0.83534 0.815388
830 1 0.588256 0.743463 0.826759
762 1 0.760511 0.730182 0.665766
785 1 0.684592 0.829412 0.654374
787 1 0.754164 0.823903 0.742169
834 1 0.74526 0.742209 0.827721
789 1 0.830106 0.829593 0.663463
766 1 0.910156 0.750091 0.650774
768 1 0.840447 0.743276 0.757147
838 1 0.929828 0.744598 0.840485
861 1 0.849343 0.821663 0.842568
291 1 0.0843055 0.997896 0.751511
771 1 0.0897079 0.831468 0.760899
770 1 0.0692847 0.897617 0.66526
772 1 0.0024325 0.908374 0.751356
776 1 0.165883 0.924768 0.747034
466 1 0.406751 0.745028 0.993067
718 1 0.918074 0.92532 0.502761
780 1 0.327087 0.913302 0.762105
299 1 0.418125 0.998242 0.744481
477 1 0.835186 0.680556 0.999034
784 1 0.505644 0.91877 0.741623
788 1 0.665305 0.913059 0.738565
307 1 0.751479 0.991643 0.741592
786 1 0.76424 0.916888 0.662626
858 1 0.732801 0.914296 0.834261
305 1 0.665487 0.992779 0.662345
311 1 0.926873 0.998945 0.740361
841 1 0.997113 0.827128 0.832041
791 1 0.909677 0.839349 0.746343
792 1 0.826208 0.908406 0.7422
862 1 0.909468 0.920694 0.817947
361 1 0.990998 0.985515 0.833772
796 1 0.999539 0.593652 0.931071
373 1 0.51674 0.986824 0.836471
819 1 0.0925654 0.665027 0.906281
815 1 0.909984 0.505423 0.914366
800 1 0.160306 0.570864 0.911726
804 1 0.343723 0.574498 0.900183
823 1 0.245036 0.660022 0.918692
461 1 0.164111 0.651668 0.992688
827 1 0.410201 0.655301 0.922008
808 1 0.494372 0.582179 0.904955
297 1 0.322664 0.994289 0.673771
806 1 0.581247 0.586525 0.818982
831 1 0.577969 0.665546 0.925073
812 1 0.66537 0.587241 0.91951
807 1 0.57928 0.503862 0.908521
811 1 0.753465 0.515111 0.911146
810 1 0.756758 0.592959 0.827693
816 1 0.829615 0.590865 0.933301
1 1 0.998836 0.991421 0.995956
383 1 0.919615 0.996658 0.914329
839 1 0.916636 0.662635 0.915907
654 1 0.259933 0.58805 0.512895
817 1 0.00368128 0.6686 0.833393
814 1 0.921066 0.582136 0.835029
458 1 0.0950663 0.749571 0.996315
843 1 0.0909336 0.82802 0.911979
824 1 0.165897 0.743874 0.914217
864 1 0.844015 0.916858 0.923742
847 1 0.253417 0.845765 0.91298
462 1 0.244231 0.747794 0.99446
821 1 0.171864 0.671851 0.836696
828 1 0.330202 0.737401 0.907607
849 1 0.329951 0.815386 0.826105
851 1 0.419234 0.831157 0.903555
438 1 0.252903 0.568019 0.997263
365 1 0.17281 0.997965 0.824003
826 1 0.408143 0.7337 0.825669
829 1 0.504936 0.671591 0.830764
855 1 0.575138 0.82219 0.909394
832 1 0.490118 0.732347 0.91842
836 1 0.65729 0.735455 0.913441
381 1 0.821719 0.977041 0.830374
835 1 0.745615 0.666758 0.917677
859 1 0.735458 0.806703 0.91871
840 1 0.837126 0.745554 0.914906
863 1 0.917985 0.83571 0.922932
820 1 0.0076964 0.742069 0.917317
363 1 0.0820396 0.995716 0.912712
842 1 0.093429 0.926152 0.829187
369 1 0.355693 0.996648 0.841158
481 1 0.0121004 0.826303 0.995102
485 1 0.173779 0.838242 0.986024
848 1 0.163879 0.927004 0.915019
846 1 0.252859 0.929503 0.840191
845 1 0.163101 0.837427 0.834735
850 1 0.422933 0.906228 0.826585
852 1 0.341885 0.909272 0.916192
490 1 0.415594 0.905479 0.993963
454 1 0.912426 0.588815 0.997377
709 1 0.509931 0.829006 0.501984
489 1 0.331192 0.824921 0.979873
486 1 0.262721 0.921039 0.999255
501 1 0.826175 0.825 0.983005
723 1 0.088569 0.508286 0.749479
450 1 0.739382 0.5852 0.999772
309 1 0.832676 0.999973 0.662625
741 1 0.828528 0.502487 0.675318
