ITEM: TIMESTEP
4250
ITEM: NUMBER OF ATOMS
864
ITEM: BOX BOUNDS pp pp pp
0.0000000000000000e+00 3.1559999999999999e+01
0.0000000000000000e+00 3.1559999999999999e+01
0.0000000000000000e+00 3.1559999999999999e+01
ITEM: ATOMS id type xs ys zs
4 1 0.997 0.0749676 0.0800698
74 1 0.106786 0.0763086 0.159611
230 1 0.576087 0.0760892 0.498834
214 1 0.900143 0.41442 0.332177
8 1 0.173304 0.0885783 0.0792566
78 1 0.245087 0.0715899 0.177471
12 1 0.322542 0.0891257 0.0862234
105 1 0.335278 0.17325 0.174399
81 1 0.331572 0.0106042 0.169556
82 1 0.410747 0.0828465 0.162347
16 1 0.497996 0.0914506 0.0745217
35 1 0.423246 0.170348 0.0836212
521 1 0.675821 0.495641 0.162967
527 1 0.914207 0.491311 0.248392
581 1 0.164238 0.487928 0.334051
39 1 0.593874 0.16291 0.0959488
20 1 0.673942 0.075899 0.0919905
14 1 0.578453 0.110063 0.00538955
517 1 0.509243 0.499253 0.170734
43 1 0.752419 0.161959 0.0986449
18 1 0.75488 0.0809021 0.0103631
250 1 0.414009 0.239848 0.499755
11 1 0.413087 0.00886989 0.0849616
24 1 0.837991 0.0909031 0.0861445
433 1 0.999399 0.491747 0.00729182
511 1 0.241009 0.493549 0.252374
27 1 0.0803438 0.158929 0.0820919
98 1 0.0865484 0.238767 0.15732
101 1 0.18573 0.167171 0.160457
32 1 0.174753 0.248733 0.090628
28 1 0.995562 0.241314 0.0750177
51 1 0.0910781 0.324826 0.0835001
31 1 0.251311 0.171135 0.0722842
36 1 0.346686 0.253426 0.0895676
129 1 0.334974 0.345112 0.165661
59 1 0.409738 0.341116 0.0889855
106 1 0.419317 0.256739 0.178922
73 1 0.0194036 0.00869777 0.169682
33 1 0.341329 0.158901 0.0143598
40 1 0.489993 0.251062 0.0913664
63 1 0.593833 0.312644 0.087974
83 1 0.408681 0.00236217 0.248028
44 1 0.672479 0.236088 0.0891961
67 1 0.737185 0.3417 0.0943134
583 1 0.263303 0.494118 0.409583
587 1 0.408967 0.495664 0.392896
47 1 0.911386 0.166308 0.0896707
121 1 0.00485362 0.336749 0.158936
48 1 0.830008 0.249168 0.0828706
71 1 0.926559 0.325262 0.0748801
23 1 0.917687 0.000835177 0.0869219
122 1 0.0741633 0.405121 0.165785
278 1 0.584321 0.425351 0.495166
34 1 0.413105 0.248632 0.00446279
125 1 0.172976 0.322433 0.175067
55 1 0.243015 0.326154 0.0883385
56 1 0.168216 0.409358 0.0726687
54 1 0.248664 0.417287 0.0018095
10 1 0.394118 0.0757502 0.0142394
60 1 0.339701 0.426298 0.0894818
64 1 0.500404 0.417758 0.0769322
134 1 0.579805 0.416929 0.176952
57 1 0.33544 0.340735 0.010804
68 1 0.656983 0.409314 0.0844931
72 1 0.832785 0.408213 0.081741
595 1 0.758457 0.488422 0.427743
505 1 0.992201 0.496551 0.166957
451 1 0.762918 0.485914 0.0704889
52 1 0.997585 0.40819 0.0851509
42 1 0.761386 0.236449 0.00505224
593 1 0.679045 0.489426 0.345831
93 1 0.845023 0.00522498 0.173845
76 1 0.998772 0.0751531 0.245474
80 1 0.162416 0.0654073 0.255203
266 1 0.0887967 0.422458 0.491894
173 1 0.164868 0.15831 0.334597
84 1 0.336224 0.0899138 0.249717
177 1 0.335092 0.154165 0.346229
103 1 0.248932 0.157126 0.256979
153 1 0.320622 0.00246242 0.323202
87 1 0.601889 0.00183501 0.24209
107 1 0.423053 0.156659 0.245983
154 1 0.416512 0.0763083 0.335912
109 1 0.487623 0.164289 0.168447
88 1 0.497663 0.0550493 0.240681
86 1 0.578764 0.0830524 0.162934
181 1 0.493582 0.146331 0.323421
111 1 0.586462 0.16443 0.255082
90 1 0.757842 0.0727793 0.180815
113 1 0.678217 0.156111 0.169401
92 1 0.666014 0.0910072 0.254507
185 1 0.657805 0.174171 0.342891
115 1 0.749902 0.164961 0.272817
162 1 0.752305 0.0721122 0.347076
65 1 0.674627 0.319156 0.00278315
94 1 0.92631 0.0840646 0.171185
273 1 0.320324 0.326955 0.491034
96 1 0.844058 0.0710757 0.275153
97 1 0.00275112 0.158969 0.155612
99 1 0.101636 0.154702 0.234147
100 1 0.997134 0.256872 0.248388
104 1 0.16669 0.238327 0.246261
170 1 0.0875248 0.238849 0.326406
102 1 0.258456 0.260869 0.1728
127 1 0.257268 0.329787 0.255583
174 1 0.250982 0.245139 0.333774
197 1 0.169878 0.329854 0.329947
108 1 0.331906 0.243723 0.258655
178 1 0.415975 0.244188 0.323603
112 1 0.508353 0.246623 0.252808
131 1 0.414618 0.334473 0.242857
110 1 0.587738 0.249867 0.178697
182 1 0.588065 0.257474 0.331486
205 1 0.496058 0.331485 0.33309
135 1 0.587859 0.328527 0.248454
117 1 0.838943 0.168073 0.1679
114 1 0.750666 0.262434 0.168774
116 1 0.682917 0.250529 0.262069
119 1 0.918923 0.157867 0.252757
193 1 0.00685763 0.331214 0.329869
118 1 0.918261 0.253659 0.157498
120 1 0.833194 0.248808 0.239857
143 1 0.919512 0.339225 0.239158
123 1 0.0815308 0.328064 0.234574
194 1 0.0870354 0.402888 0.329612
261 1 0.833417 0.160013 0.494713
126 1 0.256579 0.425297 0.160673
234 1 0.749985 0.0872146 0.492177
201 1 0.342149 0.324939 0.333485
128 1 0.172925 0.421329 0.230882
130 1 0.434564 0.415143 0.160978
132 1 0.331448 0.415788 0.249508
202 1 0.410021 0.410832 0.333544
29 1 0.16291 0.175627 0.00503952
70 1 0.915227 0.417327 0.0012554
133 1 0.49989 0.327986 0.167203
136 1 0.504603 0.424193 0.25612
238 1 0.931475 0.0805839 0.496297
245 1 0.167283 0.155705 0.489083
577 1 0.979321 0.487165 0.34051
137 1 0.668063 0.333575 0.175328
140 1 0.662511 0.414026 0.261974
138 1 0.750156 0.415865 0.162986
139 1 0.748018 0.338557 0.259542
141 1 0.828753 0.345481 0.171011
523 1 0.760392 0.499674 0.244336
142 1 0.913903 0.415436 0.150563
124 1 0.00242991 0.415496 0.248271
144 1 0.828694 0.41399 0.249846
213 1 0.813008 0.31916 0.347993
146 1 0.0752359 0.0767081 0.321056
169 1 0.0064872 0.155183 0.333089
148 1 0.00833418 0.0852552 0.411088
597 1 0.82556 0.49055 0.334889
147 1 0.0903459 0.0028609 0.417618
262 1 0.919644 0.256839 0.49443
150 1 0.249688 0.0842721 0.337365
152 1 0.172056 0.0675725 0.421284
156 1 0.330873 0.0703936 0.417902
515 1 0.426275 0.48613 0.26419
30 1 0.267222 0.262299 0.00845342
160 1 0.496974 0.0808354 0.419682
241 1 0.00636501 0.173567 0.494068
179 1 0.425544 0.180227 0.417898
599 1 0.897218 0.499347 0.420495
519 1 0.597075 0.498739 0.249575
257 1 0.649816 0.158807 0.492695
158 1 0.575262 0.0765403 0.340656
164 1 0.657326 0.0811325 0.414098
183 1 0.574598 0.15717 0.402965
187 1 0.739575 0.163804 0.420624
447 1 0.583273 0.499081 0.0916548
66 1 0.752284 0.407356 0.00488543
189 1 0.839711 0.165475 0.352714
166 1 0.938029 0.0713814 0.344757
168 1 0.842906 0.071538 0.415345
191 1 0.929046 0.17514 0.418254
217 1 0.0107673 0.00175634 0.498311
171 1 0.0895121 0.151644 0.409292
449 1 0.669357 0.497642 0.00384152
2 1 0.0853421 0.0903123 0.000783834
175 1 0.25518 0.16486 0.414892
176 1 0.181037 0.266435 0.41945
199 1 0.256304 0.336117 0.399141
41 1 0.679938 0.152554 0.00264238
206 1 0.595045 0.419991 0.348242
180 1 0.327044 0.239574 0.410632
184 1 0.516295 0.239257 0.411242
203 1 0.421078 0.297403 0.414477
277 1 0.506395 0.316059 0.496442
45 1 0.839534 0.164556 0.0030193
525 1 0.831963 0.496539 0.158974
3 1 0.097853 0.00397914 0.0815039
188 1 0.657464 0.24473 0.416937
207 1 0.584177 0.331425 0.419313
210 1 0.752949 0.41393 0.339177
209 1 0.66812 0.333271 0.339139
186 1 0.744144 0.245369 0.345444
211 1 0.73673 0.323199 0.423358
192 1 0.827384 0.248039 0.422779
190 1 0.913035 0.251366 0.327347
212 1 0.668181 0.406489 0.427856
172 1 0.00150401 0.253378 0.41093
215 1 0.904575 0.317848 0.404267
579 1 0.0717675 0.493943 0.400388
254 1 0.576536 0.233982 0.498307
195 1 0.074472 0.335883 0.415256
196 1 0.988032 0.399381 0.413063
61 1 0.497105 0.334346 0.00989967
270 1 0.256177 0.420344 0.485313
200 1 0.158962 0.399035 0.416772
435 1 0.0832011 0.491517 0.0695655
198 1 0.247923 0.409844 0.32173
26 1 0.0784252 0.245908 0.0121501
657 1 0.3517 0.485135 0.484216
204 1 0.33905 0.398794 0.415832
208 1 0.481203 0.40159 0.415778
216 1 0.837906 0.40573 0.420951
274 1 0.419654 0.397158 0.495913
285 1 0.828335 0.331357 0.492419
453 1 0.834157 0.487061 0.00421061
443 1 0.414567 0.497467 0.080511
665 1 0.66882 0.498295 0.499248
290 1 0.105145 0.0850463 0.666055
220 1 0.000804109 0.0688242 0.583749
224 1 0.167246 0.0819423 0.575549
228 1 0.335162 0.0924729 0.585974
247 1 0.243484 0.17191 0.583668
294 1 0.245243 0.0848223 0.679019
297 1 0.331528 0.00542589 0.659706
246 1 0.251978 0.247465 0.501749
659 1 0.425483 0.492203 0.568271
232 1 0.498717 0.0663838 0.588879
236 1 0.665358 0.0900628 0.57986
302 1 0.577633 0.0780334 0.665365
255 1 0.60078 0.167784 0.588732
259 1 0.744267 0.160556 0.584898
329 1 0.67001 0.159728 0.670277
219 1 0.0881467 0.00174007 0.577417
62 1 0.567629 0.436768 0.995301
291 1 0.0682236 0.000589856 0.747506
240 1 0.83648 0.085856 0.58164
263 1 0.923446 0.157618 0.578695
310 1 0.929147 0.0787874 0.664289
239 1 0.909511 0.00281628 0.59792
313 1 0.0127336 0.156006 0.658883
243 1 0.0906506 0.174562 0.581454
267 1 0.0937837 0.338446 0.573037
244 1 0.0104255 0.243502 0.573295
317 1 0.183999 0.165687 0.665589
809 1 0.67645 0.477313 0.841421
248 1 0.172182 0.251244 0.588103
271 1 0.253616 0.338066 0.576856
318 1 0.249207 0.268507 0.66889
251 1 0.421924 0.178651 0.591014
252 1 0.336505 0.238164 0.583858
275 1 0.425075 0.328783 0.591731
256 1 0.502739 0.252566 0.592708
279 1 0.584637 0.330433 0.591774
326 1 0.583156 0.245784 0.668887
281 1 0.646748 0.317187 0.503666
260 1 0.667083 0.240341 0.58181
283 1 0.747699 0.317016 0.584382
330 1 0.759732 0.247806 0.668994
353 1 0.669817 0.330814 0.663718
264 1 0.848294 0.242677 0.614938
357 1 0.850976 0.335205 0.665744
334 1 0.934522 0.239111 0.678702
22 1 0.917236 0.0847418 0.989777
725 1 0.167803 0.493366 0.633483
268 1 0.993274 0.415219 0.582728
338 1 0.0822924 0.416569 0.648559
721 1 0.994399 0.499584 0.663759
655 1 0.266521 0.484943 0.575908
341 1 0.167103 0.343291 0.664131
272 1 0.174931 0.421843 0.558327
276 1 0.347876 0.405112 0.572322
218 1 0.0823404 0.0846558 0.50424
346 1 0.436406 0.415422 0.682192
280 1 0.507585 0.407603 0.58353
737 1 0.6761 0.488484 0.668092
284 1 0.66009 0.404342 0.583762
350 1 0.580714 0.416891 0.683748
69 1 0.830853 0.330414 0.989568
282 1 0.73896 0.408705 0.502951
354 1 0.758427 0.405632 0.675419
288 1 0.823406 0.394669 0.574971
667 1 0.73636 0.485826 0.588397
733 1 0.50622 0.494461 0.662344
669 1 0.830363 0.487046 0.511662
287 1 0.917713 0.327157 0.579941
303 1 0.581047 0.00914526 0.744294
226 1 0.41823 0.0787078 0.503404
385 1 0.00667463 0.151059 0.836396
296 1 0.186354 0.0865608 0.762034
292 1 0.00638208 0.0768413 0.72999
361 1 0.995331 0.0105447 0.834656
300 1 0.325065 0.0828425 0.749556
319 1 0.261631 0.179074 0.757255
663 1 0.587503 0.484127 0.588172
366 1 0.252735 0.0977036 0.841358
369 1 0.31883 0.00573491 0.835851
298 1 0.410849 0.106846 0.669349
304 1 0.487021 0.0788416 0.743798
323 1 0.414121 0.183269 0.763771
370 1 0.411368 0.0826525 0.823396
301 1 0.481906 0.00416044 0.67356
299 1 0.410521 0.00165237 0.746795
308 1 0.676975 0.0820933 0.744427
327 1 0.581409 0.159853 0.751194
306 1 0.746649 0.0767207 0.659282
333 1 0.837561 0.147004 0.662617
651 1 0.0586125 0.498105 0.574702
312 1 0.825942 0.0643161 0.757577
335 1 0.929814 0.158787 0.76012
405 1 0.842589 0.175101 0.833015
37 1 0.481857 0.162336 0.983811
309 1 0.824697 0.0051257 0.674427
337 1 0.00207854 0.315939 0.68349
315 1 0.0912297 0.167848 0.729587
314 1 0.0994982 0.257443 0.662982
320 1 0.170679 0.25212 0.750747
316 1 0.0200149 0.240626 0.753707
339 1 0.0871483 0.327287 0.751982
389 1 0.164737 0.170788 0.835931
321 1 0.332688 0.177369 0.675039
324 1 0.330779 0.255042 0.758849
343 1 0.253896 0.340609 0.751764
393 1 0.3423 0.168423 0.833915
322 1 0.427073 0.252671 0.677114
349 1 0.514679 0.328742 0.67682
394 1 0.416642 0.258438 0.839045
325 1 0.51013 0.156288 0.658266
328 1 0.50265 0.245034 0.752255
332 1 0.667146 0.241316 0.755482
351 1 0.587532 0.325286 0.753815
331 1 0.758395 0.155219 0.739178
355 1 0.770616 0.319599 0.747764
336 1 0.851555 0.23797 0.747127
359 1 0.915969 0.327037 0.761839
429 1 0.818111 0.316291 0.842723
406 1 0.932088 0.238148 0.829371
409 1 0.0219288 0.336717 0.82709
410 1 0.0933919 0.422676 0.827248
25 1 0.00156584 0.164766 0.994271
344 1 0.160148 0.423706 0.747107
342 1 0.259234 0.417243 0.649807
414 1 0.247649 0.416078 0.839756
348 1 0.339967 0.42845 0.745454
345 1 0.347952 0.332258 0.667425
347 1 0.428956 0.323885 0.757722
418 1 0.411714 0.417902 0.836475
417 1 0.332437 0.338648 0.832574
735 1 0.590866 0.492772 0.753227
352 1 0.504987 0.405941 0.771648
422 1 0.593049 0.424062 0.83682
739 1 0.745043 0.482634 0.745861
426 1 0.748719 0.405119 0.823585
356 1 0.67105 0.407819 0.750875
360 1 0.831556 0.409651 0.759993
358 1 0.90729 0.422549 0.675645
363 1 0.0911265 0.010274 0.903171
340 1 0.986876 0.412084 0.755432
50 1 0.079796 0.407559 0.994356
362 1 0.0954758 0.0973267 0.833154
46 1 0.918076 0.245204 0.99801
803 1 0.412843 0.499216 0.909181
368 1 0.163771 0.107938 0.918037
372 1 0.331128 0.0893438 0.912118
367 1 0.232959 0.00715513 0.910304
6 1 0.239692 0.0890709 0.991203
222 1 0.258776 0.0885544 0.509824
233 1 0.671298 0.00991966 0.506141
430 1 0.913088 0.423312 0.838398
397 1 0.502783 0.159439 0.840099
376 1 0.480192 0.0739816 0.921347
374 1 0.581715 0.0891845 0.83263
399 1 0.59177 0.163428 0.913404
380 1 0.662285 0.0841918 0.931567
379 1 0.750549 0.0138024 0.918571
53 1 0.162023 0.322752 0.997272
378 1 0.744325 0.0836679 0.829038
401 1 0.667537 0.152225 0.82775
384 1 0.839902 0.0801555 0.918915
403 1 0.771063 0.162135 0.91476
383 1 0.923563 0.00516864 0.91653
364 1 0.999538 0.0762042 0.911834
269 1 0.170102 0.33266 0.500611
382 1 0.903702 0.0757482 0.828504
386 1 0.0906146 0.248147 0.854059
387 1 0.0744671 0.166881 0.917644
413 1 0.174403 0.331564 0.833125
58 1 0.418546 0.421875 0.991672
388 1 0.00293555 0.242818 0.912526
729 1 0.338098 0.497511 0.656879
391 1 0.261807 0.173266 0.939903
231 1 0.585972 0.00474439 0.587352
392 1 0.174637 0.246079 0.916961
390 1 0.259851 0.252786 0.846607
396 1 0.334654 0.252779 0.925344
415 1 0.255971 0.342101 0.915238
723 1 0.0789099 0.490428 0.732549
395 1 0.419397 0.182053 0.909144
400 1 0.499561 0.248213 0.919879
398 1 0.588346 0.239156 0.841104
235 1 0.749769 0.00282107 0.587362
423 1 0.58662 0.324237 0.930337
38 1 0.579957 0.236929 0.998915
402 1 0.747635 0.239167 0.819791
425 1 0.665371 0.336539 0.831652
404 1 0.688979 0.238231 0.912894
427 1 0.743332 0.331763 0.919793
227 1 0.410233 0.00375726 0.594796
408 1 0.835752 0.245295 0.923249
407 1 0.919702 0.158317 0.900051
431 1 0.908411 0.321635 0.897637
49 1 0.999915 0.320726 0.991831
811 1 0.750369 0.492853 0.922141
412 1 0.0041032 0.413331 0.910079
411 1 0.0883756 0.337845 0.922251
793 1 0.990222 0.496177 0.83394
253 1 0.503723 0.154503 0.507251
416 1 0.175669 0.415298 0.925065
420 1 0.337666 0.427855 0.915426
421 1 0.519395 0.32676 0.841253
265 1 0.996997 0.325954 0.508208
419 1 0.418323 0.343295 0.918569
424 1 0.506843 0.41757 0.902181
428 1 0.666769 0.416804 0.929514
1 1 0.026461 0.00184676 0.990061
432 1 0.832104 0.404576 0.919248
373 1 0.499936 0.00454054 0.836285
249 1 0.338166 0.159988 0.507435
375 1 0.589777 0.00906824 0.921384
258 1 0.737917 0.242838 0.506586
671 1 0.919381 0.49533 0.580839
13 1 0.50459 0.00887794 0.994118
286 1 0.931081 0.418844 0.501786
242 1 0.103352 0.248026 0.500273
440 1 0.158731 0.592736 0.0828988
459 1 0.0754084 0.667655 0.0863719
165 1 0.83498 0.989315 0.344696
510 1 0.250833 0.594122 0.164937
438 1 0.254742 0.590246 0.00270762
698 1 0.0752192 0.91796 0.485083
444 1 0.334384 0.597118 0.083217
507 1 0.0819953 0.506176 0.257851
628 1 0.991723 0.900508 0.425507
448 1 0.495862 0.584542 0.0714121
452 1 0.656632 0.587651 0.0780786
454 1 0.904631 0.590278 0.00330386
518 1 0.583991 0.577908 0.164449
19 1 0.753624 0.993747 0.101064
456 1 0.835946 0.587793 0.0876271
522 1 0.755785 0.572233 0.152414
436 1 0.0049449 0.577468 0.0674279
479 1 0.919512 0.65701 0.0812768
450 1 0.752582 0.578358 0.00448984
470 1 0.564892 0.753769 0.00358857
533 1 0.172526 0.671182 0.17205
464 1 0.161423 0.746378 0.0794717
483 1 0.0828607 0.827846 0.092069
458 1 0.087504 0.745062 0.00295508
463 1 0.254492 0.675359 0.0822315
534 1 0.263189 0.745759 0.161347
446 1 0.57911 0.578007 0.00548649
467 1 0.416743 0.673203 0.0705794
468 1 0.341369 0.752927 0.0827859
537 1 0.337592 0.665038 0.167886
541 1 0.495515 0.674779 0.16194
538 1 0.415565 0.765214 0.167459
471 1 0.581043 0.659316 0.0959683
472 1 0.499938 0.747181 0.0898946
476 1 0.650527 0.737824 0.0845474
545 1 0.681262 0.668487 0.152894
542 1 0.583783 0.733239 0.167689
475 1 0.748731 0.655614 0.0700752
546 1 0.741797 0.758455 0.162947
499 1 0.741789 0.843145 0.0830809
480 1 0.847736 0.74608 0.0913289
648 1 0.815479 0.920399 0.430059
549 1 0.82796 0.668479 0.172741
460 1 0.00309709 0.741863 0.0803545
550 1 0.923673 0.756232 0.173301
553 1 0.994364 0.83313 0.156923
573 1 0.834596 0.830531 0.159029
641 1 0.672439 0.83707 0.318217
77 1 0.172579 0.983042 0.1771
221 1 0.181909 0.991813 0.489867
484 1 0.992328 0.91967 0.077846
554 1 0.0899888 0.909432 0.171795
501 1 0.822644 0.847294 0.00941862
487 1 0.26317 0.834286 0.0844785
488 1 0.172217 0.895696 0.0898029
492 1 0.348053 0.914827 0.0913598
7 1 0.256082 0.984305 0.0764109
558 1 0.263074 0.912806 0.162763
491 1 0.418052 0.835716 0.0690435
562 1 0.414077 0.923305 0.17754
496 1 0.507126 0.914841 0.0681679
151 1 0.238555 0.970689 0.397979
561 1 0.336319 0.838173 0.166583
585 1 0.334618 0.511802 0.326509
495 1 0.590785 0.833562 0.0833874
481 1 0.010694 0.828887 0.00560662
500 1 0.665245 0.917447 0.0920541
565 1 0.482747 0.844546 0.165301
566 1 0.580654 0.907411 0.156903
159 1 0.580322 0.999651 0.415923
504 1 0.835862 0.912597 0.0906547
569 1 0.655332 0.826349 0.172754
693 1 0.832233 0.646762 0.465206
503 1 0.916997 0.83668 0.0785775
574 1 0.92196 0.913429 0.172563
474 1 0.742974 0.747368 0.0160753
506 1 0.061326 0.56932 0.152588
529 1 0.99258 0.662467 0.168516
578 1 0.089402 0.581207 0.346473
75 1 0.0730066 0.981971 0.261327
512 1 0.180112 0.571517 0.256307
490 1 0.409993 0.919634 0.00463132
514 1 0.424357 0.581167 0.154548
643 1 0.748405 0.826955 0.418238
516 1 0.338396 0.583819 0.251176
539 1 0.410082 0.663181 0.232668
586 1 0.434555 0.588916 0.323398
520 1 0.504355 0.582594 0.241938
543 1 0.591977 0.665138 0.238634
524 1 0.669171 0.576113 0.231483
528 1 0.841567 0.577186 0.239201
526 1 0.91694 0.577509 0.163285
508 1 0.99476 0.575987 0.257916
157 1 0.497914 0.999818 0.344899
225 1 0.329177 0.995281 0.494104
531 1 0.0876123 0.650531 0.256889
530 1 0.0736956 0.740089 0.166287
532 1 0.00781147 0.730438 0.247424
602 1 0.0620886 0.759993 0.32517
557 1 0.172365 0.818975 0.169183
605 1 0.176302 0.665627 0.333802
535 1 0.246802 0.679648 0.253675
536 1 0.157756 0.742204 0.25057
606 1 0.259414 0.755516 0.338179
540 1 0.342542 0.750232 0.241577
544 1 0.497034 0.750143 0.238975
610 1 0.41211 0.745772 0.326058
617 1 0.660574 0.677646 0.320494
613 1 0.508285 0.67334 0.321774
614 1 0.582922 0.747149 0.319283
547 1 0.744474 0.674712 0.25169
548 1 0.670809 0.755197 0.25091
618 1 0.743417 0.740977 0.338142
645 1 0.836012 0.827477 0.337119
551 1 0.91648 0.663055 0.253435
552 1 0.8345 0.74158 0.249022
575 1 0.900818 0.829645 0.252093
85 1 0.514296 0.998045 0.150813
555 1 0.075466 0.819618 0.240705
626 1 0.0928331 0.909958 0.34614
646 1 0.904875 0.915561 0.337436
559 1 0.264831 0.820942 0.244165
633 1 0.329821 0.83804 0.330872
560 1 0.154536 0.910561 0.250308
564 1 0.325727 0.914248 0.252508
563 1 0.410032 0.844681 0.25156
568 1 0.505432 0.925116 0.245763
634 1 0.411068 0.928034 0.32351
637 1 0.504522 0.842764 0.342652
706 1 0.411867 0.916713 0.498233
567 1 0.574159 0.838108 0.253339
638 1 0.594494 0.924359 0.324788
570 1 0.747997 0.911164 0.168754
571 1 0.759482 0.832952 0.236783
572 1 0.665751 0.91516 0.24569
674 1 0.0931334 0.747841 0.494185
556 1 0.00519343 0.906723 0.241283
576 1 0.829776 0.913634 0.245515
95 1 0.922516 0.99492 0.253959
603 1 0.0829969 0.664471 0.406827
650 1 0.0818711 0.574554 0.482557
582 1 0.251964 0.572701 0.34801
584 1 0.166497 0.581895 0.41838
607 1 0.260931 0.655634 0.418872
149 1 0.156829 0.995875 0.330828
654 1 0.259217 0.557516 0.493554
681 1 0.341687 0.644312 0.496462
658 1 0.423614 0.576536 0.497918
609 1 0.331956 0.668466 0.324375
588 1 0.346335 0.572918 0.413349
611 1 0.416722 0.668315 0.416086
477 1 0.844671 0.682248 0.00427173
644 1 0.675667 0.918208 0.420301
592 1 0.503058 0.590158 0.409798
590 1 0.609313 0.583107 0.327903
615 1 0.581267 0.670014 0.408125
591 1 0.595815 0.512602 0.413049
596 1 0.672649 0.587283 0.414418
594 1 0.735034 0.572205 0.326269
621 1 0.842713 0.674445 0.34162
600 1 0.821137 0.577096 0.38816
619 1 0.734608 0.670725 0.427721
601 1 0.00349294 0.653424 0.332322
598 1 0.912755 0.584858 0.326661
580 1 0.00211585 0.582068 0.417372
670 1 0.922939 0.584154 0.495751
623 1 0.928314 0.660861 0.416967
627 1 0.082735 0.831351 0.421292
604 1 0.999276 0.746972 0.413553
163 1 0.750111 0.99726 0.424823
649 1 0.000861486 0.503252 0.484446
608 1 0.187212 0.741475 0.418161
612 1 0.337351 0.746602 0.408712
437 1 0.170057 0.503131 0.00367368
509 1 0.172709 0.517497 0.150353
635 1 0.415092 0.828915 0.414952
616 1 0.499025 0.746623 0.402525
639 1 0.589589 0.855669 0.418448
686 1 0.601999 0.747516 0.493761
620 1 0.663736 0.758073 0.407611
624 1 0.82698 0.75213 0.406904
622 1 0.928672 0.743321 0.328778
653 1 0.161167 0.507267 0.48294
647 1 0.900253 0.84089 0.420427
625 1 0.981661 0.843936 0.336396
145 1 0.995026 0.979037 0.336917
632 1 0.168903 0.892212 0.427474
485 1 0.156801 0.830572 0.00221906
629 1 0.162931 0.827098 0.327563
630 1 0.235659 0.899736 0.321541
631 1 0.255673 0.837173 0.413932
155 1 0.421675 0.995831 0.415407
439 1 0.245434 0.511083 0.0872424
229 1 0.503607 0.998329 0.498068
636 1 0.345404 0.91439 0.404992
640 1 0.488821 0.913237 0.425895
161 1 0.669961 0.99928 0.333004
79 1 0.245097 0.981254 0.24333
237 1 0.834562 0.999151 0.499222
661 1 0.499497 0.501631 0.484569
642 1 0.766033 0.903878 0.335304
17 1 0.688385 0.998421 0.00920469
15 1 0.597245 0.994955 0.0711281
705 1 0.332131 0.824891 0.485407
167 1 0.91927 0.984264 0.416423
21 1 0.826289 0.997337 0.0275776
589 1 0.520552 0.517223 0.331322
497 1 0.657415 0.817042 0.00194074
89 1 0.682542 0.998966 0.17623
91 1 0.753464 0.983588 0.26787
482 1 0.0866951 0.912267 0.0145757
682 1 0.420089 0.745581 0.498507
455 1 0.916931 0.51943 0.0755579
694 1 0.926563 0.736996 0.499737
513 1 0.353963 0.503506 0.176301
502 1 0.908646 0.922674 0.0001221
722 1 0.0847396 0.570826 0.661169
656 1 0.169206 0.577873 0.564006
675 1 0.0878723 0.655523 0.587933
749 1 0.148633 0.682881 0.68451
679 1 0.264701 0.657394 0.569751
223 1 0.248064 0.993363 0.588745
307 1 0.742302 0.999212 0.754157
726 1 0.2476 0.577432 0.64258
753 1 0.3383 0.641157 0.663137
660 1 0.349966 0.577756 0.582093
730 1 0.421173 0.57894 0.67119
683 1 0.423005 0.672889 0.587726
664 1 0.501017 0.570254 0.589078
668 1 0.647243 0.576866 0.598948
371 1 0.413873 0.988517 0.915044
738 1 0.758208 0.590972 0.652277
689 1 0.661722 0.660469 0.509374
685 1 0.509801 0.674275 0.50148
666 1 0.741138 0.574459 0.520078
652 1 0.993476 0.580869 0.581686
672 1 0.836238 0.588607 0.579653
742 1 0.911007 0.586764 0.666184
695 1 0.925787 0.664137 0.58167
673 1 0.0140003 0.664278 0.506364
746 1 0.0770602 0.760887 0.666547
769 1 0.00340694 0.84249 0.644279
699 1 0.0803559 0.837311 0.572025
494 1 0.590312 0.923523 0.986349
680 1 0.147415 0.749912 0.590236
703 1 0.246246 0.820003 0.585298
773 1 0.154878 0.840865 0.658608
289 1 0.00962321 0.995845 0.657631
684 1 0.337867 0.742267 0.580739
754 1 0.403679 0.757449 0.67156
707 1 0.410347 0.830188 0.584059
777 1 0.315887 0.824172 0.672441
688 1 0.503227 0.746577 0.574053
687 1 0.577523 0.666072 0.588855
692 1 0.658432 0.752285 0.603582
691 1 0.72816 0.66924 0.583553
762 1 0.757093 0.747077 0.66482
696 1 0.820964 0.735486 0.575615
690 1 0.747632 0.741688 0.502679
676 1 0.00563975 0.737792 0.587977
719 1 0.923542 0.825082 0.584095
789 1 0.825612 0.84318 0.665295
701 1 0.177077 0.824452 0.50523
365 1 0.174324 0.994081 0.823872
700 1 0.000198017 0.923822 0.57382
813 1 0.830095 0.504005 0.844549
770 1 0.0767806 0.923542 0.674099
741 1 0.820861 0.507166 0.657171
461 1 0.160642 0.655723 0.994488
704 1 0.162889 0.916558 0.592738
795 1 0.0894286 0.503186 0.907635
774 1 0.243128 0.910579 0.673862
381 1 0.816563 0.994014 0.835285
708 1 0.325951 0.903919 0.594614
712 1 0.49151 0.922023 0.576536
781 1 0.492348 0.842149 0.654506
785 1 0.658308 0.839417 0.670549
311 1 0.914384 0.998803 0.740576
711 1 0.594496 0.847702 0.585232
782 1 0.567406 0.92495 0.666556
716 1 0.671991 0.926383 0.578196
715 1 0.757907 0.813934 0.583277
718 1 0.908667 0.925367 0.506111
720 1 0.829791 0.913309 0.581824
710 1 0.577038 0.922942 0.503296
821 1 0.1619 0.661177 0.809643
728 1 0.166648 0.579188 0.724171
724 1 0.995778 0.583894 0.747364
801 1 0.330901 0.507934 0.839794
732 1 0.326932 0.584406 0.76422
751 1 0.251419 0.659778 0.743376
727 1 0.250828 0.510786 0.734383
473 1 0.667315 0.662917 0.995521
697 1 0.00189817 0.835022 0.510823
802 1 0.409553 0.583169 0.828222
731 1 0.417506 0.506645 0.7508
755 1 0.396179 0.681392 0.749355
734 1 0.58579 0.571663 0.684566
757 1 0.501205 0.682177 0.668562
736 1 0.496552 0.599081 0.74473
806 1 0.582566 0.579493 0.818022
805 1 0.506089 0.510374 0.836456
761 1 0.659613 0.661559 0.66793
765 1 0.823744 0.663873 0.661216
740 1 0.679804 0.574917 0.741838
744 1 0.820357 0.579924 0.748877
678 1 0.26954 0.742783 0.503169
767 1 0.913746 0.659144 0.747681
814 1 0.91533 0.58495 0.827939
745 1 0.00508834 0.667247 0.667363
747 1 0.07077 0.65826 0.745447
818 1 0.0683683 0.732818 0.828436
752 1 0.158419 0.763151 0.749728
845 1 0.155419 0.847827 0.841492
750 1 0.254302 0.717555 0.661006
775 1 0.242308 0.837043 0.749983
822 1 0.236163 0.754766 0.830511
756 1 0.310946 0.754572 0.751424
779 1 0.412735 0.839872 0.760044
849 1 0.32519 0.833091 0.831492
826 1 0.409349 0.758438 0.843372
759 1 0.581965 0.665088 0.745199
758 1 0.561299 0.760681 0.667158
760 1 0.490423 0.74963 0.771729
857 1 0.668933 0.81969 0.824465
829 1 0.506613 0.658084 0.832837
764 1 0.665553 0.748942 0.73441
763 1 0.749211 0.657058 0.753012
834 1 0.781515 0.751313 0.827867
787 1 0.749909 0.822482 0.752143
833 1 0.660954 0.656691 0.814908
766 1 0.917141 0.75303 0.663056
748 1 0.991404 0.740659 0.747942
768 1 0.831637 0.736828 0.741266
5 1 0.176292 0.998252 0.996531
771 1 0.066071 0.835319 0.740914
772 1 0.995334 0.922563 0.745087
776 1 0.161758 0.916176 0.754418
842 1 0.0674765 0.932521 0.838896
846 1 0.249164 0.91542 0.833538
780 1 0.347263 0.919138 0.755104
778 1 0.404841 0.909863 0.668032
850 1 0.428602 0.926019 0.827452
784 1 0.502416 0.915241 0.751341
305 1 0.670841 0.987567 0.662927
783 1 0.575875 0.830183 0.755841
445 1 0.47765 0.503964 0.995141
714 1 0.741658 0.903138 0.508556
786 1 0.743668 0.909749 0.669368
788 1 0.658317 0.905674 0.754421
792 1 0.840918 0.920545 0.757362
861 1 0.841144 0.849551 0.841901
791 1 0.918244 0.820688 0.751697
790 1 0.919645 0.9078 0.669806
841 1 0.0041916 0.837343 0.832248
794 1 0.0877464 0.575152 0.814262
293 1 0.157473 0.989971 0.681905
800 1 0.163783 0.581879 0.924119
799 1 0.252736 0.505891 0.923687
798 1 0.243819 0.589352 0.831415
804 1 0.343721 0.589539 0.917493
442 1 0.411886 0.588172 0.997452
825 1 0.324594 0.674123 0.835795
863 1 0.928418 0.848698 0.905601
862 1 0.92706 0.936403 0.833018
808 1 0.489185 0.575886 0.916958
827 1 0.4214 0.668502 0.905334
489 1 0.330715 0.840618 0.98898
831 1 0.574316 0.670931 0.922795
812 1 0.670536 0.57113 0.92278
807 1 0.587965 0.504658 0.912949
469 1 0.498238 0.6617 0.994565
462 1 0.242421 0.755327 0.998765
810 1 0.743413 0.578509 0.836586
816 1 0.825125 0.586657 0.923029
835 1 0.753057 0.669315 0.917169
377 1 0.669605 0.999944 0.83446
837 1 0.829254 0.652155 0.834442
817 1 0.977818 0.667401 0.839189
796 1 0.990496 0.576776 0.908397
839 1 0.900504 0.672537 0.919554
820 1 0.983425 0.754033 0.909496
819 1 0.0616428 0.671658 0.918058
824 1 0.152543 0.738554 0.904264
457 1 0.981789 0.667683 0.99784
709 1 0.50601 0.837104 0.501619
9 1 0.321302 0.98498 0.988782
823 1 0.244681 0.672597 0.921627
847 1 0.234076 0.823783 0.905438
466 1 0.425935 0.754313 0.984055
851 1 0.414468 0.839122 0.918286
828 1 0.320811 0.760923 0.90733
465 1 0.347908 0.673507 0.981883
853 1 0.495462 0.835143 0.851139
713 1 0.67358 0.821559 0.505173
830 1 0.585184 0.736171 0.826772
832 1 0.495846 0.750767 0.910001
836 1 0.654349 0.749653 0.914042
702 1 0.256406 0.90982 0.515309
434 1 0.0709764 0.58409 0.993297
838 1 0.892118 0.750045 0.838404
840 1 0.824616 0.760849 0.931163
478 1 0.917033 0.77346 0.985955
848 1 0.160667 0.927459 0.9066
843 1 0.0821033 0.83347 0.906133
797 1 0.169325 0.50159 0.836874
486 1 0.244616 0.898839 0.981551
852 1 0.333002 0.918201 0.902469
493 1 0.513343 0.845173 0.97514
856 1 0.499141 0.926211 0.913498
717 1 0.839905 0.831719 0.506564
662 1 0.584576 0.579261 0.50896
854 1 0.579002 0.92192 0.834903
855 1 0.586166 0.826217 0.915106
864 1 0.829862 0.932195 0.924924
858 1 0.7465 0.907789 0.825987
860 1 0.664381 0.907065 0.902406
859 1 0.741885 0.824596 0.906454
441 1 0.33933 0.504433 0.988849
844 1 0.00932329 0.911237 0.931119
295 1 0.268807 0.989967 0.738512
743 1 0.897216 0.502493 0.758277
498 1 0.73348 0.908287 0.987479
677 1 0.175955 0.673659 0.503064
815 1 0.899841 0.503624 0.926802
