ITEM: TIMESTEP
500
ITEM: NUMBER OF ATOMS
864
ITEM: BOX BOUNDS pp pp pp
0.0000000000000000e+00 3.1559999999999999e+01
0.0000000000000000e+00 3.1559999999999999e+01
0.0000000000000000e+00 3.1559999999999999e+01
ITEM: ATOMS id type xs ys zs
1 1 1.00344 0.997306 0.995941
2 1 0.0837945 0.075732 1.00011
3 1 0.0795811 1.00864 0.0883831
4 1 0.992863 0.0787754 0.0739146
5 1 0.166833 0.99586 0.00851482
6 1 0.255621 0.0841901 0.0145392
7 1 0.255436 1.00546 0.0941218
8 1 0.156828 0.0887601 0.0855564
9 1 0.331789 0.00583573 -0.00235634
10 1 0.412037 0.0850109 0.00330175
11 1 0.410077 -0.000364781 0.0875431
12 1 0.327554 0.0774117 0.0972432
13 1 0.485018 0.00328343 0.0038861
14 1 0.579084 0.0851461 -0.0107244
15 1 0.582558 0.990809 0.0745635
16 1 0.492336 0.0800952 0.0845072
17 1 0.658924 -0.000947113 0.995746
18 1 0.748372 0.0778966 0.990961
19 1 0.744019 -7.58362e-06 0.0744247
20 1 0.663053 0.0857581 0.0747362
21 1 0.823669 0.991498 0.987114
22 1 0.923844 0.0739817 0.991284
23 1 0.903823 0.997382 0.0762702
24 1 0.830794 0.0840856 0.0751236
25 1 -0.00350815 0.167 0.997374
26 1 0.0854597 0.244972 0.00593014
27 1 0.0813605 0.16877 0.0828142
28 1 0.997099 0.248084 0.0783827
29 1 0.171354 0.171549 0.00986311
30 1 0.257107 0.249153 0.00453543
31 1 0.244777 0.167385 0.0899705
32 1 0.175647 0.252859 0.0908566
33 1 0.337521 0.16201 0.0107155
34 1 0.408718 0.245095 0.00356888
35 1 0.4094 0.169826 0.0906132
36 1 0.318074 0.257463 0.107777
37 1 0.491913 0.163701 0.00234817
38 1 0.576284 0.239134 -0.00918162
39 1 0.583814 0.165761 0.0822812
40 1 0.498173 0.241014 0.0823117
41 1 0.66236 0.170268 0.99212
42 1 0.759114 0.246975 0.997517
43 1 0.74998 0.155209 0.0779253
44 1 0.679914 0.241527 0.0767029
45 1 0.835211 0.161917 0.986773
46 1 0.920356 0.250346 0.983181
47 1 0.913621 0.167402 0.0676938
48 1 0.835688 0.237804 0.07076
49 1 0.00214391 0.344509 1.00453
50 1 0.0868229 0.4294 0.00928544
51 1 0.0917105 0.329295 0.0808024
52 1 0.993247 0.416867 0.0876081
53 1 0.165521 0.335241 0.0049871
54 1 0.254535 0.40356 0.00523885
55 1 0.248869 0.331495 0.0956311
56 1 0.166665 0.400636 0.0957739
57 1 0.327588 0.328186 0.00769927
58 1 0.426005 0.415828 0.0151821
59 1 0.416255 0.332917 0.0815942
60 1 0.334673 0.409661 0.0946026
61 1 0.497505 0.332747 0.00773449
62 1 0.566454 0.41535 0.00350378
63 1 0.578156 0.313307 0.0827648
64 1 0.502538 0.4113 0.0927251
65 1 0.673515 0.317377 0.990746
66 1 0.751995 0.409123 0.986562
67 1 0.745891 0.322369 0.0808601
68 1 0.674926 0.415364 0.0704546
69 1 0.830895 0.321607 0.992572
70 1 0.917832 0.426025 -2.76644e-06
71 1 0.910878 0.331993 0.0645026
72 1 0.825154 0.413487 0.065405
73 1 0.00533255 0.510532 0.0120494
74 1 0.0887152 0.57961 0.00179749
75 1 0.0858668 0.498508 0.100877
76 1 1.00261 0.595947 0.0795886
77 1 0.174955 0.503993 0.998931
78 1 0.25011 0.584898 0.00280173
79 1 0.24787 0.498254 0.0839573
80 1 0.168469 0.57275 0.0927709
81 1 0.33683 0.496734 0.000766544
82 1 0.419397 0.590581 0.99153
83 1 0.412562 0.503188 0.096716
84 1 0.351054 0.586022 0.0786906
85 1 0.487173 0.499143 0.00796738
86 1 0.581301 0.588165 1.0015
87 1 0.575901 0.506517 0.07307
88 1 0.497269 0.587264 0.0839124
89 1 0.662183 0.499084 0.991915
90 1 0.755582 0.578298 0.0109404
91 1 0.738145 0.498663 0.0817388
92 1 0.659549 0.590553 0.0900779
93 1 0.842641 0.50773 1.00456
94 1 0.917528 0.589952 0.00485755
95 1 0.930488 0.511007 0.0946099
96 1 0.837287 0.586816 0.0919268
97 1 0.00659323 0.664824 -0.00492454
98 1 0.0766523 0.757045 0.998878
99 1 0.0867447 0.675529 0.0753771
100 1 1.00111 0.745793 0.0766653
101 1 0.164404 0.664163 0.00476909
102 1 0.240871 0.747631 0.996198
103 1 0.246791 0.665394 0.0918249
104 1 0.16076 0.755346 0.0825873
105 1 0.327936 0.664623 -0.00087938
106 1 0.417987 0.745653 0.995417
107 1 0.411307 0.668661 0.0832968
108 1 0.335483 0.752237 0.0969492
109 1 0.494458 0.663978 -0.00710558
110 1 0.582283 0.735871 1.00175
111 1 0.577358 0.665812 0.0954064
112 1 0.500184 0.744337 0.0783963
113 1 0.664353 0.666135 1.01184
114 1 0.748612 0.744571 1.00222
115 1 0.753538 0.657627 0.0820094
116 1 0.670751 0.738149 0.0889573
117 1 0.831815 0.664792 0.00291479
118 1 0.91589 0.758168 0.998392
119 1 0.909206 0.676296 0.0683895
120 1 0.821338 0.758154 0.0903186
121 1 -0.00413675 0.832226 -0.00521144
122 1 0.0754273 0.916344 0.00750117
123 1 0.0753767 0.834887 0.0861653
124 1 1.00024 0.929078 0.088434
125 1 0.160339 0.836923 0.0107765
126 1 0.25341 0.91021 0.00111906
127 1 0.250014 0.844248 0.0863957
128 1 0.166545 0.921562 0.100539
129 1 0.330415 0.823484 0.0039441
130 1 0.410684 0.922563 0.00179805
131 1 0.421099 0.827501 0.0800578
132 1 0.338316 0.907521 0.087245
133 1 0.501709 0.831033 0.996323
134 1 0.582932 0.908906 -0.00246073
135 1 0.596244 0.824673 0.0851787
136 1 0.499116 0.901747 0.0815054
137 1 0.665288 0.81899 0.994794
138 1 0.744255 0.908785 0.999725
139 1 0.742689 0.833991 0.0876919
140 1 0.662417 0.908415 0.0695755
141 1 0.833223 0.827444 0.997254
142 1 0.92343 0.910788 -0.00984788
143 1 0.91458 0.843617 0.0788539
144 1 0.82945 0.910278 0.070985
145 1 0.997217 0.00208109 0.170577
146 1 0.0755546 0.0788642 0.173386
147 1 0.0658884 -0.000518862 0.257119
148 1 0.983447 0.0841813 0.251359
149 1 0.164624 -0.000291071 0.178257
150 1 0.236635 0.073112 0.172242
151 1 0.241612 0.9956 0.260936
152 1 0.17202 0.09481 0.262549
153 1 0.330379 0.00901837 0.1896
154 1 0.423259 0.0824465 0.164736
155 1 0.42032 0.995773 0.257456
156 1 0.333702 0.0860288 0.267054
157 1 0.493193 0.985099 0.154161
158 1 0.582776 0.0840538 0.162946
159 1 0.580623 -0.00614873 0.241807
160 1 0.498281 0.0820732 0.247185
161 1 0.672967 0.00263963 0.169808
162 1 0.753707 0.0734853 0.160596
163 1 0.756115 1.00244 0.264927
164 1 0.668276 0.0670137 0.250861
165 1 0.82788 0.00341004 0.158849
166 1 0.914394 0.0871387 0.151304
167 1 0.920071 0.995459 0.248792
168 1 0.844085 0.079553 0.243164
169 1 0.985854 0.158548 0.169745
170 1 0.076257 0.249461 0.155191
171 1 0.0767472 0.168887 0.248039
172 1 -0.00241196 0.250899 0.251247
173 1 0.15496 0.164414 0.171265
174 1 0.238092 0.250705 0.185003
175 1 0.244378 0.176442 0.264544
176 1 0.159138 0.261397 0.259808
177 1 0.331661 0.157537 0.174266
178 1 0.417816 0.256835 0.174172
179 1 0.417691 0.163608 0.246629
180 1 0.336319 0.244225 0.245993
181 1 0.499605 0.179794 0.17139
182 1 0.584278 0.240147 0.169581
183 1 0.595266 0.162765 0.246145
184 1 0.51768 0.256854 0.246824
185 1 0.671597 0.160206 0.161255
186 1 0.770571 0.239477 0.162055
187 1 0.758913 0.150677 0.248712
188 1 0.687224 0.249646 0.248821
189 1 0.839566 0.158533 0.16657
190 1 0.911768 0.250064 0.155906
191 1 0.918176 0.172568 0.258739
192 1 0.840236 0.248731 0.243474
193 1 0.993909 0.329533 0.161991
194 1 0.0796305 0.406068 0.169357
195 1 0.0804465 0.330513 0.265077
196 1 0.995364 0.409886 0.243781
197 1 0.156369 0.329488 0.172257
198 1 0.250981 0.402942 0.180859
199 1 0.258132 0.336185 0.259766
200 1 0.158716 0.412539 0.254082
201 1 0.340522 0.340068 0.181037
202 1 0.420339 0.412348 0.162042
203 1 0.424087 0.332456 0.260973
204 1 0.355136 0.42615 0.245179
205 1 0.506285 0.341574 0.17011
206 1 0.590981 0.426688 0.168124
207 1 0.592942 0.336919 0.256137
208 1 0.515706 0.420182 0.25655
209 1 0.653987 0.325116 0.169783
210 1 0.747678 0.40966 0.154345
211 1 0.756246 0.331137 0.23485
212 1 0.671726 0.410578 0.245732
213 1 0.835211 0.32915 0.156278
214 1 0.915397 0.41168 0.170574
215 1 0.91403 0.324521 0.255969
216 1 0.835807 0.404637 0.24363
217 1 1.00253 0.49789 0.169455
218 1 0.0738029 0.592843 0.159615
219 1 0.0820403 0.488317 0.241755
220 1 -0.00467259 0.581504 0.24564
221 1 0.168053 0.482148 0.167457
222 1 0.240558 0.583094 0.17142
223 1 0.250962 0.495839 0.246289
224 1 0.154714 0.568832 0.243006
225 1 0.327589 0.498926 0.164732
226 1 0.400961 0.582159 0.172551
227 1 0.418891 0.508561 0.251699
228 1 0.329389 0.579592 0.247177
229 1 0.509865 0.499519 0.167803
230 1 0.582 0.584805 0.171791
231 1 0.587481 0.496108 0.258063
232 1 0.490817 0.584194 0.24238
233 1 0.659961 0.506115 0.168726
234 1 0.739617 0.57961 0.16035
235 1 0.743452 0.49919 0.244346
236 1 0.667782 0.582616 0.260714
237 1 0.834724 0.497439 0.160189
238 1 0.919135 0.595673 0.163906
239 1 0.9157 0.490296 0.250423
240 1 0.830794 0.57232 0.251485
241 1 0.998647 0.676598 0.163224
242 1 0.0844891 0.756342 0.163692
243 1 0.0840302 0.670375 0.253198
244 1 -0.00716357 0.756567 0.247954
245 1 0.162515 0.672878 0.159788
246 1 0.241976 0.751192 0.154113
247 1 0.238291 0.655218 0.250118
248 1 0.167966 0.75124 0.243557
249 1 0.346832 0.669913 0.16895
250 1 0.415344 0.752752 0.163953
251 1 0.410968 0.664996 0.259235
252 1 0.320085 0.74421 0.246816
253 1 0.493336 0.671027 0.169708
254 1 0.574417 0.754822 0.167894
255 1 0.588409 0.662386 0.255103
256 1 0.497261 0.743608 0.252729
257 1 0.668168 0.658201 0.16741
258 1 0.745111 0.744557 0.17496
259 1 0.753842 0.656742 0.242059
260 1 0.661828 0.756199 0.248036
261 1 0.838381 0.665827 0.164991
262 1 0.91651 0.752262 0.169768
263 1 0.919339 0.679891 0.248701
264 1 0.837637 0.749547 0.238865
265 1 1.00226 0.836601 0.164034
266 1 0.0792405 0.919855 0.169604
267 1 0.0802595 0.831719 0.253173
268 1 0.989595 0.904953 0.243761
269 1 0.166626 0.830434 0.156317
270 1 0.248479 0.926672 0.173003
271 1 0.250101 0.839146 0.24594
272 1 0.162679 0.920187 0.253064
273 1 0.321294 0.837217 0.160992
274 1 0.403503 0.915688 0.16458
275 1 0.405667 0.824478 0.244062
276 1 0.337076 0.914875 0.26087
277 1 0.502854 0.832336 0.169454
278 1 0.588504 0.916265 0.160526
279 1 0.583952 0.828722 0.246783
280 1 0.497234 0.922868 0.258267
281 1 0.672973 0.841907 0.172425
282 1 0.755174 0.92284 0.162679
283 1 0.758983 0.835403 0.258081
284 1 0.662968 0.922709 0.252206
285 1 0.822551 0.836175 0.168806
286 1 0.910422 0.917769 0.162119
287 1 0.912808 0.834576 0.252908
288 1 0.82886 0.93023 0.253272
289 1 0.995228 0.00228357 0.344361
290 1 0.074928 0.0758192 0.328655
291 1 0.0788205 0.00916563 0.418317
292 1 -0.00392955 0.0852478 0.425533
293 1 0.15579 0.00175137 0.336787
294 1 0.250536 0.0853015 0.334551
295 1 0.255742 -0.000597565 0.418835
296 1 0.165226 0.0853058 0.418026
297 1 0.331251 0.993215 0.332825
298 1 0.426733 0.0751582 0.341035
299 1 0.407296 0.998654 0.414906
300 1 0.338496 0.0829858 0.418456
301 1 0.508378 -0.00239444 0.337837
302 1 0.57978 0.0836 0.326781
303 1 0.583232 0.988514 0.423641
304 1 0.513763 0.101193 0.406575
305 1 0.653484 -0.00786486 0.341176
306 1 0.757258 0.0907192 0.337309
307 1 0.747729 0.00436092 0.409869
308 1 0.666536 0.0896166 0.409598
309 1 0.83447 -0.000704202 0.34388
310 1 0.911082 0.0738471 0.332996
311 1 0.924608 -0.00613514 0.428936
312 1 0.838445 0.0781409 0.425589
313 1 1.00511 0.159631 0.344624
314 1 0.0813393 0.253124 0.33347
315 1 0.0866267 0.16554 0.42222
316 1 0.999014 0.25362 0.412756
317 1 0.17005 0.166236 0.335254
318 1 0.252342 0.259492 0.343137
319 1 0.258399 0.157516 0.419872
320 1 0.156636 0.253133 0.411286
321 1 0.327321 0.171846 0.333724
322 1 0.422503 0.250387 0.339247
323 1 0.412778 0.159657 0.414091
324 1 0.331792 0.272523 0.418187
325 1 0.502752 0.174123 0.32381
326 1 0.605902 0.260888 0.326466
327 1 0.598913 0.17111 0.417606
328 1 0.529584 0.250723 0.405945
329 1 0.67967 0.172885 0.321065
330 1 0.763052 0.238985 0.332099
331 1 0.751473 0.157475 0.425714
332 1 0.676392 0.25877 0.426844
333 1 0.840305 0.158304 0.346153
334 1 0.909077 0.245979 0.333952
335 1 0.911273 0.173298 0.423549
336 1 0.832241 0.245529 0.418841
337 1 -0.00343899 0.33471 0.331369
338 1 0.0800171 0.413047 0.336817
339 1 0.0798757 0.341573 0.42529
340 1 0.989402 0.413733 0.417387
341 1 0.171244 0.331702 0.33801
342 1 0.241809 0.421297 0.330306
343 1 0.252659 0.346821 0.415939
344 1 0.162646 0.413624 0.417455
345 1 0.344189 0.340204 0.329062
346 1 0.420977 0.422686 0.32688
347 1 0.426784 0.33959 0.411235
348 1 0.332175 0.415796 0.416033
349 1 0.511539 0.331262 0.321791
350 1 0.603849 0.422009 0.334395
351 1 0.599961 0.334111 0.416429
352 1 0.517145 0.411062 0.40698
353 1 0.688492 0.325368 0.324757
354 1 0.762423 0.419721 0.329646
355 1 0.765652 0.329125 0.430009
356 1 0.684205 0.409216 0.409871
357 1 0.828579 0.338451 0.340593
358 1 0.91148 0.417411 0.327909
359 1 0.907951 0.323227 0.429653
360 1 0.841512 0.417371 0.419947
361 1 0.995344 0.49119 0.335749
362 1 0.0789403 0.582271 0.318787
363 1 0.0899823 0.498025 0.41896
364 1 0.00219014 0.588911 0.412874
365 1 0.150951 0.500493 0.322919
366 1 0.234664 0.574797 0.328044
367 1 0.238806 0.503164 0.417184
368 1 0.1638 0.582841 0.40518
369 1 0.329811 0.483874 0.32687
370 1 0.438099 0.587256 0.341141
371 1 0.419725 0.494598 0.410635
372 1 0.325153 0.567518 0.405238
373 1 0.500384 0.496156 0.332674
374 1 0.572851 0.583206 0.330761
375 1 0.575462 0.498979 0.41348
376 1 0.515078 0.586568 0.427871
377 1 0.68072 0.496794 0.33406
378 1 0.752044 0.579096 0.322255
379 1 0.75307 0.494308 0.428737
380 1 0.677035 0.571746 0.411843
381 1 0.83129 0.500511 0.327442
382 1 0.919784 0.584161 0.325086
383 1 0.90744 0.510986 0.408254
384 1 0.825479 0.582689 0.416314
385 1 0.00294908 0.66421 0.32253
386 1 0.0843701 0.754266 0.332491
387 1 0.0829798 0.669378 0.407065
388 1 -0.00215911 0.74934 0.412887
389 1 0.169021 0.662304 0.327482
390 1 0.248231 0.764789 0.329811
391 1 0.255479 0.662314 0.414653
392 1 0.177686 0.74249 0.406199
393 1 0.316246 0.666396 0.328809
394 1 0.417033 0.748038 0.327878
395 1 0.415495 0.662339 0.419102
396 1 0.345174 0.74423 0.409593
397 1 0.502178 0.670282 0.339286
398 1 0.588374 0.755946 0.329825
399 1 0.595958 0.675725 0.410537
400 1 0.494725 0.752004 0.417753
401 1 0.677268 0.677019 0.318684
402 1 0.7562 0.753246 0.327314
403 1 0.74362 0.655601 0.402957
404 1 0.674049 0.749214 0.407512
405 1 0.834231 0.66616 0.334155
406 1 0.920843 0.757157 0.340236
407 1 0.918366 0.659259 0.414764
408 1 0.828406 0.742629 0.408098
409 1 0.000848227 0.838251 0.331412
410 1 0.074773 0.923279 0.33174
411 1 0.0871741 0.836949 0.414233
412 1 0.00133736 0.915438 0.418537
413 1 0.163643 0.832543 0.338164
414 1 0.24622 0.918824 0.339366
415 1 0.252535 0.831367 0.411102
416 1 0.162513 0.923754 0.407417
417 1 0.340753 0.833625 0.326146
418 1 0.418008 0.902462 0.340438
419 1 0.404372 0.831537 0.436234
420 1 0.332397 0.911471 0.423783
421 1 0.500863 0.826546 0.335401
422 1 0.571338 0.913457 0.341924
423 1 0.592728 0.82412 0.41411
424 1 0.497157 0.901915 0.429187
425 1 0.671092 0.832986 0.327688
426 1 0.748595 0.916554 0.342117
427 1 0.758899 0.831203 0.41558
428 1 0.665782 0.907312 0.411409
429 1 0.836431 0.840016 0.333407
430 1 0.924617 0.913193 0.334614
431 1 0.924899 0.839409 0.419742
432 1 0.845231 0.915211 0.414081
433 1 0.00676482 0.0113832 0.515274
434 1 0.0880309 0.0872857 0.502772
435 1 0.0905003 1.006 0.58444
436 1 0.000776609 0.0842558 0.596698
437 1 0.167506 -0.00262804 0.497497
438 1 0.256665 0.0859359 0.501737
439 1 0.252034 0.00457037 0.588911
440 1 0.164028 0.0907236 0.594686
441 1 0.334167 0.00270388 0.506681
442 1 0.420481 0.086595 0.491674
443 1 0.425033 0.0112583 0.582193
444 1 0.338679 0.0899782 0.580343
445 1 0.494401 0.0141924 0.479046
446 1 0.587539 0.0752661 0.486982
447 1 0.560937 -0.00196773 0.56843
448 1 0.503498 0.0917154 0.564161
449 1 0.665219 -0.00411977 0.494609
450 1 0.744115 0.0791595 0.504667
451 1 0.758004 0.992881 0.577912
452 1 0.666141 0.0752109 0.579351
453 1 0.824175 0.996117 0.489729
454 1 0.919293 0.0873219 0.519845
455 1 0.907643 0.994291 0.567107
456 1 0.838299 0.0847921 0.584953
457 1 0.00111979 0.153876 0.50596
458 1 0.0983942 0.259204 0.499361
459 1 0.0930032 0.172292 0.576736
460 1 0.00419631 0.244401 0.56929
461 1 0.169189 0.166762 0.49898
462 1 0.24188 0.24762 0.488231
463 1 0.258398 0.176268 0.579222
464 1 0.174927 0.249838 0.582155
465 1 0.333854 0.189384 0.488595
466 1 0.425506 0.240253 0.493908
467 1 0.412311 0.179154 0.583702
468 1 0.335712 0.267352 0.583853
469 1 0.506726 0.168559 0.492728
470 1 0.586638 0.268879 0.512028
471 1 0.57786 0.172154 0.578615
472 1 0.49584 0.263069 0.582726
473 1 0.670789 0.173364 0.506783
474 1 0.755122 0.261158 0.506122
475 1 0.74627 0.174231 0.593175
476 1 0.675052 0.25505 0.586692
477 1 0.826621 0.167183 0.50341
478 1 0.90407 0.255592 0.519882
479 1 0.91656 0.165608 0.589279
480 1 0.829645 0.240883 0.595015
481 1 -0.0113217 0.332872 0.499194
482 1 0.0760711 0.414246 0.501648
483 1 0.0914317 0.337405 0.577534
484 1 -0.00534399 0.417859 0.58703
485 1 0.16405 0.342419 0.497422
486 1 0.24879 0.416768 0.504533
487 1 0.24531 0.340728 0.581392
488 1 0.160337 0.420429 0.591935
489 1 0.330111 0.346971 0.495421
490 1 0.410252 0.415397 0.492194
491 1 0.410139 0.34533 0.576311
492 1 0.324275 0.42486 0.579331
493 1 0.498365 0.330203 0.499358
494 1 0.587773 0.432599 0.498477
495 1 0.588281 0.341432 0.595814
496 1 0.500242 0.41502 0.572869
497 1 0.663821 0.34188 0.508209
498 1 0.747802 0.413951 0.510947
499 1 0.749255 0.334769 0.589281
500 1 0.65968 0.423438 0.587926
501 1 0.83462 0.346759 0.511309
502 1 0.917622 0.428431 0.499099
503 1 0.921617 0.343842 0.575336
504 1 0.832376 0.416211 0.59187
505 1 0.000829299 0.495868 0.497493
506 1 0.0807991 0.590845 0.502309
507 1 0.0784741 0.498822 0.579886
508 1 1.00048 0.580861 0.594656
509 1 0.166702 0.499372 0.499957
510 1 0.247435 0.585307 0.506918
511 1 0.253141 0.505984 0.591371
512 1 0.163816 0.58551 0.594304
513 1 0.326246 0.501937 0.494044
514 1 0.405164 0.581228 0.484602
515 1 0.416781 0.512176 0.573395
516 1 0.33135 0.584564 0.588059
517 1 0.492625 0.495049 0.499733
518 1 0.598546 0.587469 0.499666
519 1 0.582707 0.502047 0.582661
520 1 0.50176 0.58121 0.577765
521 1 0.680637 0.507857 0.506733
522 1 0.751008 0.593673 0.517394
523 1 0.760056 0.505027 0.583015
524 1 0.661355 0.588467 0.581558
525 1 0.835864 0.503221 0.505542
526 1 0.922453 0.577909 0.501239
527 1 0.916701 0.500985 0.584463
528 1 0.840848 0.593937 0.584956
529 1 -0.00282857 0.654146 0.521653
530 1 0.0868681 0.746182 0.507264
531 1 0.0868188 0.673706 0.583025
532 1 0.998691 0.748304 0.578385
533 1 0.163199 0.669446 0.495954
534 1 0.24455 0.73873 0.495327
535 1 0.24913 0.663299 0.589243
536 1 0.175767 0.750115 0.587913
537 1 0.323625 0.672098 0.49928
538 1 0.423257 0.74364 0.508016
539 1 0.428731 0.660956 0.57758
540 1 0.327257 0.743731 0.588479
541 1 0.506301 0.666541 0.497824
542 1 0.587269 0.746884 0.503421
543 1 0.583371 0.671691 0.586073
544 1 0.504886 0.753841 0.596326
545 1 0.668854 0.668658 0.490285
546 1 0.752938 0.750023 0.501505
547 1 0.763987 0.676507 0.587718
548 1 0.671517 0.754407 0.592061
549 1 0.842581 0.676128 0.499516
550 1 0.92267 0.751985 0.489303
551 1 0.9223 0.672436 0.588641
552 1 0.848242 0.754761 0.597958
553 1 0.0121469 0.838233 0.498524
554 1 0.0903902 0.919531 0.499227
555 1 0.0949739 0.837808 0.574002
556 1 0.00819571 0.91851 0.585293
557 1 0.166964 0.830699 0.494236
558 1 0.246584 0.918964 0.504025
559 1 0.250669 0.826953 0.592298
560 1 0.177895 0.911809 0.589122
561 1 0.317822 0.832789 0.50177
562 1 0.412279 0.915611 0.510009
563 1 0.410986 0.829944 0.582545
564 1 0.318773 0.907756 0.587569
565 1 0.497991 0.826393 0.506449
566 1 0.588396 0.911241 0.496803
567 1 0.59089 0.832211 0.584369
568 1 0.493661 0.912068 0.57772
569 1 0.66995 0.82527 0.489968
570 1 0.747746 0.91544 0.483716
571 1 0.754708 0.830395 0.580942
572 1 0.676541 0.913606 0.57007
573 1 0.83596 0.823297 0.490986
574 1 0.924635 0.910448 0.500841
575 1 0.930006 0.839151 0.574201
576 1 0.837217 0.907582 0.565481
577 1 0.0135064 0.992648 0.664645
578 1 0.0873859 0.0839002 0.669294
579 1 0.0802575 -0.00176376 0.747313
580 1 -0.000667687 0.0940731 0.739214
581 1 0.168052 -0.00133577 0.663491
582 1 0.255091 0.101167 0.665723
583 1 0.252491 0.996677 0.750616
584 1 0.165565 0.0875549 0.752638
585 1 0.334654 0.00874884 0.671237
586 1 0.411817 0.097446 0.683237
587 1 0.407332 1.00266 0.755017
588 1 0.325871 0.0776642 0.758441
589 1 0.498239 0.0145244 0.652991
590 1 0.583905 0.0888937 0.652029
591 1 0.58127 1.00805 0.726305
592 1 0.483615 0.0911938 0.76216
593 1 0.664004 -0.00706757 0.651762
594 1 0.740687 0.0792329 0.657767
595 1 0.750324 0.994061 0.735933
596 1 0.660347 0.0831752 0.731053
597 1 0.834704 0.00237102 0.669452
598 1 0.917567 0.0801515 0.675229
599 1 0.918801 1.00115 0.751278
600 1 0.836394 0.0799054 0.751681
601 1 0.00734099 0.17482 0.668547
602 1 0.0909855 0.258212 0.653408
603 1 0.0791249 0.167818 0.745619
604 1 0.00608078 0.249931 0.749272
605 1 0.169564 0.18133 0.671848
606 1 0.250896 0.256709 0.669768
607 1 0.248666 0.168783 0.760764
608 1 0.160943 0.252851 0.746293
609 1 0.336081 0.174309 0.660588
610 1 0.425223 0.251715 0.667131
611 1 0.406465 0.170087 0.758966
612 1 0.338504 0.257818 0.739732
613 1 0.508516 0.178356 0.665901
614 1 0.591771 0.266577 0.672739
615 1 0.582027 0.149678 0.752045
616 1 0.528439 0.242242 0.748109
617 1 0.660126 0.177896 0.668732
618 1 0.751352 0.259563 0.670443
619 1 0.747445 0.164679 0.749302
620 1 0.671157 0.250863 0.750963
621 1 0.826985 0.159877 0.67505
622 1 0.923151 0.266217 0.660774
623 1 0.920789 0.168962 0.742472
624 1 0.840795 0.250674 0.74131
625 1 1.0022 0.335766 0.654638
626 1 0.0790125 0.412164 0.674937
627 1 0.081687 0.324178 0.738141
628 1 0.992831 0.424662 0.750105
629 1 0.169579 0.33621 0.66628
630 1 0.257041 0.422312 0.667757
631 1 0.249254 0.340634 0.750752
632 1 0.16687 0.418825 0.746063
633 1 0.321805 0.337043 0.664175
634 1 0.413227 0.422612 0.660288
635 1 0.412418 0.337287 0.754377
636 1 0.328756 0.418531 0.74775
637 1 0.49503 0.334137 0.681164
638 1 0.576116 0.416509 0.665598
639 1 0.593193 0.325862 0.766591
640 1 0.492738 0.421265 0.75154
641 1 0.66567 0.338648 0.680448
642 1 0.75153 0.404816 0.679616
643 1 0.74575 0.331264 0.764975
644 1 0.667171 0.413297 0.760249
645 1 0.840133 0.33576 0.65868
646 1 0.912209 0.420024 0.672768
647 1 0.92865 0.329799 0.752972
648 1 0.827603 0.40891 0.747385
649 1 0.992127 0.498742 0.667142
650 1 0.0794392 0.58667 0.668189
651 1 0.0788068 0.501474 0.747461
652 1 0.00630947 0.595854 0.74825
653 1 0.158577 0.493295 0.661835
654 1 0.254272 0.577275 0.669157
655 1 0.245862 0.501342 0.748352
656 1 0.164809 0.575127 0.741106
657 1 0.333639 0.495636 0.665901
658 1 0.421448 0.580175 0.654659
659 1 0.418349 0.499335 0.742685
660 1 0.331702 0.573036 0.747233
661 1 0.499835 0.49778 0.664354
662 1 0.596069 0.581517 0.665952
663 1 0.594476 0.507188 0.751422
664 1 0.503622 0.585825 0.753872
665 1 0.675034 0.496604 0.670095
666 1 0.746422 0.582722 0.662088
667 1 0.762725 0.494588 0.759859
668 1 0.677578 0.57346 0.758152
669 1 0.81976 0.496982 0.670001
670 1 0.916105 0.594338 0.668652
671 1 0.907376 0.503055 0.745084
672 1 0.829619 0.584887 0.736364
673 1 -0.0026554 0.689461 0.669515
674 1 0.087029 0.759355 0.663126
675 1 0.0804718 0.670454 0.757626
676 1 0.998594 0.764931 0.751358
677 1 0.17588 0.659049 0.670135
678 1 0.25286 0.746294 0.675231
679 1 0.245388 0.659636 0.770446
680 1 0.169812 0.748498 0.744964
681 1 0.335581 0.665254 0.675239
682 1 0.40999 0.744309 0.668009
683 1 0.421478 0.671107 0.758995
684 1 0.33059 0.743313 0.748316
685 1 0.498529 0.667509 0.665244
686 1 0.583333 0.76636 0.672773
687 1 0.58683 0.666645 0.747267
688 1 0.499691 0.752715 0.756535
689 1 0.666437 0.669815 0.661676
690 1 0.755888 0.746936 0.668697
691 1 0.739228 0.667331 0.746164
692 1 0.669309 0.750601 0.750442
693 1 0.840323 0.674859 0.674969
694 1 0.918432 0.758758 0.675723
695 1 0.926313 0.671507 0.753252
696 1 0.831229 0.755989 0.750516
697 1 -0.00489305 0.84304 0.664972
698 1 0.0927185 0.916378 0.668091
699 1 0.0864511 0.838169 0.748175
700 1 1.00125 0.920148 0.750945
701 1 0.174117 0.829513 0.670236
702 1 0.254842 0.912159 0.678802
703 1 0.266219 0.832118 0.748287
704 1 0.169419 0.908768 0.747147
705 1 0.341414 0.832499 0.666478
706 1 0.414814 0.930509 0.661733
707 1 0.413364 0.822613 0.750246
708 1 0.333271 0.913126 0.759179
709 1 0.489174 0.841798 0.665497
710 1 0.589842 0.912863 0.66352
711 1 0.580142 0.844222 0.756363
712 1 0.501812 0.916722 0.748673
713 1 0.664592 0.83024 0.67203
714 1 0.751213 0.904441 0.66662
715 1 0.754496 0.828641 0.758314
716 1 0.666623 0.926482 0.742776
717 1 0.830526 0.832963 0.669938
718 1 0.910279 0.919043 0.661688
719 1 0.91697 0.841318 0.752829
720 1 0.842253 0.917786 0.746757
721 1 1.00367 -0.00430539 0.830303
722 1 0.0970555 0.0985817 0.835237
723 1 0.0955599 0.00679951 0.903452
724 1 0.00194663 0.071647 0.912886
725 1 0.161131 0.000877324 0.820473
726 1 0.242338 0.0834048 0.837534
727 1 0.245311 -7.57937e-05 0.926868
728 1 0.172818 0.0874463 0.933616
729 1 0.331196 0.00120471 0.843284
730 1 0.410598 0.0892544 0.844853
731 1 0.408139 1.00754 0.916448
732 1 0.331774 0.0840617 0.927402
733 1 0.491023 1.00541 0.825978
734 1 0.569162 0.0796381 0.835414
735 1 0.581752 0.995052 0.918038
736 1 0.486096 0.0855285 0.925668
737 1 0.666423 1.00703 0.818342
738 1 0.750265 0.0838167 0.817746
739 1 0.737044 1.00096 0.90734
740 1 0.66599 0.0864598 0.900799
741 1 0.835132 1.00408 0.826623
742 1 0.921363 0.0859729 0.834192
743 1 0.921907 0.996997 0.911528
744 1 0.834546 0.084215 0.916582
745 1 0.00343654 0.166325 0.832935
746 1 0.0892666 0.251214 0.835131
747 1 0.0817264 0.169322 0.920302
748 1 0.00608944 0.252234 0.910528
749 1 0.174653 0.16593 0.838529
750 1 0.247483 0.252873 0.833572
751 1 0.253193 0.160715 0.922434
752 1 0.167814 0.244253 0.915293
753 1 0.329133 0.161571 0.836622
754 1 0.414275 0.254215 0.833465
755 1 0.41972 0.169202 0.914152
756 1 0.329753 0.24378 0.918225
757 1 0.496372 0.170571 0.835641
758 1 0.584935 0.253457 0.840902
759 1 0.581197 0.16097 0.908798
760 1 0.493388 0.247152 0.914952
761 1 0.666515 0.158957 0.819526
762 1 0.751153 0.239843 0.833913
763 1 0.751291 0.162282 0.910557
764 1 0.665951 0.234147 0.907122
765 1 0.84264 0.163267 0.828594
766 1 0.927114 0.242945 0.834104
767 1 0.923637 0.159482 0.913123
768 1 0.836055 0.248882 0.907677
769 1 0.00290835 0.329577 0.834532
770 1 0.0716278 0.421557 0.826245
771 1 0.0778715 0.340519 0.927256
772 1 0.0122873 0.428497 0.925772
773 1 0.164909 0.344658 0.833441
774 1 0.260031 0.421566 0.834573
775 1 0.255994 0.333703 0.91762
776 1 0.16105 0.411896 0.918381
777 1 0.331243 0.33114 0.829837
778 1 0.41065 0.419755 0.82995
779 1 0.414559 0.325719 0.919528
780 1 0.342005 0.407742 0.921748
781 1 0.497424 0.32515 0.833256
782 1 0.589915 0.416308 0.840281
783 1 0.581162 0.324365 0.927054
784 1 0.496067 0.405556 0.923284
785 1 0.663823 0.331559 0.844738
786 1 0.751912 0.407988 0.842907
787 1 0.757375 0.319224 0.915498
788 1 0.654025 0.410886 0.925564
789 1 0.837571 0.336536 0.82901
790 1 0.910707 0.414113 0.821785
791 1 0.920721 0.333756 0.920771
792 1 0.837252 0.413544 0.909532
793 1 0.00782307 0.509087 0.843
794 1 0.0941129 0.573499 0.830936
795 1 0.091812 0.507465 0.915469
796 1 -0.00937101 0.583758 0.925713
797 1 0.162009 0.491077 0.832762
798 1 0.2494 0.567132 0.831468
799 1 0.243264 0.497864 0.917486
800 1 0.168967 0.586299 0.916477
801 1 0.33875 0.505563 0.832673
802 1 0.417578 0.586803 0.832805
803 1 0.425284 0.499645 0.915154
804 1 0.333491 0.574804 0.915841
805 1 0.487026 0.502453 0.829561
806 1 0.58645 0.576727 0.835656
807 1 0.575763 0.498084 0.912879
808 1 0.505238 0.587007 0.917354
809 1 0.662226 0.495549 0.834606
810 1 0.749637 0.591896 0.830038
811 1 0.751239 0.502531 0.908688
812 1 0.66886 0.580219 0.913023
813 1 0.838426 0.509564 0.835164
814 1 0.913039 0.579289 0.825763
815 1 0.914966 0.498508 0.914489
816 1 0.833281 0.591381 0.919269
817 1 1.00784 0.657894 0.833865
818 1 0.0743183 0.750942 0.826031
819 1 0.0791457 0.657695 0.916294
820 1 1.00301 0.748155 0.911245
821 1 0.159952 0.664195 0.835647
822 1 0.245316 0.751054 0.825805
823 1 0.252077 0.6633 0.909161
824 1 0.168457 0.753539 0.904435
825 1 0.334087 0.669935 0.831785
826 1 0.411126 0.748339 0.832519
827 1 0.417747 0.672509 0.914099
828 1 0.331327 0.755209 0.91
829 1 0.499599 0.668101 0.841888
830 1 0.587648 0.756469 0.838322
831 1 0.582582 0.66323 0.914428
832 1 0.505469 0.753833 0.914912
833 1 0.665849 0.66591 0.832319
834 1 0.750817 0.737591 0.832745
835 1 0.746964 0.668988 0.915711
836 1 0.670926 0.736429 0.923147
837 1 0.840921 0.6697 0.820825
838 1 0.91738 0.744186 0.833576
839 1 0.917243 0.667619 0.922722
840 1 0.82643 0.747027 0.915288
841 1 0.0046157 0.838543 0.831265
842 1 0.0847434 0.921661 0.830761
843 1 0.0840318 0.832756 0.907623
844 1 0.00914765 0.91469 0.918114
845 1 0.172884 0.8378 0.826232
846 1 0.250761 0.924104 0.845253
847 1 0.23143 0.837231 0.924117
848 1 0.159934 0.924371 0.920752
849 1 0.328835 0.83482 0.836824
850 1 0.412276 0.922927 0.841445
851 1 0.414042 0.837629 0.921402
852 1 0.332482 0.913922 0.919966
853 1 0.502988 0.830053 0.836037
854 1 0.579677 0.927161 0.836272
855 1 0.586563 0.82983 0.920736
856 1 0.494403 0.917026 0.921783
857 1 0.663406 0.840473 0.835846
858 1 0.751615 0.918326 0.829334
859 1 0.746489 0.829781 0.911241
860 1 0.663097 0.918635 0.914937
861 1 0.82954 0.830269 0.832538
862 1 0.922663 0.917415 0.830687
863 1 0.922958 0.835796 0.906299
864 1 0.832786 0.908685 0.90876
