ITEM: TIMESTEP
250
ITEM: NUMBER OF ATOMS
864
ITEM: BOX BOUNDS pp pp pp
0.0000000000000000e+00 3.1559999999999999e+01
0.0000000000000000e+00 3.1559999999999999e+01
0.0000000000000000e+00 3.1559999999999999e+01
ITEM: ATOMS id type xs ys zs
1 1 0.997257 -0.00674604 -0.000902686
2 1 0.0821704 0.0904768 0.0010328
3 1 0.0856414 -0.00209347 0.0891482
4 1 -0.00438629 0.0773694 0.0901225
5 1 0.167646 0.00289689 -0.00527588
6 1 0.257243 0.0889863 -0.0091739
7 1 0.261208 0.00484387 0.0844519
8 1 0.174747 0.085186 0.0720152
9 1 0.333629 0.00744898 -0.00367357
10 1 0.420469 0.0862731 0.00188718
11 1 0.413043 -0.00292502 0.0846912
12 1 0.337992 0.0845416 0.0879119
13 1 0.497387 0.991752 0.00144295
14 1 0.586851 0.0808655 -0.0124645
15 1 0.581349 1.0007 0.0881821
16 1 0.509524 0.0818879 0.0755907
17 1 0.648695 0.99981 0.0050606
18 1 0.750278 0.0814224 1.00321
19 1 0.738634 0.98904 0.088965
20 1 0.663469 0.0727868 0.081905
21 1 0.825962 0.992752 -0.00499412
22 1 0.912466 0.095052 0.00181105
23 1 0.91427 -0.00495259 0.0735497
24 1 0.84335 0.094764 0.0825543
25 1 -0.000805866 0.172334 1.00219
26 1 0.083178 0.247664 -0.00579151
27 1 0.0891737 0.161435 0.0850572
28 1 0.0123288 0.244655 0.0744151
29 1 0.162771 0.172581 0.994782
30 1 0.237506 0.259966 0.0124129
31 1 0.244317 0.171609 0.0801212
32 1 0.164475 0.25399 0.0839179
33 1 0.328065 0.171886 0.0141137
34 1 0.398326 0.261562 0.00680505
35 1 0.417402 0.171363 0.0760526
36 1 0.327551 0.245731 0.0832656
37 1 0.50138 0.173036 0.0115312
38 1 0.584003 0.274869 -0.00346152
39 1 0.586644 0.166681 0.0690659
40 1 0.507276 0.259368 0.083372
41 1 0.661163 0.175852 0.988682
42 1 0.752204 0.247647 0.00394347
43 1 0.75116 0.162229 0.0781984
44 1 0.664947 0.25032 0.0803734
45 1 0.826857 0.156018 0.994724
46 1 0.915605 0.250123 0.00652836
47 1 0.924159 0.169572 0.0834528
48 1 0.830841 0.242773 0.0875834
49 1 0.986475 0.337773 0.999055
50 1 0.072698 0.408484 0.00779861
51 1 0.0786302 0.336315 0.0850648
52 1 0.981421 0.433736 0.0870758
53 1 0.150989 0.33365 0.00607367
54 1 0.257591 0.417783 0.0139745
55 1 0.248215 0.336918 0.082106
56 1 0.172067 0.421065 0.0959553
57 1 0.338826 0.346618 0.0078089
58 1 0.413477 0.422348 0.989936
59 1 0.422232 0.336344 0.0848762
60 1 0.33877 0.425956 0.0828396
61 1 0.496425 0.34539 1.00069
62 1 0.57223 0.420849 -0.00785737
63 1 0.583265 0.339852 0.0772125
64 1 0.496971 0.42025 0.0839698
65 1 0.66525 0.350519 0.999567
66 1 0.749618 0.419194 0.00724708
67 1 0.750685 0.343726 0.0904572
68 1 0.666268 0.418724 0.0940553
69 1 0.836767 0.336838 -0.00860927
70 1 0.917534 0.423199 0.996598
71 1 0.916494 0.333976 0.0816279
72 1 0.833073 0.413725 0.0868144
73 1 0.996737 0.499301 -0.00528254
74 1 0.0828147 0.572141 -0.00616088
75 1 0.074715 0.496336 0.0971687
76 1 0.988734 0.583319 0.0824943
77 1 0.162818 0.49649 0.0100675
78 1 0.254169 0.578077 1.01209
79 1 0.249959 0.49908 0.0873045
80 1 0.164594 0.569579 0.0890438
81 1 0.339025 0.49997 -0.00917163
82 1 0.407918 0.5867 1.00655
83 1 0.414092 0.502509 0.0760361
84 1 0.34713 0.584447 0.0875119
85 1 0.490474 0.496445 0.999358
86 1 0.588442 0.568032 0.999726
87 1 0.586324 0.49574 0.0820456
88 1 0.497263 0.588197 0.0792655
89 1 0.671328 0.496453 0.00172864
90 1 0.74402 0.591366 1.00261
91 1 0.750932 0.498871 0.0757193
92 1 0.671715 0.588796 0.0872243
93 1 0.824336 0.501203 0.98997
94 1 0.897294 0.588176 -0.000813336
95 1 0.886775 0.505579 0.0739091
96 1 0.820054 0.586336 0.0965669
97 1 0.985049 0.657163 0.0104889
98 1 0.0878343 0.756356 0.992231
99 1 0.0754165 0.666802 0.0720744
100 1 0.996677 0.757908 0.0611115
101 1 0.170728 0.650289 0.0114891
102 1 0.249504 0.741579 0.00333308
103 1 0.252845 0.642495 0.0927008
104 1 0.168212 0.760559 0.0792677
105 1 0.336699 0.670322 -0.000354904
106 1 0.412384 0.756454 0.996831
107 1 0.425166 0.666778 0.0879319
108 1 0.344501 0.744056 0.0856109
109 1 0.502101 0.664819 0.984488
110 1 0.567828 0.753659 0.00155174
111 1 0.577087 0.66886 0.0746338
112 1 0.500308 0.758053 0.0815179
113 1 0.656584 0.665784 1.00756
114 1 0.74862 0.752567 0.99397
115 1 0.7532 0.669697 0.0691118
116 1 0.667053 0.757024 0.0742147
117 1 0.832534 0.677688 0.99557
118 1 0.908055 0.757286 0.983337
119 1 0.898788 0.668003 0.0838621
120 1 0.831586 0.758874 0.0704989
121 1 0.993771 0.831082 0.980155
122 1 0.0815973 0.912475 -0.0112793
123 1 0.0763251 0.848441 0.0821716
124 1 0.985536 0.916576 0.0820982
125 1 0.163063 0.839489 1.00466
126 1 0.258005 0.917669 0.998554
127 1 0.263049 0.828601 0.0785495
128 1 0.159009 0.914588 0.0834134
129 1 0.334488 0.832217 1.00021
130 1 0.410695 0.91381 0.99469
131 1 0.415647 0.840516 0.0780559
132 1 0.335432 0.931185 0.0800456
133 1 0.50244 0.838655 0.997886
134 1 0.58091 0.920521 1.00101
135 1 0.587292 0.839903 0.0804993
136 1 0.5137 0.913522 0.0839512
137 1 0.652798 0.830802 -0.00470801
138 1 0.737131 0.916319 0.991699
139 1 0.747513 0.846958 0.0756211
140 1 0.665616 0.911131 0.0895105
141 1 0.818954 0.832966 0.985779
142 1 0.91068 0.909346 0.984934
143 1 0.915838 0.829054 0.0741544
144 1 0.82861 0.918321 0.0857103
145 1 1.00439 0.997216 0.165504
146 1 0.0935454 0.0785005 0.165512
147 1 0.0803248 0.00165776 0.252601
148 1 0.995859 0.0773413 0.248119
149 1 0.168827 0.999045 0.167172
150 1 0.251263 0.078107 0.161462
151 1 0.25688 0.992447 0.246693
152 1 0.166969 0.0714018 0.254353
153 1 0.337748 -0.0016593 0.160966
154 1 0.433544 0.098271 0.164732
155 1 0.412172 0.00280296 0.237059
156 1 0.345577 0.0859679 0.239549
157 1 0.507698 -0.0050051 0.179271
158 1 0.592886 0.074167 0.160187
159 1 0.593942 0.00665452 0.255406
160 1 0.508644 0.0982357 0.249649
161 1 0.659987 0.989921 0.170139
162 1 0.754431 0.0892708 0.163606
163 1 0.748562 0.991755 0.247158
164 1 0.677064 0.0788912 0.237352
165 1 0.834821 1.01197 0.147782
166 1 0.914285 0.0889146 0.171619
167 1 0.918516 1.00485 0.247836
168 1 0.820672 0.0803106 0.246329
169 1 0.00528589 0.17522 0.156383
170 1 0.0759864 0.256549 0.168792
171 1 0.0730266 0.148215 0.256177
172 1 -0.000285136 0.230388 0.256707
173 1 0.168665 0.165099 0.156249
174 1 0.255018 0.252464 0.166207
175 1 0.241659 0.160482 0.24765
176 1 0.164276 0.247 0.241579
177 1 0.340464 0.168104 0.168087
178 1 0.419545 0.240482 0.165415
179 1 0.421367 0.171202 0.252885
180 1 0.331585 0.240819 0.248893
181 1 0.511655 0.179621 0.163382
182 1 0.597703 0.264617 0.166063
183 1 0.59779 0.187883 0.250438
184 1 0.499537 0.258821 0.243126
185 1 0.670216 0.161321 0.155688
186 1 0.746336 0.248427 0.158817
187 1 0.742885 0.171718 0.242671
188 1 0.671598 0.255193 0.260256
189 1 0.835162 0.159404 0.173494
190 1 0.920763 0.25578 0.161352
191 1 0.915988 0.152198 0.257436
192 1 0.838055 0.238832 0.251108
193 1 0.000687399 0.342681 0.163396
194 1 0.0898395 0.418804 0.179901
195 1 0.0979863 0.327955 0.246352
196 1 0.988664 0.41972 0.248376
197 1 0.164115 0.340932 0.165016
198 1 0.252303 0.427244 0.173331
199 1 0.249167 0.334458 0.256708
200 1 0.186059 0.423204 0.263455
201 1 0.330772 0.332928 0.165454
202 1 0.419953 0.40983 0.165769
203 1 0.406971 0.322742 0.240069
204 1 0.338052 0.407867 0.247283
205 1 0.513507 0.333881 0.17158
206 1 0.57391 0.422267 0.162424
207 1 0.58442 0.331461 0.254313
208 1 0.508503 0.423225 0.245676
209 1 0.664544 0.343836 0.1698
210 1 0.754357 0.427038 0.166435
211 1 0.750888 0.33245 0.257347
212 1 0.671543 0.41609 0.257654
213 1 0.837489 0.332712 0.170851
214 1 0.905683 0.41716 0.168924
215 1 0.924208 0.322488 0.243812
216 1 0.827443 0.414297 0.254067
217 1 0.996577 0.503921 0.174583
218 1 0.0786177 0.591187 0.170963
219 1 0.0755344 0.520867 0.253222
220 1 0.993704 0.587122 0.245591
221 1 0.168046 0.499961 0.178009
222 1 0.243201 0.565173 0.175234
223 1 0.263738 0.505941 0.258841
224 1 0.163958 0.58137 0.254662
225 1 0.337268 0.497907 0.171172
226 1 0.410798 0.578762 0.179273
227 1 0.421103 0.49437 0.255551
228 1 0.330965 0.591872 0.259359
229 1 0.49521 0.503521 0.162291
230 1 0.585615 0.579886 0.157175
231 1 0.582568 0.504699 0.256256
232 1 0.505298 0.578021 0.249479
233 1 0.661842 0.50034 0.161994
234 1 0.750118 0.581715 0.170876
235 1 0.73785 0.502977 0.248525
236 1 0.668048 0.58617 0.239884
237 1 0.830988 0.504382 0.160103
238 1 0.913356 0.582869 0.162169
239 1 0.906313 0.49949 0.241204
240 1 0.840509 0.598806 0.242126
241 1 0.988932 0.677286 0.165292
242 1 0.0747137 0.736157 0.172563
243 1 0.0719594 0.668568 0.255768
244 1 0.996202 0.753211 0.249071
245 1 0.173251 0.664783 0.156494
246 1 0.263619 0.757505 0.164036
247 1 0.245916 0.661181 0.24748
248 1 0.177882 0.744429 0.240358
249 1 0.339009 0.674594 0.169448
250 1 0.423238 0.757052 0.163027
251 1 0.41246 0.665107 0.251783
252 1 0.341623 0.750422 0.257197
253 1 0.501496 0.668979 0.169733
254 1 0.581715 0.748399 0.175259
255 1 0.582424 0.653331 0.248648
256 1 0.494716 0.748652 0.253168
257 1 0.674797 0.670973 0.161246
258 1 0.74346 0.747667 0.153421
259 1 0.746475 0.663513 0.24818
260 1 0.656021 0.736462 0.248704
261 1 0.818469 0.672427 0.155086
262 1 0.917202 0.75438 0.15443
263 1 0.917782 0.668974 0.248544
264 1 0.833259 0.743039 0.244962
265 1 1.00374 0.828906 0.162279
266 1 0.0826002 0.925056 0.16519
267 1 0.0796651 0.82834 0.249667
268 1 0.990455 0.921489 0.238599
269 1 0.160245 0.824641 0.172436
270 1 0.258414 0.91514 0.166774
271 1 0.251086 0.834846 0.251814
272 1 0.158525 0.920522 0.25741
273 1 0.340597 0.832074 0.168297
274 1 0.414146 0.919547 0.164373
275 1 0.422476 0.823802 0.24686
276 1 0.33454 0.906748 0.243929
277 1 0.498906 0.846286 0.179078
278 1 0.586746 0.919729 0.193044
279 1 0.588433 0.833479 0.268803
280 1 0.503391 0.920762 0.255233
281 1 0.662762 0.837638 0.171782
282 1 0.760375 0.914597 0.17422
283 1 0.740524 0.817659 0.239065
284 1 0.681416 0.905591 0.253588
285 1 0.825401 0.829714 0.154108
286 1 0.904085 0.919186 0.166897
287 1 0.908911 0.834857 0.242778
288 1 0.834872 0.913751 0.256419
289 1 -0.0115138 0.992916 0.337321
290 1 0.0874391 0.0738674 0.335893
291 1 0.0867404 0.985508 0.410498
292 1 0.000728407 0.075959 0.422308
293 1 0.174552 1.00109 0.337685
294 1 0.255966 0.0899644 0.324236
295 1 0.247503 0.987542 0.417501
296 1 0.171042 0.082657 0.418564
297 1 0.341425 1.00657 0.316729
298 1 0.429212 0.0841693 0.333871
299 1 0.410991 0.998283 0.411626
300 1 0.325235 0.0702863 0.403277
301 1 0.498268 1.00284 0.317563
302 1 0.589287 0.0763752 0.334946
303 1 0.576939 0.999905 0.411674
304 1 0.496368 0.0657192 0.409795
305 1 0.670083 -0.00964595 0.334617
306 1 0.744192 0.0790855 0.330859
307 1 0.758337 0.996243 0.415079
308 1 0.662014 0.083147 0.418997
309 1 0.834429 0.996836 0.321544
310 1 0.916989 0.0740568 0.343762
311 1 0.926645 0.998132 0.42422
312 1 0.839219 0.0843487 0.406924
313 1 -3.5101e-05 0.152587 0.338217
314 1 0.0758257 0.237166 0.324183
315 1 0.0756332 0.159087 0.418063
316 1 1.00082 0.251068 0.412715
317 1 0.157991 0.174277 0.330843
318 1 0.256266 0.24613 0.325506
319 1 0.239884 0.162637 0.428854
320 1 0.175041 0.253175 0.407041
321 1 0.338491 0.166674 0.331615
322 1 0.421237 0.242801 0.335502
323 1 0.413645 0.161287 0.408927
324 1 0.332515 0.241682 0.413796
325 1 0.512095 0.162952 0.337839
326 1 0.586178 0.250536 0.336976
327 1 0.585979 0.170086 0.420034
328 1 0.507523 0.241819 0.409521
329 1 0.664444 0.156276 0.328323
330 1 0.738747 0.232949 0.341627
331 1 0.745911 0.164814 0.422268
332 1 0.657998 0.244562 0.420914
333 1 0.831936 0.157716 0.325823
334 1 0.920079 0.251682 0.328974
335 1 0.913854 0.172489 0.405848
336 1 0.850142 0.252679 0.414536
337 1 1.00856 0.333992 0.325096
338 1 0.0792985 0.426572 0.323855
339 1 0.0853214 0.330255 0.401584
340 1 0.00588768 0.410327 0.400391
341 1 0.17256 0.346181 0.334744
342 1 0.2786 0.413571 0.34673
343 1 0.252529 0.332002 0.415847
344 1 0.17427 0.424424 0.40869
345 1 0.335737 0.312864 0.333454
346 1 0.40965 0.410709 0.331285
347 1 0.426737 0.322257 0.419666
348 1 0.346418 0.400688 0.422633
349 1 0.49317 0.328194 0.323677
350 1 0.585116 0.424935 0.337408
351 1 0.574011 0.326186 0.409535
352 1 0.489196 0.410909 0.423655
353 1 0.667005 0.333188 0.333177
354 1 0.755764 0.402462 0.335457
355 1 0.749405 0.316946 0.406774
356 1 0.665819 0.407233 0.416075
357 1 0.843198 0.326421 0.324858
358 1 0.915065 0.424879 0.336314
359 1 0.925301 0.341803 0.415687
360 1 0.83722 0.423067 0.412704
361 1 0.992 0.501926 0.331794
362 1 0.0803754 0.58522 0.338563
363 1 0.0886055 0.495362 0.413636
364 1 0.00641878 0.577157 0.415212
365 1 0.170245 0.502406 0.332188
366 1 0.254752 0.578029 0.33685
367 1 0.265409 0.509547 0.417542
368 1 0.171052 0.585234 0.412233
369 1 0.341364 0.5052 0.335098
370 1 0.418044 0.588501 0.342065
371 1 0.420593 0.49018 0.423336
372 1 0.347319 0.593566 0.431331
373 1 0.492256 0.496127 0.339312
374 1 0.573153 0.586696 0.336964
375 1 0.575924 0.486563 0.427023
376 1 0.50071 0.582498 0.418563
377 1 0.654614 0.511266 0.340423
378 1 0.753897 0.582015 0.328152
379 1 0.748103 0.493324 0.423657
380 1 0.681568 0.580279 0.416553
381 1 0.832357 0.504028 0.328024
382 1 0.90632 0.575121 0.329047
383 1 0.904934 0.501274 0.417321
384 1 0.825762 0.588963 0.421328
385 1 0.987016 0.655359 0.328591
386 1 0.0793637 0.747391 0.340187
387 1 0.0888194 0.665757 0.421556
388 1 -0.000966706 0.746277 0.418251
389 1 0.171387 0.673903 0.334877
390 1 0.259023 0.738929 0.332805
391 1 0.25051 0.665816 0.412565
392 1 0.171922 0.745693 0.408156
393 1 0.337814 0.66734 0.339052
394 1 0.422338 0.753666 0.33817
395 1 0.420401 0.675082 0.411461
396 1 0.340685 0.758883 0.430346
397 1 0.49899 0.667702 0.325546
398 1 0.581014 0.745758 0.331775
399 1 0.581745 0.663468 0.424337
400 1 0.505195 0.741349 0.420783
401 1 0.665132 0.675668 0.33104
402 1 0.750969 0.727048 0.337704
403 1 0.746531 0.669202 0.438811
404 1 0.656445 0.74747 0.423084
405 1 0.856494 0.66954 0.343299
406 1 0.915947 0.756067 0.336888
407 1 0.922502 0.652391 0.427919
408 1 0.844765 0.747558 0.423703
409 1 -0.0188125 0.833032 0.320719
410 1 0.0665697 0.909968 0.318321
411 1 0.061875 0.842245 0.41544
412 1 0.997234 0.925531 0.427247
413 1 0.171613 0.818742 0.328888
414 1 0.26194 0.914174 0.333245
415 1 0.24722 0.833824 0.404644
416 1 0.153646 0.908199 0.39665
417 1 0.335356 0.833215 0.342651
418 1 0.415606 0.911878 0.320416
419 1 0.417607 0.837491 0.421373
420 1 0.332678 0.922303 0.41796
421 1 0.501872 0.832239 0.33193
422 1 0.583026 0.922077 0.33403
423 1 0.564734 0.837982 0.425082
424 1 0.488701 0.927603 0.408249
425 1 0.671728 0.816928 0.341267
426 1 0.754874 0.908324 0.331114
427 1 0.756597 0.811788 0.415515
428 1 0.671198 0.905897 0.40591
429 1 0.831725 0.830126 0.321632
430 1 0.913207 0.918222 0.339701
431 1 0.92587 0.830837 0.413511
432 1 0.833376 0.901923 0.420025
433 1 -0.00377665 -0.00529557 0.508165
434 1 0.0792276 0.0751951 0.504617
435 1 0.0934096 0.994057 0.594291
436 1 1.00527 0.073141 0.584968
437 1 0.163317 0.990922 0.495592
438 1 0.242592 0.08317 0.497464
439 1 0.245815 0.008056 0.584401
440 1 0.157346 0.0822182 0.58428
441 1 0.321551 0.00573528 0.494206
442 1 0.412635 0.0810863 0.493992
443 1 0.421031 0.0108223 0.578041
444 1 0.327268 0.0851176 0.587982
445 1 0.49601 0.00500834 0.508479
446 1 0.592 0.098411 0.49775
447 1 0.570756 0.00322443 0.584653
448 1 0.500208 0.0960429 0.582977
449 1 0.671311 1.01057 0.492764
450 1 0.767625 0.0770961 0.495764
451 1 0.75811 -0.00308506 0.574657
452 1 0.658829 0.0793854 0.579038
453 1 0.851086 0.00377 0.494809
454 1 0.925563 0.0883299 0.506759
455 1 0.914249 1.00562 0.585922
456 1 0.831868 0.0975718 0.580123
457 1 1.00093 0.164742 0.507042
458 1 0.0864084 0.250394 0.490272
459 1 0.0769933 0.177138 0.585431
460 1 -0.00104364 0.251567 0.584245
461 1 0.158005 0.166441 0.504089
462 1 0.242413 0.247134 0.492836
463 1 0.254005 0.171732 0.577279
464 1 0.170935 0.252247 0.577884
465 1 0.326357 0.143889 0.500098
466 1 0.40578 0.237245 0.501653
467 1 0.409867 0.163811 0.581035
468 1 0.328026 0.249247 0.59232
469 1 0.495376 0.159475 0.491899
470 1 0.580585 0.245482 0.503589
471 1 0.591257 0.173327 0.578913
472 1 0.499919 0.24078 0.584014
473 1 0.673249 0.163422 0.497426
474 1 0.767143 0.245704 0.492672
475 1 0.750718 0.166939 0.579768
476 1 0.674813 0.245588 0.572469
477 1 0.845999 0.172182 0.492693
478 1 0.923216 0.253339 0.48715
479 1 0.926942 0.154107 0.588271
480 1 0.833422 0.248167 0.578917
481 1 0.00568418 0.340997 0.485217
482 1 0.0942017 0.417337 0.49508
483 1 0.0804062 0.324961 0.570638
484 1 -0.00263894 0.409804 0.583657
485 1 0.166887 0.3339 0.487814
486 1 0.253491 0.408859 0.490766
487 1 0.243193 0.333999 0.579529
488 1 0.173007 0.416791 0.572515
489 1 0.332111 0.322544 0.497889
490 1 0.418541 0.402042 0.511204
491 1 0.419743 0.32013 0.574095
492 1 0.328253 0.405608 0.565131
493 1 0.505497 0.325119 0.498482
494 1 0.585783 0.397175 0.500964
495 1 0.590562 0.335658 0.585931
496 1 0.49474 0.418655 0.582997
497 1 0.67435 0.322278 0.489435
498 1 0.753146 0.415226 0.503934
499 1 0.755763 0.332465 0.575977
500 1 0.660305 0.421723 0.590483
501 1 0.841547 0.328022 0.505886
502 1 0.917043 0.41993 0.502428
503 1 0.923012 0.330872 0.578615
504 1 0.835033 0.41117 0.578339
505 1 0.994314 0.498563 0.492297
506 1 0.102563 0.580057 0.489052
507 1 0.0732011 0.500249 0.570631
508 1 0.00173959 0.588059 0.584756
509 1 0.170296 0.498914 0.496111
510 1 0.246953 0.592279 0.498585
511 1 0.252128 0.501702 0.575223
512 1 0.167599 0.577411 0.577307
513 1 0.339465 0.485058 0.495383
514 1 0.419646 0.575854 0.500089
515 1 0.422726 0.495437 0.588935
516 1 0.339748 0.588351 0.586339
517 1 0.498386 0.498041 0.506211
518 1 0.576739 0.579309 0.504487
519 1 0.584388 0.499167 0.583018
520 1 0.495871 0.580667 0.577164
521 1 0.662892 0.476668 0.494927
522 1 0.754237 0.582028 0.496123
523 1 0.744157 0.489941 0.586243
524 1 0.675088 0.565412 0.579522
525 1 0.836532 0.504724 0.502029
526 1 0.90496 0.580446 0.50269
527 1 0.925135 0.492279 0.585194
528 1 0.830753 0.580538 0.580659
529 1 0.00855689 0.668645 0.501455
530 1 0.0776569 0.758794 0.50121
531 1 0.0864681 0.663802 0.577466
532 1 0.0016268 0.755348 0.578528
533 1 0.1684 0.667382 0.500901
534 1 0.245858 0.74899 0.485633
535 1 0.253146 0.657893 0.583789
536 1 0.173328 0.742045 0.58808
537 1 0.344955 0.676059 0.507695
538 1 0.416344 0.761647 0.512461
539 1 0.424893 0.665693 0.59525
540 1 0.340804 0.756612 0.591787
541 1 0.487535 0.669671 0.500666
542 1 0.57868 0.740778 0.498316
543 1 0.582174 0.656635 0.578027
544 1 0.504033 0.752736 0.580034
545 1 0.660734 0.659154 0.50348
546 1 0.7551 0.755802 0.507461
547 1 0.744123 0.665798 0.588582
548 1 0.663991 0.746591 0.569549
549 1 0.844506 0.660383 0.498641
550 1 0.921978 0.754363 0.512487
551 1 0.926947 0.668991 0.580785
552 1 0.843594 0.737028 0.593628
553 1 0.000530718 0.836296 0.498753
554 1 0.0889042 0.915969 0.511507
555 1 0.0984521 0.831234 0.589896
556 1 0.00419351 0.919075 0.600372
557 1 0.167228 0.835096 0.486762
558 1 0.248881 0.915692 0.495776
559 1 0.241209 0.822768 0.587877
560 1 0.177998 0.917441 0.581943
561 1 0.329514 0.828108 0.508896
562 1 0.408944 0.923381 0.504117
563 1 0.403726 0.848616 0.594822
564 1 0.32819 0.921417 0.571407
565 1 0.483715 0.848241 0.510576
566 1 0.582275 0.934281 0.494349
567 1 0.570886 0.843245 0.569149
568 1 0.483258 0.922785 0.582522
569 1 0.660123 0.83554 0.494119
570 1 0.753444 0.910191 0.492422
571 1 0.759851 0.836501 0.575916
572 1 0.662171 0.938323 0.572933
573 1 0.838604 0.834568 0.4947
574 1 0.925816 0.916169 0.510209
575 1 0.917825 0.836984 0.585961
576 1 0.844331 0.921772 0.570531
577 1 0.988709 0.999321 0.678304
578 1 0.0831845 0.0763834 0.67266
579 1 0.0783927 1.00797 0.756766
580 1 0.987133 0.0827124 0.761084
581 1 0.179424 1.00556 0.665315
582 1 0.250753 0.088121 0.668668
583 1 0.254713 0.00635864 0.752056
584 1 0.172032 0.0707787 0.75247
585 1 0.322692 -0.00998759 0.660148
586 1 0.414998 0.0878196 0.677729
587 1 0.419311 0.00372371 0.751835
588 1 0.332194 0.0885058 0.753626
589 1 0.492586 0.00478583 0.664476
590 1 0.577284 0.082818 0.667925
591 1 0.59395 1.00618 0.739985
592 1 0.499157 0.0859614 0.756908
593 1 0.682703 -0.000291124 0.662491
594 1 0.75287 0.0874802 0.682414
595 1 0.744126 0.00193227 0.757642
596 1 0.655538 0.0921819 0.743759
597 1 0.822895 -0.0027783 0.663777
598 1 0.91552 0.083222 0.665612
599 1 0.909778 0.011814 0.748987
600 1 0.82478 0.0875666 0.769126
601 1 0.00371069 0.157164 0.675969
602 1 0.0734214 0.25099 0.661788
603 1 0.0871857 0.164402 0.75369
604 1 1.00142 0.241325 0.751596
605 1 0.156224 0.161139 0.666191
606 1 0.250812 0.232352 0.667706
607 1 0.249249 0.156006 0.747985
608 1 0.161491 0.246301 0.749786
609 1 0.336765 0.154947 0.669898
610 1 0.408266 0.243962 0.675026
611 1 0.417299 0.163075 0.751906
612 1 0.330212 0.239916 0.748295
613 1 0.497167 0.166658 0.66778
614 1 0.599074 0.252256 0.656088
615 1 0.569922 0.175607 0.747576
616 1 0.497169 0.253534 0.743812
617 1 0.669065 0.165576 0.648631
618 1 0.75714 0.243525 0.665458
619 1 0.746917 0.167736 0.753442
620 1 0.679906 0.247899 0.749576
621 1 0.839759 0.152845 0.685849
622 1 0.914814 0.233881 0.672014
623 1 0.921805 0.170554 0.763544
624 1 0.841495 0.253237 0.747104
625 1 1.0014 0.339367 0.663605
626 1 0.0834403 0.414414 0.665056
627 1 0.0859026 0.321158 0.743569
628 1 -0.00253905 0.411991 0.756304
629 1 0.169038 0.337683 0.664523
630 1 0.249676 0.418868 0.660176
631 1 0.261409 0.338753 0.746157
632 1 0.175014 0.421245 0.741501
633 1 0.332649 0.34391 0.659369
634 1 0.428569 0.405736 0.674908
635 1 0.408752 0.33488 0.758447
636 1 0.338975 0.421371 0.754113
637 1 0.502781 0.318886 0.650591
638 1 0.580666 0.412668 0.672086
639 1 0.579644 0.332931 0.746794
640 1 0.493952 0.411168 0.763361
641 1 0.681717 0.32388 0.658493
642 1 0.754037 0.407635 0.664887
643 1 0.752989 0.329508 0.743539
644 1 0.671078 0.396661 0.746804
645 1 0.836501 0.328256 0.647665
646 1 0.911797 0.420393 0.673106
647 1 0.921137 0.32894 0.746479
648 1 0.837681 0.414807 0.74402
649 1 0.014612 0.493655 0.666226
650 1 0.0874708 0.582674 0.666997
651 1 0.0901673 0.4915 0.749041
652 1 0.0175171 0.576104 0.752165
653 1 0.180324 0.495495 0.659872
654 1 0.252785 0.583845 0.661511
655 1 0.258208 0.491592 0.739013
656 1 0.16985 0.565968 0.756286
657 1 0.345299 0.481665 0.665026
658 1 0.413712 0.566109 0.672508
659 1 0.416706 0.495896 0.758485
660 1 0.341141 0.587999 0.753068
661 1 0.50321 0.492291 0.684113
662 1 0.580184 0.573268 0.667453
663 1 0.597422 0.497502 0.76338
664 1 0.500387 0.588325 0.754172
665 1 0.668675 0.489473 0.669436
666 1 0.746641 0.581492 0.678249
667 1 0.744747 0.488909 0.744344
668 1 0.664883 0.587945 0.755065
669 1 0.825649 0.500329 0.658716
670 1 0.914159 0.581183 0.667203
671 1 0.917629 0.492461 0.758011
672 1 0.835906 0.56575 0.7558
673 1 1.00772 0.663528 0.680602
674 1 0.0913505 0.737867 0.656976
675 1 0.0992588 0.663945 0.743821
676 1 -0.00603616 0.74793 0.756172
677 1 0.177868 0.660032 0.666406
678 1 0.256557 0.748209 0.678828
679 1 0.259422 0.659083 0.753221
680 1 0.173202 0.747117 0.762937
681 1 0.336802 0.658671 0.664455
682 1 0.415278 0.758861 0.670841
683 1 0.427268 0.677364 0.745621
684 1 0.341222 0.748979 0.754331
685 1 0.506465 0.660841 0.669792
686 1 0.574933 0.747722 0.6656
687 1 0.588615 0.670872 0.754307
688 1 0.505036 0.749114 0.746402
689 1 0.656568 0.670139 0.664027
690 1 0.751277 0.751862 0.657494
691 1 0.738489 0.666814 0.739362
692 1 0.674372 0.75431 0.736976
693 1 0.826267 0.661523 0.6789
694 1 0.923849 0.745489 0.671345
695 1 0.915006 0.657699 0.745856
696 1 0.829877 0.74542 0.75549
697 1 0.990293 0.835934 0.672501
698 1 0.0919242 0.917324 0.673166
699 1 0.0947597 0.822373 0.740053
700 1 0.997336 0.914469 0.747207
701 1 0.176911 0.836728 0.672073
702 1 0.25538 0.921422 0.669856
703 1 0.239117 0.841526 0.755307
704 1 0.158395 0.930689 0.755253
705 1 0.326897 0.83303 0.674275
706 1 0.413371 0.926105 0.67337
707 1 0.408705 0.848629 0.755713
708 1 0.328443 0.927103 0.766092
709 1 0.495568 0.830644 0.666078
710 1 0.575014 0.919615 0.660895
711 1 0.58239 0.84102 0.749496
712 1 0.510627 0.921604 0.743381
713 1 0.652732 0.825777 0.650312
714 1 0.750721 0.919632 0.651748
715 1 0.75758 0.83929 0.719556
716 1 0.671743 0.914112 0.744099
717 1 0.847386 0.835715 0.66259
718 1 0.904924 0.927322 0.666038
719 1 0.909157 0.83544 0.761436
720 1 0.832872 0.922276 0.74677
721 1 0.992689 1.00158 0.832203
722 1 0.0686794 0.0822222 0.83447
723 1 0.0768538 0.000589417 0.913197
724 1 1.00795 0.081169 0.928142
725 1 0.156554 0.011145 0.837168
726 1 0.25892 0.076208 0.844712
727 1 0.247734 0.00467109 0.92142
728 1 0.157316 0.0871293 0.92496
729 1 0.341808 0.00614295 0.833253
730 1 0.413477 0.0911756 0.829885
731 1 0.407594 1.00253 0.916955
732 1 0.341706 0.0882171 0.913158
733 1 0.498256 0.00495747 0.826294
734 1 0.583661 0.0757632 0.834823
735 1 0.582075 0.00140523 0.924863
736 1 0.49914 0.0853651 0.914728
737 1 0.660404 -0.0144905 0.840629
738 1 0.72759 0.0886257 0.834499
739 1 0.748665 0.993341 0.912325
740 1 0.671659 0.0839587 0.924371
741 1 0.839179 0.990722 0.838303
742 1 0.918224 0.0864897 0.857383
743 1 0.909009 0.00219632 0.922423
744 1 0.812726 0.082891 0.914259
745 1 -0.00644339 0.169456 0.842305
746 1 0.0792055 0.251776 0.830612
747 1 0.087784 0.171435 0.913539
748 1 0.0130648 0.257066 0.923337
749 1 0.168965 0.157044 0.832441
750 1 0.237977 0.242371 0.826289
751 1 0.236649 0.166781 0.910824
752 1 0.163231 0.253556 0.908911
753 1 0.321504 0.166269 0.832484
754 1 0.425276 0.24562 0.841965
755 1 0.414818 0.170577 0.914513
756 1 0.312827 0.238099 0.926482
757 1 0.500573 0.158785 0.836961
758 1 0.565063 0.253595 0.827644
759 1 0.582983 0.157493 0.906891
760 1 0.50288 0.258773 0.926279
761 1 0.657018 0.170315 0.828666
762 1 0.754768 0.246457 0.832125
763 1 0.75318 0.165054 0.914633
764 1 0.662851 0.257191 0.918815
765 1 0.837568 0.169692 0.840317
766 1 0.929252 0.247017 0.843721
767 1 0.9221 0.17084 0.927374
768 1 0.821456 0.251803 0.91326
769 1 1.00201 0.333843 0.840258
770 1 0.084053 0.41072 0.817628
771 1 0.0943638 0.346138 0.910766
772 1 0.998309 0.411226 0.917324
773 1 0.187761 0.340676 0.8231
774 1 0.262711 0.417469 0.83118
775 1 0.240448 0.335117 0.927631
776 1 0.168764 0.422265 0.918006
777 1 0.326368 0.314042 0.845705
778 1 0.4078 0.401044 0.844038
779 1 0.413108 0.331549 0.924271
780 1 0.322872 0.407673 0.915171
781 1 0.492202 0.331661 0.835204
782 1 0.590345 0.417325 0.83039
783 1 0.586437 0.345833 0.905606
784 1 0.503235 0.425269 0.905789
785 1 0.658826 0.315687 0.825477
786 1 0.75806 0.429277 0.833663
787 1 0.751108 0.331006 0.922872
788 1 0.674828 0.421052 0.910975
789 1 0.831487 0.32922 0.842399
790 1 0.904722 0.409701 0.835542
791 1 0.914895 0.321113 0.916961
792 1 0.829608 0.425344 0.919601
793 1 0.992299 0.492678 0.836355
794 1 0.0790013 0.579202 0.838464
795 1 0.0812492 0.484038 0.918441
796 1 0.00070717 0.589936 0.920486
797 1 0.173157 0.496785 0.837255
798 1 0.248832 0.577427 0.841467
799 1 0.253605 0.497643 0.926407
800 1 0.173679 0.575029 0.921416
801 1 0.328715 0.497239 0.841689
802 1 0.410955 0.591098 0.832509
803 1 0.415772 0.501985 0.898973
804 1 0.331587 0.586173 0.932513
805 1 0.50713 0.50788 0.838042
806 1 0.587 0.5839 0.829355
807 1 0.597006 0.486537 0.902066
808 1 0.505145 0.580258 0.915753
809 1 0.68243 0.498339 0.835055
810 1 0.749866 0.579044 0.825354
811 1 0.753814 0.515046 0.918428
812 1 0.664606 0.573116 0.911932
813 1 0.839932 0.491798 0.84203
814 1 0.923278 0.581517 0.827301
815 1 0.91683 0.513837 0.918827
816 1 0.830248 0.593024 0.915978
817 1 1.00377 0.678181 0.828319
818 1 0.0804868 0.745954 0.83962
819 1 0.0976336 0.672636 0.914722
820 1 0.00370183 0.743043 0.923225
821 1 0.161292 0.66787 0.824436
822 1 0.253795 0.751323 0.839169
823 1 0.249803 0.675613 0.910373
824 1 0.175583 0.754609 0.909981
825 1 0.329953 0.668551 0.8352
826 1 0.425065 0.755276 0.833901
827 1 0.405321 0.667895 0.918562
828 1 0.323343 0.755967 0.916842
829 1 0.502514 0.667075 0.83294
830 1 0.581361 0.75071 0.823442
831 1 0.57714 0.664635 0.914057
832 1 0.504837 0.7433 0.914098
833 1 0.670608 0.665312 0.833645
834 1 0.738337 0.746337 0.823762
835 1 0.745952 0.653936 0.918178
836 1 0.662956 0.748748 0.918172
837 1 0.822657 0.670547 0.823339
838 1 0.907838 0.734332 0.820844
839 1 0.915939 0.660517 0.920752
840 1 0.822627 0.739946 0.906411
841 1 1.00154 0.818774 0.836586
842 1 0.0715813 0.911085 0.833768
843 1 0.0792658 0.836174 0.916914
844 1 -0.00243647 0.925402 0.923199
845 1 0.159952 0.841008 0.834178
846 1 0.24716 0.924656 0.839259
847 1 0.246674 0.838675 0.903744
848 1 0.158314 0.921291 0.909697
849 1 0.332681 0.827709 0.829847
850 1 0.425316 0.921329 0.834061
851 1 0.421704 0.836678 0.911335
852 1 0.337162 0.915299 0.898002
853 1 0.500741 0.838086 0.830674
854 1 0.571416 0.922983 0.835125
855 1 0.582695 0.832501 0.909133
856 1 0.501623 0.93313 0.913387
857 1 0.667606 0.830869 0.833193
858 1 0.742778 0.918204 0.830429
859 1 0.739034 0.821558 0.912762
860 1 0.659116 0.909455 0.919043
861 1 0.820307 0.835748 0.823051
862 1 0.917705 0.915837 0.854427
863 1 0.905957 0.815975 0.894061
864 1 0.818053 0.909231 0.909384
