ITEM: TIMESTEP
2500
ITEM: NUMBER OF ATOMS
864
ITEM: BOX BOUNDS pp pp pp
0.0000000000000000e+00 3.1559999999999999e+01
0.0000000000000000e+00 3.1559999999999999e+01
0.0000000000000000e+00 3.1559999999999999e+01
ITEM: ATOMS id type xs ys zs
2 1 0.0735072 0.0921978 1.01087
25 1 1.00277 0.166679 0.00837214
27 1 0.0801 0.162989 0.0934269
8 1 0.161835 0.0849417 0.0801954
6 1 0.241728 0.0845419 -0.0007486
7 1 0.250581 1.0123 0.090249
12 1 0.336079 0.0825162 0.0892649
16 1 0.492068 0.0895667 0.0877853
154 1 0.41119 0.0900022 0.159211
13 1 0.509993 0.987221 0.0230359
14 1 0.588562 0.0774455 -0.000246872
15 1 0.569036 -0.00714399 0.102031
20 1 0.669504 0.0806404 0.0934798
17 1 0.670737 0.021803 0.0116906
158 1 0.578046 0.0816577 0.174932
18 1 0.76519 0.0932612 1.00452
21 1 0.835899 0.0160564 -0.0105766
4 1 1.00233 0.0833354 0.0902597
23 1 0.909105 0.00069266 0.0778502
24 1 0.831713 0.0919323 0.0873732
45 1 0.844205 0.170848 0.999888
22 1 0.912788 0.0975304 0.00467293
32 1 0.163672 0.236743 0.0826343
51 1 0.0748415 0.333623 0.0784064
173 1 0.152173 0.175045 0.16808
28 1 0.00900571 0.246931 0.0808781
170 1 0.0811512 0.250091 0.172188
26 1 0.0777657 0.25061 0.00160132
31 1 0.248682 0.168662 0.0806492
177 1 0.331254 0.161152 0.172926
30 1 0.249185 0.251687 0.00795925
33 1 0.333502 0.173694 0.0155375
35 1 0.424465 0.172972 0.0845183
36 1 0.347535 0.249454 0.0930836
61 1 0.492478 0.336923 0.00272885
37 1 0.505271 0.158287 0.996584
39 1 0.576169 0.165866 0.0889845
40 1 0.506558 0.242153 0.0759551
63 1 0.578745 0.324655 0.0641036
38 1 0.589038 0.244518 0.00725216
42 1 0.753097 0.231494 1.00024
43 1 0.747595 0.163547 0.0986044
44 1 0.671263 0.245966 0.0766926
186 1 0.753568 0.251432 0.152467
41 1 0.668938 0.149922 1.01018
47 1 0.914325 0.169872 0.0992669
48 1 0.833918 0.24028 0.0771006
46 1 0.928584 0.24813 0.0008071
52 1 0.987638 0.410124 0.0599095
56 1 0.168904 0.42467 0.077852
197 1 0.157805 0.3198 0.156679
55 1 0.266226 0.34923 0.0877852
60 1 0.334858 0.440189 0.0984367
198 1 0.247495 0.42679 0.166427
53 1 0.163404 0.333075 -0.000131259
59 1 0.413763 0.331535 0.0728896
83 1 0.426471 0.518417 0.087495
209 1 0.657911 0.352221 0.166264
229 1 0.512918 0.507849 0.168064
62 1 0.571067 0.40938 -0.0024965
64 1 0.511185 0.431165 0.089619
65 1 0.661119 0.330418 0.993097
68 1 0.65541 0.401447 0.0730851
67 1 0.755558 0.327262 0.0724066
72 1 0.83679 0.406453 0.0753392
89 1 0.663309 0.502892 0.00223701
210 1 0.757409 0.415563 0.168649
70 1 0.90781 0.409046 0.984089
71 1 0.914384 0.322495 0.0798029
95 1 0.913946 0.496763 0.06826
193 1 -0.004878 0.340094 0.171387
73 1 0.99244 0.491865 0.995439
75 1 0.0734234 0.495104 0.0676122
99 1 0.0642928 0.6601 0.0800779
221 1 0.145694 0.496045 0.15399
97 1 1.0018 0.671701 0.978585
79 1 0.258003 0.512467 0.0900542
78 1 0.265184 0.588969 0.998296
80 1 0.155363 0.579584 0.0787924
103 1 0.255022 0.642441 0.0965913
222 1 0.230317 0.565162 0.179481
84 1 0.346509 0.586281 0.080368
249 1 0.339233 0.648099 0.163512
88 1 0.509046 0.591214 0.0894523
107 1 0.41614 0.67193 0.093015
87 1 0.590716 0.508955 0.0971263
111 1 0.581202 0.678251 0.0837275
230 1 0.587128 0.587526 0.168492
233 1 0.680753 0.499104 0.145821
91 1 0.754982 0.487612 0.0665964
237 1 0.838213 0.494979 0.148866
92 1 0.66467 0.596249 0.0871695
234 1 0.756155 0.587893 0.148843
96 1 0.837606 0.571851 0.0666077
76 1 0.99449 0.574639 0.0657022
94 1 0.903375 0.569479 0.977111
123 1 0.0770484 0.836982 0.0749153
100 1 -0.0024402 0.743502 0.0693854
242 1 0.0718787 0.758998 0.146791
98 1 0.0943596 0.740299 -0.00379123
104 1 0.165975 0.741498 0.0856519
127 1 0.2498 0.820744 0.0938067
246 1 0.233789 0.734918 0.173555
108 1 0.321053 0.741553 0.0882553
112 1 0.511048 0.758924 0.0936736
131 1 0.413431 0.832375 0.0938479
273 1 0.333104 0.834863 0.157547
133 1 0.498418 0.839674 0.0173087
110 1 0.578868 0.761919 0.00694886
254 1 0.603362 0.739602 0.161284
116 1 0.662108 0.763875 0.078964
135 1 0.587535 0.842219 0.108109
277 1 0.489948 0.833338 0.178573
257 1 0.681335 0.659338 0.175469
115 1 0.736419 0.688111 0.0906322
258 1 0.749871 0.748149 0.179666
119 1 0.928707 0.653525 0.0574373
120 1 0.836471 0.742884 0.0703482
143 1 0.919352 0.825311 0.0791836
261 1 0.839962 0.668466 0.153301
117 1 0.837665 0.647319 0.99087
3 1 0.0667874 -0.00330666 0.0933186
266 1 0.0927038 0.91252 0.168608
124 1 0.996946 0.923801 0.075034
265 1 -0.00880119 0.844405 0.166941
128 1 0.150494 0.926581 0.0840249
149 1 0.168515 0.00270974 0.181003
126 1 0.239711 0.912581 0.00405216
132 1 0.314491 0.906293 0.0824252
11 1 0.426226 1.00146 0.0894614
136 1 0.498239 0.903745 0.107664
153 1 0.334881 0.999102 0.153646
274 1 0.408748 0.917647 0.169561
134 1 0.597404 0.925623 0.99525
278 1 0.571769 0.92758 0.183876
140 1 0.679459 0.931525 0.0867367
19 1 0.760397 0.000830818 0.0768735
139 1 0.744595 0.843928 0.0859233
144 1 0.828319 0.91933 0.0746728
281 1 0.669859 0.822547 0.176952
138 1 0.757426 0.927333 0.98457
165 1 0.830609 -0.000932983 0.160894
145 1 0.993901 0.00982741 0.168442
286 1 0.911496 0.912265 0.157165
146 1 0.0769593 0.0847758 0.167684
171 1 0.0955754 0.179641 0.261425
290 1 0.0758769 0.0897298 0.344845
293 1 0.15542 1.00959 0.328592
148 1 -0.0205108 0.0837326 0.253556
289 1 0.993921 1.00504 0.334659
150 1 0.246866 0.0839675 0.169746
152 1 0.170457 0.100352 0.254172
175 1 0.243337 0.174603 0.257658
156 1 0.320386 0.0748616 0.246313
298 1 0.410091 0.085217 0.334427
160 1 0.49409 0.0886998 0.262785
164 1 0.68209 0.0985162 0.261234
181 1 0.496016 0.166565 0.172111
162 1 0.748424 0.0903509 0.174691
306 1 0.75869 0.10549 0.345375
187 1 0.761959 0.177671 0.240301
168 1 0.842083 0.0959481 0.259351
309 1 0.839948 -0.00277754 0.326773
166 1 0.909879 0.0894906 0.176449
310 1 0.919318 0.0763858 0.34357
169 1 -0.00158185 0.167094 0.16623
313 1 0.011961 0.169683 0.321868
176 1 0.182953 0.265723 0.247962
172 1 1.02219 0.259006 0.256604
317 1 0.179544 0.172282 0.351483
174 1 0.251411 0.253645 0.15793
341 1 0.152365 0.339993 0.337142
318 1 0.235845 0.268301 0.34231
179 1 0.404391 0.171472 0.260892
180 1 0.325185 0.252351 0.258056
178 1 0.413636 0.272041 0.168812
183 1 0.583885 0.170296 0.254499
182 1 0.593657 0.25483 0.167892
184 1 0.505968 0.267195 0.238999
205 1 0.502822 0.340228 0.144437
326 1 0.582284 0.261319 0.334472
189 1 0.838339 0.164725 0.164157
185 1 0.663516 0.170847 0.169552
188 1 0.677387 0.265125 0.257042
192 1 0.831377 0.247056 0.266849
190 1 0.933172 0.248348 0.176198
191 1 0.914783 0.180562 0.253414
215 1 0.918689 0.330845 0.256647
194 1 0.0595847 0.4231 0.143052
195 1 0.0878967 0.343703 0.248585
200 1 0.151886 0.427631 0.241458
196 1 0.996474 0.414519 0.256842
199 1 0.261376 0.341591 0.248938
204 1 0.331401 0.429963 0.25357
225 1 0.331773 0.51938 0.175598
201 1 0.339697 0.354493 0.178222
203 1 0.428358 0.341877 0.240392
202 1 0.419599 0.437209 0.169511
227 1 0.418607 0.508444 0.263796
207 1 0.581655 0.355452 0.251006
206 1 0.588618 0.422695 0.167189
208 1 0.49231 0.422299 0.26226
350 1 0.586247 0.425158 0.32742
211 1 0.747636 0.344527 0.254227
212 1 0.666491 0.419732 0.249187
235 1 0.750025 0.499532 0.22893
353 1 0.652118 0.348991 0.338885
354 1 0.766404 0.416844 0.331139
213 1 0.835868 0.307469 0.157958
214 1 0.912188 0.403936 0.153879
216 1 0.830161 0.410775 0.238916
217 1 0.98057 0.498436 0.169612
358 1 0.915921 0.418269 0.322493
218 1 0.0611484 0.574791 0.163496
219 1 0.0680708 0.497738 0.241331
224 1 0.152068 0.581589 0.245145
220 1 0.987837 0.58885 0.241306
389 1 0.16037 0.665647 0.317526
365 1 0.147669 0.499587 0.339551
223 1 0.235537 0.497689 0.252483
247 1 0.249842 0.654519 0.245346
366 1 0.238599 0.56847 0.328039
228 1 0.334195 0.581892 0.26025
245 1 0.152626 0.65647 0.155412
393 1 0.332883 0.67214 0.326033
226 1 0.420303 0.583107 0.178976
251 1 0.419743 0.673147 0.239064
232 1 0.498637 0.593799 0.260822
397 1 0.512062 0.668802 0.337081
253 1 0.504878 0.67633 0.16396
231 1 0.573171 0.499901 0.248659
377 1 0.668343 0.495 0.330856
236 1 0.663649 0.581141 0.251033
259 1 0.751563 0.653092 0.262583
401 1 0.665476 0.673647 0.320341
238 1 0.913683 0.585109 0.155767
239 1 0.907029 0.489586 0.239461
240 1 0.828171 0.574397 0.226429
381 1 0.826411 0.501099 0.312509
361 1 0.983279 0.507221 0.329209
241 1 0.00351587 0.665451 0.157059
243 1 0.0708809 0.670724 0.243075
244 1 1.01213 0.753039 0.247664
386 1 0.0746031 0.748828 0.336612
269 1 0.156561 0.82131 0.184647
248 1 0.147774 0.744401 0.251735
252 1 0.332836 0.752218 0.249171
250 1 0.398784 0.74859 0.174482
394 1 0.426269 0.728407 0.338577
275 1 0.403108 0.848264 0.250374
421 1 0.486489 0.821471 0.32418
256 1 0.512983 0.751741 0.251286
255 1 0.588225 0.664026 0.252668
260 1 0.667928 0.753437 0.248022
279 1 0.591202 0.840188 0.243563
425 1 0.663236 0.838692 0.324899
264 1 0.833322 0.739699 0.237882
429 1 0.843234 0.827879 0.326396
402 1 0.758542 0.756522 0.341733
262 1 0.929518 0.738719 0.167371
285 1 0.831111 0.819625 0.148597
263 1 0.907696 0.661243 0.254362
406 1 0.915526 0.742501 0.343499
147 1 0.0767474 0.0149184 0.248804
267 1 0.07355 0.843711 0.282031
268 1 1.01112 0.91783 0.250555
409 1 0.987893 0.82491 0.339704
410 1 0.0766359 0.928883 0.341892
151 1 0.247823 1.00242 0.258449
271 1 0.262496 0.842653 0.235289
272 1 0.183775 0.91643 0.246889
270 1 0.233993 0.918878 0.155025
413 1 0.171149 0.845291 0.325244
157 1 0.49922 0.0183589 0.184344
301 1 0.488431 0.00410532 0.342367
155 1 0.40937 0.0122486 0.23723
276 1 0.33061 0.931078 0.253018
297 1 0.329739 0.0112537 0.337277
161 1 0.656755 1.0146 0.180955
280 1 0.497229 0.915854 0.262009
159 1 0.587438 0.00786099 0.254177
422 1 0.591247 0.920363 0.316677
284 1 0.67799 0.911012 0.244529
282 1 0.758474 0.929929 0.174963
163 1 0.751669 0.00796875 0.243794
283 1 0.758009 0.826756 0.255415
288 1 0.847188 0.910482 0.24108
167 1 0.926933 0.983302 0.241948
287 1 0.917283 0.814068 0.240187
430 1 0.915605 0.911289 0.329202
296 1 0.162725 0.086508 0.418541
434 1 0.0893252 0.0777476 0.501734
292 1 0.979535 0.0785202 0.429262
294 1 0.239713 0.0859419 0.337188
461 1 0.169374 0.164013 0.486978
295 1 0.246626 0.0109318 0.426993
438 1 0.242038 0.0827868 0.501225
300 1 0.315634 0.0926062 0.41052
323 1 0.400999 0.179449 0.419658
299 1 0.399068 0.0200593 0.434256
305 1 0.667964 0.0104354 0.325481
302 1 0.586575 0.0993565 0.332258
304 1 0.505629 0.0988489 0.414078
308 1 0.669029 0.0916901 0.410764
329 1 0.661152 0.186667 0.327824
312 1 0.833374 0.0738389 0.413865
331 1 0.739553 0.180504 0.431059
307 1 0.749667 0.00479208 0.405238
450 1 0.726899 0.0872888 0.506874
333 1 0.849517 0.167202 0.335676
335 1 0.91591 0.169009 0.4096
454 1 0.906651 0.0832401 0.508002
477 1 0.836315 0.152485 0.485683
314 1 0.0966373 0.253723 0.339285
337 1 0.00883521 0.347937 0.33448
315 1 0.0866771 0.16825 0.41773
316 1 0.00776654 0.24987 0.401852
321 1 0.32225 0.172589 0.33483
319 1 0.254326 0.17814 0.423981
320 1 0.162833 0.250434 0.425891
343 1 0.235885 0.342267 0.424523
322 1 0.417915 0.258403 0.311409
345 1 0.345005 0.345129 0.321639
324 1 0.314184 0.272995 0.398727
465 1 0.322212 0.159917 0.506662
466 1 0.410451 0.259049 0.499938
347 1 0.415453 0.309056 0.409536
325 1 0.492273 0.17371 0.330703
327 1 0.60199 0.17842 0.418813
328 1 0.503283 0.256044 0.412865
351 1 0.577801 0.340703 0.418411
493 1 0.488228 0.340978 0.49564
332 1 0.673408 0.262862 0.416665
330 1 0.745851 0.27183 0.338207
355 1 0.745718 0.35887 0.422442
474 1 0.760327 0.269325 0.492413
334 1 0.925863 0.247977 0.338851
336 1 0.842345 0.247246 0.431825
338 1 0.0778451 0.421157 0.321333
339 1 0.0880063 0.3297 0.421279
482 1 0.0763655 0.402407 0.519304
363 1 0.0752018 0.497288 0.415666
344 1 0.150846 0.418345 0.431393
342 1 0.225922 0.419911 0.334182
348 1 0.318695 0.410575 0.404125
489 1 0.330319 0.337275 0.489535
346 1 0.413583 0.424855 0.335344
373 1 0.492924 0.509167 0.337402
371 1 0.403762 0.48536 0.422186
349 1 0.49364 0.347851 0.33953
352 1 0.506478 0.425076 0.404605
494 1 0.572903 0.413753 0.490309
356 1 0.656375 0.430331 0.422055
379 1 0.750126 0.493272 0.423962
357 1 0.853395 0.330939 0.35199
359 1 0.933447 0.334245 0.413442
340 1 0.003805 0.42078 0.412709
360 1 0.843778 0.417133 0.425499
505 1 0.997595 0.491246 0.494654
362 1 0.0767693 0.587648 0.3175
364 1 1.00194 0.582315 0.421314
367 1 0.243175 0.488872 0.424771
509 1 0.158135 0.482114 0.514841
368 1 0.160262 0.590283 0.40751
372 1 0.333022 0.584021 0.407215
391 1 0.257595 0.668168 0.407768
510 1 0.240115 0.575308 0.499657
369 1 0.313386 0.497856 0.334333
370 1 0.421624 0.60378 0.336319
514 1 0.414153 0.569991 0.500732
376 1 0.496683 0.577742 0.417379
517 1 0.49874 0.492615 0.486439
374 1 0.58549 0.587337 0.337562
375 1 0.583122 0.501768 0.407853
399 1 0.579653 0.657334 0.431056
541 1 0.501654 0.65868 0.509546
545 1 0.681274 0.657954 0.496505
518 1 0.577871 0.566754 0.490632
378 1 0.757 0.575851 0.339872
380 1 0.664591 0.571585 0.420272
403 1 0.740231 0.659356 0.40397
382 1 0.9026 0.585812 0.325363
383 1 0.916743 0.498096 0.410992
384 1 0.843743 0.571464 0.426135
526 1 0.920639 0.578798 0.500122
525 1 0.824673 0.503542 0.512183
385 1 0.99758 0.654498 0.326438
387 1 0.0912044 0.670932 0.417587
392 1 0.180225 0.756605 0.397395
530 1 0.0895641 0.737349 0.500543
388 1 1.00037 0.739905 0.417816
411 1 0.0788942 0.831834 0.410023
529 1 1.01791 0.655111 0.501155
390 1 0.244078 0.748643 0.313497
534 1 0.243263 0.775173 0.493386
537 1 0.320173 0.667407 0.486708
396 1 0.328465 0.754849 0.398697
395 1 0.416597 0.659809 0.428674
419 1 0.418951 0.837156 0.412867
538 1 0.423422 0.75143 0.49927
398 1 0.580172 0.76933 0.329363
400 1 0.510543 0.751136 0.4155
404 1 0.671131 0.758445 0.408209
565 1 0.514163 0.835914 0.497623
542 1 0.59274 0.757215 0.49548
405 1 0.830386 0.673455 0.336536
427 1 0.756217 0.831421 0.419087
407 1 0.905856 0.656966 0.417693
408 1 0.830505 0.745084 0.426711
550 1 0.912972 0.752832 0.500886
553 1 0.00239676 0.825964 0.499903
291 1 0.0660337 1.00713 0.419257
412 1 -0.00231622 0.917276 0.41975
554 1 0.0881282 0.923264 0.509628
433 1 0.98866 0.994095 0.494836
417 1 0.31658 0.841729 0.338844
415 1 0.251015 0.839313 0.414585
414 1 0.237315 0.93306 0.3402
416 1 0.149985 0.926581 0.417184
420 1 0.324097 0.930642 0.431976
418 1 0.410453 0.928332 0.344624
562 1 0.414628 0.926018 0.483426
424 1 0.501776 0.921572 0.406752
303 1 0.591456 -0.00120329 0.416787
423 1 0.598409 0.827935 0.416513
428 1 0.684411 0.921466 0.408026
426 1 0.752826 0.918498 0.331201
569 1 0.669656 0.82357 0.505559
570 1 0.742981 0.908114 0.514984
432 1 0.811681 0.921152 0.410052
311 1 0.90435 0.978753 0.409737
431 1 0.899443 0.827358 0.419375
574 1 0.909509 0.906895 0.508803
573 1 0.833768 0.816705 0.508438
453 1 0.840969 1.00262 0.490489
457 1 -0.000301348 0.164377 0.50407
435 1 0.0820344 -0.00406796 0.580402
440 1 0.164749 0.0676664 0.595242
577 1 1.00327 0.982444 0.657589
581 1 0.163292 -0.0143141 0.670858
437 1 0.163941 1.00476 0.500125
444 1 0.346947 0.0783583 0.585493
439 1 0.244739 1.00858 0.587314
585 1 0.349432 0.992643 0.650186
442 1 0.411669 0.107039 0.505763
441 1 0.314631 0.00838341 0.508689
467 1 0.415108 0.168628 0.598269
443 1 0.430928 0.0105796 0.556921
586 1 0.441329 0.0907683 0.659702
445 1 0.494977 0.0114818 0.471911
446 1 0.581173 0.0863151 0.499331
448 1 0.503728 0.102884 0.568778
590 1 0.584992 0.0740645 0.665482
469 1 0.494865 0.169301 0.482121
471 1 0.583914 0.180381 0.568521
447 1 0.580606 1.0031 0.579871
473 1 0.660928 0.188906 0.504552
452 1 0.660251 0.0822689 0.582266
475 1 0.742182 0.193828 0.577296
617 1 0.659529 0.16761 0.658142
594 1 0.744474 0.0902274 0.650469
436 1 0.997432 0.0680625 0.572329
456 1 0.818529 0.080635 0.574533
598 1 0.93799 0.0833396 0.676758
455 1 0.912492 0.996431 0.5772
597 1 0.857431 0.0128362 0.65921
458 1 0.0786249 0.249305 0.50618
459 1 0.0913495 0.155675 0.585699
464 1 0.156733 0.247471 0.590809
605 1 0.166855 0.139656 0.677673
602 1 0.0880304 0.25881 0.674574
485 1 0.17639 0.326357 0.517237
462 1 0.265354 0.250504 0.51515
463 1 0.22332 0.169718 0.587345
487 1 0.249174 0.335907 0.595363
468 1 0.334219 0.252589 0.594286
491 1 0.412854 0.340619 0.577342
633 1 0.332003 0.33524 0.677469
470 1 0.584547 0.265865 0.496869
472 1 0.498408 0.24773 0.574515
614 1 0.577026 0.264804 0.661525
495 1 0.577178 0.33098 0.575027
476 1 0.663596 0.258629 0.57697
497 1 0.662981 0.330842 0.499486
499 1 0.760997 0.324833 0.586608
478 1 0.921512 0.23549 0.497467
601 1 0.023047 0.16667 0.673146
479 1 0.924155 0.157755 0.58558
460 1 0.0065864 0.250134 0.591926
480 1 0.844851 0.240103 0.579295
622 1 0.923868 0.234617 0.664119
503 1 0.930818 0.315939 0.590447
483 1 0.0876064 0.333647 0.593563
629 1 0.170302 0.340662 0.676189
488 1 0.174855 0.41606 0.593012
626 1 0.092299 0.409421 0.676492
513 1 0.322753 0.502091 0.492453
486 1 0.240343 0.420133 0.515569
630 1 0.242378 0.426211 0.680697
657 1 0.342796 0.498566 0.67996
490 1 0.403716 0.41294 0.492854
492 1 0.327958 0.41761 0.594488
515 1 0.416043 0.490278 0.583581
661 1 0.502361 0.490155 0.660381
521 1 0.667532 0.499379 0.50738
496 1 0.49477 0.424245 0.57163
637 1 0.498689 0.329754 0.652806
638 1 0.587094 0.405713 0.654093
501 1 0.857508 0.326748 0.500583
500 1 0.656689 0.413252 0.56438
498 1 0.763178 0.406189 0.51241
642 1 0.766801 0.409559 0.648776
504 1 0.844613 0.415031 0.583364
523 1 0.747887 0.508009 0.585011
665 1 0.660164 0.500439 0.660357
481 1 0.00854404 0.329486 0.503306
645 1 0.844531 0.322153 0.66435
484 1 0.988106 0.405484 0.594281
502 1 0.919356 0.41227 0.498228
527 1 0.917944 0.504774 0.573635
649 1 1.0055 0.501046 0.681902
506 1 0.0896639 0.588931 0.500392
507 1 0.0801503 0.502299 0.584333
653 1 0.15726 0.493461 0.671508
650 1 0.0802915 0.586001 0.659725
677 1 0.178031 0.676742 0.663999
511 1 0.254248 0.497816 0.593403
512 1 0.169568 0.597996 0.592087
654 1 0.234198 0.570235 0.665551
516 1 0.3189 0.579364 0.591517
520 1 0.500235 0.571213 0.570536
658 1 0.43518 0.580229 0.660011
539 1 0.396246 0.65247 0.590717
519 1 0.571335 0.481788 0.569379
524 1 0.657751 0.574535 0.578423
662 1 0.57597 0.584004 0.657679
543 1 0.587126 0.655879 0.567743
689 1 0.650386 0.664835 0.655784
549 1 0.840847 0.667409 0.509989
522 1 0.753997 0.576594 0.494934
693 1 0.828693 0.66872 0.686255
528 1 0.836095 0.583573 0.588857
547 1 0.756106 0.656856 0.579078
508 1 -0.00532655 0.592397 0.585214
551 1 0.913396 0.68957 0.589527
533 1 0.185447 0.667436 0.497227
531 1 0.105189 0.682314 0.583338
532 1 0.0154423 0.744757 0.575356
536 1 0.177585 0.760133 0.582158
555 1 0.10108 0.834989 0.581504
697 1 0.00695632 0.812818 0.656931
674 1 0.0846669 0.746228 0.66352
535 1 0.267096 0.675272 0.59288
678 1 0.256384 0.750651 0.663115
540 1 0.330629 0.760217 0.563199
544 1 0.508455 0.736878 0.572059
563 1 0.419148 0.855832 0.569412
682 1 0.423418 0.756232 0.632335
548 1 0.665598 0.737774 0.572542
685 1 0.494565 0.666646 0.645003
546 1 0.743123 0.737981 0.499348
571 1 0.739245 0.833271 0.596739
690 1 0.747107 0.739964 0.664064
713 1 0.667943 0.83107 0.682301
552 1 0.81698 0.739632 0.577811
717 1 0.826847 0.814653 0.669167
694 1 0.91069 0.746637 0.673362
556 1 -0.00848658 0.920176 0.573598
698 1 0.0791159 0.909866 0.668318
701 1 0.183727 0.843805 0.657713
557 1 0.160882 0.839723 0.492965
558 1 0.237362 0.912866 0.499258
559 1 0.250532 0.836927 0.581866
560 1 0.17082 0.921544 0.584667
705 1 0.344332 0.835235 0.653862
564 1 0.317814 0.917853 0.570193
702 1 0.266951 0.927728 0.658507
561 1 0.338918 0.840377 0.492074
568 1 0.51007 0.928251 0.574984
589 1 0.512645 0.00435829 0.663964
709 1 0.499421 0.843296 0.658855
706 1 0.428235 0.921999 0.669124
567 1 0.59146 0.84562 0.577469
566 1 0.599673 0.917587 0.477843
710 1 0.577956 0.916964 0.658894
449 1 0.671178 -0.00627864 0.486993
451 1 0.74682 -0.00408402 0.581214
572 1 0.655126 0.924358 0.575748
714 1 0.74742 0.924687 0.667359
575 1 0.917752 0.827277 0.582349
576 1 0.82895 0.90189 0.588778
718 1 0.919385 0.915035 0.661456
578 1 0.0770122 0.071399 0.658733
584 1 0.180002 0.0770469 0.755694
722 1 0.0657805 0.0769916 0.855225
582 1 0.259247 0.0763567 0.655116
583 1 0.254431 1.01098 0.735997
725 1 0.159648 1.01056 0.853697
726 1 0.248887 0.0646922 0.851264
588 1 0.34531 0.0911046 0.74096
611 1 0.414869 0.169408 0.749272
592 1 0.505225 0.0935229 0.754983
613 1 0.515093 0.169313 0.672563
734 1 0.585827 0.0914259 0.828742
615 1 0.589996 0.170851 0.764112
593 1 0.670304 0.0026594 0.662394
596 1 0.660122 0.0843878 0.736964
600 1 0.838115 0.0717059 0.748941
580 1 1.00027 0.0692322 0.758343
599 1 0.918814 0.998503 0.742307
603 1 0.0832599 0.134363 0.761904
746 1 0.0999113 0.239299 0.827856
608 1 0.179834 0.245381 0.752893
749 1 0.178089 0.160726 0.834237
606 1 0.250096 0.25003 0.662523
607 1 0.259187 0.159367 0.746166
612 1 0.324485 0.243338 0.740443
750 1 0.265124 0.233194 0.845418
609 1 0.320812 0.159206 0.655565
610 1 0.408926 0.255183 0.678058
753 1 0.335645 0.143019 0.834901
754 1 0.403813 0.238455 0.822904
616 1 0.493808 0.265099 0.746847
641 1 0.673661 0.335999 0.656975
621 1 0.840776 0.16103 0.661189
619 1 0.755426 0.161138 0.739489
620 1 0.660306 0.257721 0.743019
618 1 0.740963 0.250365 0.681071
643 1 0.745375 0.335279 0.743658
623 1 0.918925 0.163112 0.756354
604 1 0.0144136 0.241216 0.770013
624 1 0.842822 0.241433 0.735416
627 1 0.0831036 0.338915 0.755424
632 1 0.173496 0.420822 0.769695
773 1 0.165346 0.336368 0.841983
631 1 0.24147 0.329558 0.764674
655 1 0.260811 0.513374 0.756028
636 1 0.318561 0.41172 0.755667
774 1 0.250542 0.411999 0.842561
634 1 0.418989 0.415479 0.666345
635 1 0.421166 0.333944 0.75185
640 1 0.505686 0.411389 0.737725
639 1 0.5837 0.337421 0.767995
644 1 0.655413 0.41487 0.74514
663 1 0.576676 0.489311 0.749387
809 1 0.655568 0.503729 0.827898
648 1 0.81894 0.415276 0.742587
667 1 0.739957 0.480344 0.748833
786 1 0.72728 0.406877 0.847071
625 1 0.994343 0.321511 0.682661
647 1 0.904982 0.329598 0.752072
628 1 0.991047 0.414577 0.742944
646 1 0.910932 0.419214 0.673177
651 1 0.0750632 0.48518 0.760834
675 1 0.0814183 0.661631 0.733776
794 1 0.0948894 0.577581 0.839847
656 1 0.155524 0.583301 0.745831
679 1 0.247057 0.64884 0.742631
660 1 0.345805 0.591588 0.747004
798 1 0.267223 0.590204 0.835599
659 1 0.409478 0.500236 0.761877
664 1 0.503679 0.560283 0.740434
802 1 0.429384 0.585078 0.821515
668 1 0.646745 0.585808 0.739229
687 1 0.571365 0.674289 0.735623
669 1 0.830582 0.503284 0.651075
666 1 0.74203 0.590941 0.668761
672 1 0.823583 0.572073 0.740868
810 1 0.741914 0.573638 0.810651
691 1 0.72268 0.669748 0.743082
673 1 -0.00488647 0.673319 0.671114
652 1 0.00453134 0.576787 0.754241
670 1 0.90799 0.585205 0.669773
671 1 0.904869 0.498275 0.745053
814 1 0.899938 0.570276 0.828844
676 1 0.000918588 0.742794 0.770706
680 1 0.169194 0.756744 0.749427
818 1 0.0968263 0.747767 0.837673
822 1 0.246412 0.755876 0.825905
681 1 0.336491 0.671384 0.676051
684 1 0.352705 0.757334 0.744092
683 1 0.439459 0.665618 0.742374
826 1 0.428984 0.767728 0.826359
688 1 0.498978 0.765499 0.734937
707 1 0.423989 0.851204 0.741585
686 1 0.585161 0.757638 0.666202
692 1 0.654752 0.754056 0.759244
830 1 0.569468 0.76952 0.835298
696 1 0.837844 0.747694 0.763066
834 1 0.735581 0.747887 0.842298
695 1 0.918246 0.655814 0.764231
719 1 0.906692 0.840672 0.755224
837 1 0.826957 0.652341 0.83276
817 1 0.000399466 0.653624 0.83259
838 1 0.920045 0.738139 0.838809
579 1 0.0864119 0.00614373 0.750155
699 1 0.0853345 0.83858 0.750005
841 1 1.00001 0.838764 0.82787
704 1 0.161151 0.923276 0.774995
703 1 0.266405 0.842548 0.737706
708 1 0.340153 0.917764 0.747067
846 1 0.259851 0.903739 0.835066
587 1 0.41687 1.00244 0.741786
850 1 0.429203 0.928909 0.825634
591 1 0.581934 1.00391 0.746296
733 1 0.506464 -0.00441579 0.841891
712 1 0.501723 0.927184 0.742748
711 1 0.578511 0.849098 0.74878
853 1 0.511434 0.858016 0.835979
854 1 0.597181 0.920542 0.841978
716 1 0.662463 0.919016 0.754199
857 1 0.666996 0.826729 0.826514
595 1 0.760021 0.00461972 0.738812
715 1 0.763106 0.823294 0.760893
700 1 0.00655468 0.914404 0.752236
861 1 0.831493 0.827789 0.839639
720 1 0.832402 0.921167 0.736679
741 1 0.834387 0.00294339 0.838287
29 1 0.181598 0.171087 -0.00745708
5 1 0.167982 1.00419 0.999379
721 1 0.994138 0.999311 0.841328
728 1 0.15887 0.100735 0.921591
724 1 0.983162 0.0960097 0.923212
723 1 0.0802741 0.999941 0.926365
727 1 0.255167 0.992102 0.937711
751 1 0.25746 0.15781 0.930215
10 1 0.419092 0.0872942 0.00321624
729 1 0.348867 0.999917 0.829313
730 1 0.4294 0.077369 0.833097
732 1 0.339239 0.07773 0.937709
731 1 0.403014 0.983944 0.931214
736 1 0.497581 0.057832 0.935959
735 1 0.587826 1.01041 0.914004
759 1 0.582156 0.167571 0.911447
738 1 0.762683 0.0885956 0.813414
737 1 0.679056 0.00509337 0.821897
740 1 0.661926 0.08803 0.908748
761 1 0.682042 0.169404 0.826011
763 1 0.748958 0.15699 0.913446
744 1 0.841698 0.0850543 0.90865
739 1 0.751337 0.0237431 0.904435
765 1 0.832493 0.181686 0.822895
745 1 -0.00120318 0.156274 0.835028
742 1 0.916474 0.0769309 0.829558
743 1 0.913857 0.00369222 0.914965
767 1 0.915038 0.170893 0.916225
49 1 0.00599577 0.332038 0.993324
747 1 0.0898061 0.176858 0.920839
748 1 0.996629 0.228122 0.917061
771 1 0.0801649 0.328074 0.910761
752 1 0.173547 0.246211 0.909144
775 1 0.240035 0.322122 0.928243
756 1 0.344623 0.228472 0.909481
34 1 0.426575 0.240563 1.00336
755 1 0.422027 0.159031 0.916221
779 1 0.410391 0.320753 0.911362
758 1 0.570496 0.251913 0.829079
757 1 0.503519 0.180042 0.838761
760 1 0.501395 0.242441 0.927602
781 1 0.498116 0.349127 0.840697
762 1 0.744718 0.255345 0.81387
764 1 0.658317 0.245728 0.928735
787 1 0.74556 0.301676 0.916772
766 1 0.920255 0.244077 0.818348
768 1 0.834449 0.241712 0.911485
789 1 0.808144 0.334565 0.821991
791 1 0.917548 0.320211 0.917378
770 1 0.0713312 0.410223 0.838526
50 1 0.0817471 0.415986 0.992475
797 1 0.186414 0.500021 0.83251
777 1 0.326782 0.323319 0.834138
54 1 0.244051 0.423007 0.996881
776 1 0.158029 0.418189 0.906288
57 1 0.331329 0.322018 0.98973
780 1 0.33356 0.426144 0.92068
58 1 0.419012 0.429163 0.0015507
85 1 0.528525 0.515137 0.00789244
778 1 0.398206 0.419849 0.840041
81 1 0.346894 0.511962 0.983043
784 1 0.507178 0.436519 0.92268
803 1 0.429736 0.508975 0.915417
785 1 0.668792 0.321468 0.839137
783 1 0.579357 0.331379 0.927634
805 1 0.507217 0.514539 0.835417
782 1 0.576034 0.427098 0.839478
807 1 0.589153 0.508561 0.920218
69 1 0.822559 0.311576 0.992287
813 1 0.822672 0.48893 0.810133
788 1 0.651896 0.410629 0.918517
66 1 0.754336 0.395316 0.998949
811 1 0.731925 0.491168 0.908053
769 1 -0.0116919 0.333382 0.831908
792 1 0.822827 0.37896 0.917892
772 1 0.987131 0.412716 0.901467
790 1 0.906628 0.408182 0.830952
77 1 0.164617 0.506464 0.00578919
793 1 0.975908 0.498537 0.829861
795 1 0.0851937 0.492424 0.915889
74 1 0.0793086 0.574447 0.982258
101 1 0.180578 0.660781 0.997209
801 1 0.334001 0.507555 0.842472
799 1 0.251842 0.500461 0.908302
800 1 0.185198 0.586636 0.919626
804 1 0.353436 0.594385 0.906928
823 1 0.262825 0.677898 0.916201
825 1 0.342704 0.698321 0.826289
82 1 0.422476 0.605564 0.000984041
829 1 0.48993 0.682389 0.828857
808 1 0.514067 0.596604 0.91211
109 1 0.495441 0.677074 0.0137914
113 1 0.660661 0.688743 1.00707
833 1 0.654214 0.669111 0.822897
86 1 0.573622 0.60198 0.996273
806 1 0.578469 0.593875 0.826922
812 1 0.666227 0.589219 0.916896
93 1 0.81893 0.484991 0.968384
90 1 0.7387 0.594905 1.0146
816 1 0.819985 0.570255 0.904414
835 1 0.748898 0.66551 0.929962
815 1 0.900256 0.483049 0.89971
796 1 1.00436 0.570059 0.907016
819 1 0.0856363 0.674183 0.911674
820 1 0.0126912 0.766651 0.91252
121 1 0.0105807 0.826827 -0.00549765
843 1 0.0922854 0.8568 0.913044
102 1 0.248881 0.755216 0.00203105
821 1 0.175116 0.661208 0.837827
105 1 0.353053 0.683959 0.996197
824 1 0.172293 0.748146 0.925205
129 1 0.329506 0.822886 0.00948858
827 1 0.433928 0.672725 0.915265
106 1 0.415683 0.768754 0.00781825
828 1 0.354061 0.756791 0.917883
832 1 0.498757 0.76601 0.925364
851 1 0.42542 0.852039 0.930183
831 1 0.576764 0.689449 0.898444
836 1 0.666516 0.751726 0.914057
114 1 0.75121 0.758273 0.00480677
840 1 0.819349 0.745274 0.909046
141 1 0.83934 0.828783 0.99326
839 1 0.923887 0.642306 0.901239
118 1 0.921952 0.758105 0.991617
863 1 0.912844 0.842833 0.910339
842 1 0.0712745 0.920968 0.839731
1 1 0.989876 0.0101677 0.993252
122 1 0.0911323 0.918334 -0.00132957
845 1 0.174148 0.833998 0.836335
125 1 0.167438 0.827371 1.00791
847 1 0.256356 0.818754 0.912796
848 1 0.174901 0.91875 0.905193
852 1 0.317768 0.905149 0.928154
849 1 0.341654 0.835324 0.821866
9 1 0.334204 1.00078 0.017587
130 1 0.414597 0.913305 0.0203807
137 1 0.670466 0.848885 0.992247
855 1 0.592156 0.835063 0.926276
856 1 0.515724 0.913634 0.916553
860 1 0.679934 0.935633 0.916287
858 1 0.749888 0.911702 0.820121
859 1 0.755566 0.830334 0.919155
142 1 0.917409 0.907849 1.0072
844 1 -0.0091128 0.919007 0.921195
864 1 0.835153 0.917257 0.900731
862 1 0.916531 0.92065 0.83375
