ITEM: TIMESTEP
1750
ITEM: NUMBER OF ATOMS
864
ITEM: BOX BOUNDS pp pp pp
0.0000000000000000e+00 3.1559999999999999e+01
0.0000000000000000e+00 3.1559999999999999e+01
0.0000000000000000e+00 3.1559999999999999e+01
ITEM: ATOMS id type xs ys zs
8 1 0.172727 0.0916095 0.0742279
27 1 0.0755767 0.180297 0.0945573
66 1 0.75554 0.418903 0.0112128
213 1 0.839314 0.334638 0.335931
12 1 0.331875 0.0793098 0.0956536
657 1 0.333546 0.49822 0.491391
78 1 0.253858 0.0732227 0.174303
101 1 0.159367 0.166471 0.171651
16 1 0.510541 0.0806884 0.0944528
521 1 0.655409 0.481221 0.143726
33 1 0.32907 0.181921 0.0176254
105 1 0.344941 0.152264 0.163519
7 1 0.244314 0.0105629 0.0814323
86 1 0.601744 0.100654 0.180472
46 1 0.923426 0.24802 0.00505873
583 1 0.242366 0.489648 0.415692
270 1 0.22497 0.406916 0.499326
216 1 0.851636 0.415379 0.415415
20 1 0.654271 0.0812928 0.0821753
43 1 0.760239 0.158477 0.0940345
257 1 0.677245 0.146941 0.491942
4 1 0.996004 0.107989 0.077002
282 1 0.756359 0.428855 0.482804
29 1 0.165758 0.171249 0.00382218
24 1 0.834382 0.0899036 0.0723655
209 1 0.673272 0.339202 0.331918
22 1 0.914897 0.0928832 0.00254662
28 1 0.992392 0.243468 0.0821022
51 1 0.0716971 0.343287 0.0877137
98 1 0.100893 0.275105 0.176367
121 1 0.994319 0.337568 0.174726
31 1 0.235686 0.173998 0.0968939
32 1 0.162366 0.250703 0.0780331
36 1 0.325649 0.255328 0.106154
55 1 0.251925 0.331435 0.0942908
225 1 0.330413 2.16578e-05 0.496071
102 1 0.240302 0.253694 0.170217
129 1 0.345421 0.33563 0.173502
35 1 0.429151 0.146663 0.0679532
210 1 0.756065 0.416723 0.339211
59 1 0.42134 0.327711 0.0809574
109 1 0.505533 0.159723 0.175697
196 1 0.00156849 0.418506 0.433766
39 1 0.585578 0.157103 0.0876604
40 1 0.502446 0.23352 0.0892133
63 1 0.577331 0.315143 0.0884276
110 1 0.589316 0.248419 0.177551
133 1 0.494591 0.330373 0.17152
44 1 0.675034 0.255022 0.0868011
48 1 0.832215 0.263014 0.0866617
67 1 0.750708 0.334568 0.0640317
211 1 0.750528 0.334683 0.427831
47 1 0.913078 0.171872 0.0947358
117 1 0.841514 0.173568 0.170255
159 1 0.586189 0.00378925 0.410589
52 1 0.00708251 0.436306 0.0637494
56 1 0.157699 0.411545 0.0763982
54 1 0.254245 0.411373 0.00521425
122 1 0.0854593 0.420355 0.178381
125 1 0.167267 0.348781 0.1611
591 1 0.592265 0.491682 0.405311
60 1 0.344049 0.404237 0.0944306
593 1 0.672148 0.47178 0.325283
204 1 0.321224 0.410501 0.406587
130 1 0.420483 0.410506 0.16223
147 1 0.0897446 0.00675918 0.420133
64 1 0.494614 0.415627 0.0728362
68 1 0.665809 0.398774 0.0838634
134 1 0.562582 0.419464 0.160402
218 1 0.0916152 0.0967854 0.496869
138 1 0.753191 0.408639 0.147395
525 1 0.829295 0.494136 0.16439
71 1 0.926722 0.336383 0.0756965
72 1 0.837939 0.398128 0.0788196
141 1 0.83935 0.337276 0.169429
253 1 0.501826 0.15679 0.491895
74 1 0.0878789 0.0888039 0.170322
76 1 0.0110317 0.0707141 0.238875
80 1 0.182101 0.0908867 0.246551
99 1 0.0757648 0.16875 0.25132
146 1 0.0970442 0.0985097 0.340873
84 1 0.338582 0.0784112 0.249512
103 1 0.249685 0.179547 0.253268
150 1 0.256697 0.0926038 0.341295
447 1 0.572454 0.492337 0.082493
82 1 0.424738 0.0736062 0.173224
88 1 0.511441 0.0802275 0.260131
505 1 0.00712772 0.492133 0.153346
41 1 0.66383 0.162592 0.00349264
30 1 0.247918 0.244716 0.011556
92 1 0.676071 0.0841548 0.261518
158 1 0.590803 0.0784485 0.334698
185 1 0.687342 0.170088 0.338976
222 1 0.270204 0.0956799 0.496784
90 1 0.758008 0.0688423 0.154132
96 1 0.845398 0.0910028 0.261766
57 1 0.334768 0.333212 0.00449628
94 1 0.910223 0.0769612 0.177105
70 1 0.918926 0.41916 0.0105515
97 1 0.00196411 0.167993 0.163201
100 1 0.00448859 0.251765 0.256616
104 1 0.166481 0.254848 0.267981
127 1 0.255631 0.330392 0.24973
106 1 0.421195 0.240676 0.163511
107 1 0.418101 0.165976 0.257086
108 1 0.327864 0.249737 0.247735
131 1 0.412821 0.330048 0.242641
177 1 0.32771 0.164482 0.334999
205 1 0.498345 0.319719 0.329856
111 1 0.603775 0.174377 0.261186
112 1 0.507846 0.243113 0.252552
113 1 0.676462 0.170124 0.160207
114 1 0.754857 0.254449 0.159514
115 1 0.753647 0.167154 0.223606
116 1 0.687284 0.24537 0.250478
137 1 0.667761 0.326241 0.173311
118 1 0.920056 0.26116 0.166716
119 1 0.918169 0.171409 0.248576
120 1 0.838578 0.253072 0.244347
123 1 0.0858108 0.341249 0.262357
124 1 0.988344 0.421082 0.244102
193 1 0.99759 0.319864 0.335654
194 1 0.0648647 0.42127 0.338115
198 1 0.234722 0.414046 0.333615
126 1 0.247705 0.414188 0.162287
128 1 0.169219 0.420837 0.250013
132 1 0.345041 0.421448 0.250269
23 1 0.894169 0.00334589 0.0811315
42 1 0.736344 0.252293 0.00214995
202 1 0.422078 0.398867 0.323018
201 1 0.333087 0.341465 0.332492
203 1 0.415253 0.334263 0.40534
26 1 0.085636 0.250012 0.00627027
135 1 0.580874 0.326397 0.253953
136 1 0.503684 0.401569 0.244439
449 1 0.667937 0.490982 0.0198851
511 1 0.266463 0.490189 0.248875
139 1 0.752475 0.335347 0.240282
140 1 0.642023 0.407128 0.238163
214 1 0.925443 0.430027 0.335908
142 1 0.918203 0.419874 0.158524
143 1 0.913607 0.344367 0.25272
144 1 0.838204 0.415887 0.246614
523 1 0.744681 0.491588 0.231702
152 1 0.171608 0.0720625 0.414832
169 1 0.989197 0.158643 0.323032
171 1 0.0857029 0.172111 0.422017
173 1 0.168797 0.166745 0.333188
62 1 0.586343 0.414218 0.00825275
175 1 0.253471 0.180996 0.416922
77 1 0.165112 0.00614351 0.162249
226 1 0.412626 0.0811115 0.496482
154 1 0.419134 0.080375 0.320698
156 1 0.335407 0.0881254 0.417504
179 1 0.409443 0.16617 0.410834
208 1 0.502688 0.404564 0.404975
160 1 0.493708 0.087938 0.405826
61 1 0.515725 0.326001 0.00614883
599 1 0.926041 0.499419 0.420213
162 1 0.74854 0.0862393 0.352865
164 1 0.668489 0.0727075 0.421561
168 1 0.841261 0.085534 0.405618
187 1 0.766824 0.169047 0.42808
189 1 0.832754 0.168631 0.333047
148 1 0.997311 0.0973876 0.419999
166 1 0.923715 0.0719512 0.335842
191 1 0.91015 0.170587 0.42321
277 1 0.505935 0.331317 0.488174
585 1 0.335835 0.491725 0.326898
195 1 0.0669895 0.340238 0.430348
170 1 0.0873647 0.240342 0.333314
176 1 0.160808 0.252191 0.421781
199 1 0.23379 0.336561 0.420152
197 1 0.159712 0.337403 0.345254
174 1 0.245544 0.266593 0.350331
180 1 0.334128 0.24569 0.430327
151 1 0.253211 0.00253204 0.404563
178 1 0.410797 0.245021 0.321493
181 1 0.516925 0.168935 0.336501
184 1 0.498694 0.251943 0.417355
250 1 0.426963 0.238802 0.497584
153 1 0.324896 0.000408009 0.326693
207 1 0.591939 0.321714 0.421663
182 1 0.601949 0.252034 0.336407
183 1 0.601288 0.15997 0.421553
186 1 0.755103 0.258657 0.349509
188 1 0.682818 0.24044 0.432063
192 1 0.839446 0.255942 0.435403
215 1 0.917786 0.328616 0.409973
172 1 0.996051 0.244479 0.419729
190 1 0.921939 0.24489 0.34202
212 1 0.670692 0.403171 0.415974
435 1 0.0899402 0.486079 0.0833467
206 1 0.577208 0.418262 0.325102
200 1 0.147862 0.42833 0.405621
161 1 0.66986 0.00609298 0.33027
587 1 0.416704 0.48828 0.405505
597 1 0.833714 0.499736 0.326845
91 1 0.756476 0.00726452 0.248701
278 1 0.585117 0.398355 0.485033
439 1 0.261606 0.495396 0.0791339
79 1 0.25208 0.00777046 0.258558
589 1 0.498906 0.490167 0.328089
5 1 0.16655 0.0159098 0.00309034
9 1 0.335878 0.00598019 0.00912804
87 1 0.592231 0.00342144 0.256141
11 1 0.412384 0.00291487 0.0851389
234 1 0.768286 0.0846627 0.487003
89 1 0.66453 0.0108129 0.177428
3 1 0.0501605 0.0199849 0.0921237
273 1 0.325378 0.339869 0.495793
65 1 0.656835 0.32356 0.00150645
38 1 0.584888 0.243113 0.0122898
6 1 0.26852 0.0982838 0.00945229
274 1 0.422373 0.419269 0.492972
665 1 0.663045 0.494852 0.489544
443 1 0.403911 0.491988 0.0861325
661 1 0.506854 0.494002 0.486087
245 1 0.169324 0.178164 0.499815
18 1 0.74552 0.0901008 0.000520743
509 1 0.171459 0.49399 0.169759
243 1 0.0870965 0.159308 0.599203
381 1 0.835242 0.00819557 0.839614
290 1 0.0840281 0.0741711 0.658508
224 1 0.174204 0.0909444 0.582261
295 1 0.253281 0.00138272 0.756112
14 1 0.581832 0.0853997 0.984961
247 1 0.255997 0.159033 0.590696
294 1 0.26033 0.0793512 0.661031
317 1 0.177324 0.150866 0.68076
228 1 0.345988 0.0809 0.581449
232 1 0.497251 0.0657605 0.581875
298 1 0.42887 0.0802637 0.659178
269 1 0.1489 0.326744 0.501594
236 1 0.671183 0.0628804 0.599415
239 1 0.913603 0.00146414 0.582231
306 1 0.746523 0.0844782 0.684188
375 1 0.601135 0.000492178 0.910534
220 1 0.989581 0.091052 0.5757
240 1 0.826383 0.0888746 0.585367
363 1 0.100874 0.0154624 0.914787
263 1 0.908727 0.169363 0.590617
333 1 0.82425 0.168073 0.662184
743 1 0.920457 0.496842 0.754225
267 1 0.0915476 0.333976 0.603039
337 1 0.998547 0.331973 0.678529
248 1 0.175637 0.245573 0.593387
271 1 0.236508 0.337404 0.582625
341 1 0.174607 0.323367 0.671852
251 1 0.427232 0.162336 0.583899
252 1 0.331572 0.260984 0.57186
256 1 0.497681 0.248355 0.587159
322 1 0.408564 0.254493 0.661721
325 1 0.509354 0.158006 0.656619
349 1 0.503781 0.350309 0.672419
261 1 0.837955 0.171013 0.510351
255 1 0.598851 0.148199 0.587263
326 1 0.590903 0.24399 0.668144
353 1 0.674834 0.340438 0.652378
453 1 0.833641 0.495286 0.988818
259 1 0.737345 0.148552 0.580893
260 1 0.666666 0.231254 0.59166
283 1 0.76208 0.324201 0.586412
330 1 0.76011 0.24677 0.666954
49 1 0.0020764 0.339045 0.989315
244 1 0.00237766 0.24117 0.595933
264 1 0.83731 0.247108 0.583294
287 1 0.926396 0.347333 0.589891
334 1 0.914486 0.261961 0.66734
268 1 0.015655 0.418778 0.577876
338 1 0.0741728 0.414909 0.67599
272 1 0.164043 0.41516 0.590083
276 1 0.342309 0.408826 0.582826
345 1 0.314258 0.331789 0.660606
53 1 0.166656 0.331063 0.992315
275 1 0.419241 0.327752 0.593054
280 1 0.505305 0.414185 0.577613
279 1 0.577843 0.326067 0.577323
284 1 0.661351 0.410341 0.559348
350 1 0.593072 0.416096 0.664638
285 1 0.829907 0.343789 0.507792
235 1 0.757405 0.00245575 0.574591
430 1 0.916182 0.418109 0.832347
288 1 0.816705 0.426225 0.580335
286 1 0.912835 0.430604 0.506792
223 1 0.256985 0.00547579 0.588248
357 1 0.834101 0.337533 0.66821
358 1 0.911936 0.431448 0.675094
292 1 0.00337376 0.0605351 0.746853
296 1 0.175946 0.0762471 0.759466
313 1 0.987677 0.136885 0.670047
315 1 0.0870354 0.15108 0.741975
10 1 0.420354 0.0836682 0.985318
319 1 0.252093 0.159695 0.760347
321 1 0.352756 0.162133 0.650006
293 1 0.172159 0.00197218 0.669847
300 1 0.345576 0.0877505 0.721756
304 1 0.504991 0.100622 0.744633
246 1 0.246787 0.262258 0.507
302 1 0.583977 0.0825107 0.66927
374 1 0.580525 0.0872576 0.833602
308 1 0.661897 0.0814326 0.748955
401 1 0.675738 0.168182 0.817416
378 1 0.749288 0.0783003 0.840031
312 1 0.830136 0.0813377 0.760748
329 1 0.670434 0.166572 0.673106
310 1 0.910617 0.057463 0.678949
335 1 0.911787 0.165629 0.732974
405 1 0.844849 0.159167 0.848945
1 1 0.999705 0.0225653 0.997302
314 1 0.0871337 0.236349 0.662466
316 1 0.00748311 0.235549 0.73439
339 1 0.0972392 0.327687 0.742623
318 1 0.250474 0.245751 0.66495
320 1 0.170558 0.247511 0.742972
390 1 0.243195 0.235596 0.837427
324 1 0.327082 0.259129 0.749294
323 1 0.41454 0.177896 0.744284
394 1 0.411074 0.248826 0.830995
328 1 0.502884 0.251138 0.753401
347 1 0.421514 0.332696 0.749893
327 1 0.588684 0.168213 0.750147
398 1 0.58981 0.25599 0.827339
332 1 0.679411 0.244905 0.752482
351 1 0.587345 0.328038 0.738642
425 1 0.671698 0.331486 0.833219
331 1 0.765436 0.164483 0.750928
355 1 0.763673 0.32181 0.756944
336 1 0.839886 0.249659 0.766556
406 1 0.932491 0.239256 0.814942
359 1 0.915681 0.338986 0.760297
429 1 0.836355 0.328293 0.842959
242 1 0.0605922 0.257635 0.504856
340 1 0.999357 0.412383 0.747148
409 1 0.997919 0.326292 0.826716
344 1 0.164989 0.419688 0.746611
45 1 0.82887 0.169622 0.999778
342 1 0.246266 0.4133 0.679925
343 1 0.243864 0.33243 0.757923
301 1 0.513853 0.00400468 0.677274
2 1 0.0894183 0.093657 0.988467
346 1 0.411993 0.414473 0.667775
348 1 0.338336 0.405371 0.751974
417 1 0.338777 0.338873 0.838695
352 1 0.512002 0.428313 0.752281
809 1 0.673704 0.492783 0.840523
422 1 0.588959 0.427965 0.83127
356 1 0.66868 0.417173 0.752467
281 1 0.666444 0.328853 0.506173
354 1 0.75057 0.404042 0.678029
426 1 0.754176 0.413557 0.835733
58 1 0.41413 0.420125 0.980986
69 1 0.843238 0.328206 0.99227
360 1 0.830969 0.420528 0.754782
387 1 0.088386 0.163246 0.901082
362 1 0.0690372 0.0877943 0.829611
385 1 0.995591 0.160259 0.833684
364 1 0.00400158 0.0910278 0.924176
368 1 0.181632 0.0953891 0.91758
733 1 0.496564 0.492878 0.658946
366 1 0.257038 0.0780468 0.838331
393 1 0.336434 0.164096 0.834543
372 1 0.339467 0.0886232 0.919282
25 1 0.0151017 0.169842 0.984548
370 1 0.415612 0.0909653 0.827554
397 1 0.491752 0.184446 0.83518
376 1 0.49844 0.0873059 0.910868
221 1 0.190982 0.0155137 0.501776
380 1 0.670922 0.0874227 0.917729
383 1 0.923601 0.00172059 0.92011
219 1 0.0893391 0.00244762 0.573034
793 1 0.00803006 0.49343 0.831814
384 1 0.831666 0.0800617 0.924873
403 1 0.75505 0.166093 0.91447
254 1 0.586114 0.223671 0.512819
379 1 0.741921 0.00119433 0.920379
249 1 0.347723 0.171336 0.507219
265 1 0.992562 0.337481 0.50273
373 1 0.496467 0.00980874 0.804781
382 1 0.915621 0.0916388 0.810589
428 1 0.67213 0.409284 0.920052
241 1 0.982331 0.176914 0.504962
388 1 0.999146 0.24994 0.915619
386 1 0.079414 0.239546 0.801683
389 1 0.168523 0.162616 0.818369
17 1 0.662462 0.0125991 0.995729
396 1 0.324702 0.254612 0.897166
392 1 0.168739 0.252705 0.915827
391 1 0.258812 0.162951 0.912693
727 1 0.254438 0.497493 0.750258
395 1 0.412603 0.172404 0.926659
419 1 0.415381 0.330435 0.925279
400 1 0.512599 0.244968 0.921724
799 1 0.255129 0.498332 0.913249
423 1 0.592919 0.316082 0.920442
404 1 0.676388 0.246805 0.915341
421 1 0.516665 0.346799 0.828449
399 1 0.591232 0.175766 0.907788
237 1 0.843144 0.00376601 0.503907
427 1 0.743641 0.325478 0.931274
659 1 0.419371 0.489834 0.583543
408 1 0.836252 0.246288 0.922356
402 1 0.765475 0.249373 0.842863
431 1 0.919552 0.314676 0.907709
258 1 0.759633 0.248689 0.513633
407 1 0.917237 0.170604 0.92401
729 1 0.326665 0.491261 0.675732
416 1 0.17364 0.413201 0.922605
412 1 0.993635 0.41028 0.905636
411 1 0.0834996 0.322245 0.902346
410 1 0.0886939 0.412581 0.825934
415 1 0.248629 0.323096 0.933222
413 1 0.166458 0.319871 0.831931
414 1 0.255338 0.42321 0.831812
663 1 0.586423 0.499794 0.569478
420 1 0.32761 0.411482 0.910392
418 1 0.416301 0.420324 0.82968
813 1 0.823704 0.491585 0.83093
655 1 0.261056 0.499242 0.570792
424 1 0.514337 0.394763 0.921614
217 1 0.0015695 0.00612903 0.505198
731 1 0.412515 0.489403 0.736033
432 1 0.834913 0.41453 0.920347
369 1 0.334704 0.0114749 0.836673
801 1 0.340456 0.498227 0.833064
437 1 0.174805 0.493465 0.993662
37 1 0.50425 0.169178 0.993714
34 1 0.42886 0.251964 0.997546
238 1 0.906192 0.0921231 0.505202
807 1 0.587354 0.485926 0.935518
262 1 0.916551 0.258632 0.508453
266 1 0.0889398 0.420742 0.5074
651 1 0.0915649 0.492655 0.600785
13 1 0.507775 0.00685548 0.995141
371 1 0.421973 0.00486604 0.911365
50 1 0.0900913 0.412242 0.990331
365 1 0.160605 0.000546284 0.832989
723 1 0.0926696 0.495823 0.731671
230 1 0.596904 0.0784587 0.50008
797 1 0.168611 0.48928 0.835065
440 1 0.174598 0.571047 0.0864672
459 1 0.104941 0.656672 0.077061
682 1 0.416131 0.762184 0.49157
533 1 0.166858 0.654735 0.171004
446 1 0.587488 0.570169 0.00749206
463 1 0.247679 0.662713 0.0755942
709 1 0.510194 0.832126 0.494505
510 1 0.252133 0.562933 0.180611
717 1 0.83849 0.81622 0.494886
444 1 0.334228 0.578016 0.0760735
537 1 0.331696 0.659495 0.167622
448 1 0.492022 0.585024 0.07403
471 1 0.583791 0.669453 0.0833128
577 1 0.994295 0.513005 0.323948
579 1 0.0820097 0.503103 0.416813
518 1 0.584989 0.58416 0.147909
452 1 0.663675 0.584657 0.0770762
456 1 0.832038 0.586719 0.0870276
628 1 0.00376595 0.909635 0.412296
436 1 0.00172289 0.573691 0.0820278
479 1 0.934929 0.653694 0.0757959
526 1 0.918246 0.589791 0.15731
549 1 0.817227 0.665302 0.159667
581 1 0.169283 0.503908 0.336713
464 1 0.18091 0.746279 0.0736018
530 1 0.0755789 0.744158 0.146471
658 1 0.413543 0.584349 0.476962
685 1 0.50205 0.661575 0.498134
487 1 0.254881 0.826183 0.0962617
534 1 0.261867 0.747354 0.172946
561 1 0.342254 0.823622 0.152801
501 1 0.814575 0.822788 0.00322479
467 1 0.415304 0.664181 0.0811312
468 1 0.320757 0.747277 0.0786641
491 1 0.435535 0.822387 0.0817528
648 1 0.825086 0.904182 0.424479
538 1 0.420731 0.738311 0.166788
472 1 0.506018 0.747844 0.0845872
541 1 0.505061 0.657061 0.161443
542 1 0.588322 0.741251 0.160423
475 1 0.74872 0.671307 0.0680946
476 1 0.661392 0.741902 0.0829392
480 1 0.834281 0.748679 0.083428
546 1 0.738868 0.75255 0.160571
569 1 0.65471 0.82658 0.172858
460 1 0.00280492 0.741273 0.0675152
483 1 0.080008 0.836977 0.0739632
484 1 0.987124 0.920398 0.079889
554 1 0.0860358 0.927867 0.156579
75 1 0.0749618 0.99471 0.25082
466 1 0.425118 0.752695 0.00122699
85 1 0.504898 0.989362 0.170277
706 1 0.411848 0.914697 0.489411
488 1 0.168315 0.922608 0.0790452
558 1 0.243597 0.9207 0.168367
713 1 0.678612 0.833577 0.489421
507 1 0.0816574 0.500053 0.265347
517 1 0.493281 0.505725 0.16898
492 1 0.336848 0.930866 0.0922395
562 1 0.421739 0.910823 0.167582
95 1 0.914373 0.984183 0.259356
155 1 0.402987 0.995917 0.411429
495 1 0.586756 0.819757 0.083512
496 1 0.513972 0.911171 0.0912985
499 1 0.740912 0.828506 0.0901351
500 1 0.663186 0.920401 0.102062
573 1 0.831944 0.819512 0.163728
570 1 0.74162 0.897226 0.183708
503 1 0.912259 0.813758 0.0851932
504 1 0.837907 0.895827 0.0808733
574 1 0.915207 0.897311 0.156306
19 1 0.743537 0.992503 0.0900766
477 1 0.831022 0.666629 0.00731932
506 1 0.0814448 0.579627 0.167976
508 1 0.997005 0.578077 0.241795
445 1 0.484285 0.502824 0.00338015
718 1 0.918328 0.908551 0.486629
512 1 0.167003 0.566083 0.250927
535 1 0.266522 0.669285 0.249706
582 1 0.251401 0.574946 0.329443
498 1 0.746543 0.912328 0.0200996
514 1 0.414269 0.588698 0.168442
516 1 0.33046 0.585513 0.250957
586 1 0.417575 0.573753 0.334953
613 1 0.494169 0.659078 0.342335
697 1 0.00107706 0.82556 0.490798
520 1 0.503324 0.577581 0.255444
590 1 0.578643 0.589418 0.33772
522 1 0.748206 0.574694 0.167855
524 1 0.654948 0.573888 0.253769
545 1 0.667363 0.666141 0.155974
547 1 0.7387 0.671367 0.242615
617 1 0.654767 0.6678 0.321077
647 1 0.926303 0.809002 0.414098
15 1 0.578761 0.993433 0.0884508
528 1 0.83814 0.575525 0.239146
529 1 0.00930446 0.653564 0.165314
551 1 0.926447 0.655884 0.244246
531 1 0.0863069 0.671847 0.243189
555 1 0.0708918 0.827377 0.249007
557 1 0.160075 0.845508 0.179454
536 1 0.177136 0.754033 0.242293
605 1 0.164787 0.670968 0.320869
629 1 0.176757 0.830763 0.315297
539 1 0.424316 0.658292 0.242397
540 1 0.354239 0.746246 0.245157
563 1 0.410368 0.835584 0.241613
565 1 0.520226 0.836569 0.170014
609 1 0.335688 0.663197 0.3312
610 1 0.422103 0.745672 0.330302
633 1 0.33748 0.829243 0.327255
543 1 0.583828 0.67562 0.248021
544 1 0.502954 0.738258 0.238337
567 1 0.589999 0.819566 0.266966
614 1 0.574887 0.748222 0.347697
637 1 0.489712 0.82664 0.335633
641 1 0.677216 0.827723 0.342221
548 1 0.657961 0.749606 0.252544
571 1 0.758567 0.830651 0.259247
552 1 0.823366 0.746854 0.244706
532 1 0.00152676 0.744148 0.236382
553 1 0.00577102 0.823357 0.150035
550 1 0.9116 0.748051 0.176276
575 1 0.905904 0.816696 0.251321
622 1 0.920029 0.741614 0.321868
229 1 0.493266 0.989569 0.483614
626 1 0.0902211 0.911122 0.335453
630 1 0.244612 0.918532 0.327117
559 1 0.253687 0.838657 0.233433
560 1 0.167718 0.921265 0.248431
669 1 0.833577 0.504242 0.498372
634 1 0.407393 0.914609 0.328512
564 1 0.336225 0.906837 0.241212
638 1 0.59125 0.921512 0.331564
81 1 0.33938 0.997211 0.18448
566 1 0.595189 0.919961 0.180461
568 1 0.495137 0.904356 0.25436
572 1 0.675213 0.928213 0.257159
642 1 0.752411 0.917137 0.327687
576 1 0.82937 0.905178 0.239714
645 1 0.837856 0.821 0.337133
702 1 0.2529 0.920056 0.4981
646 1 0.909962 0.897372 0.345879
145 1 0.0097037 0.999778 0.351453
556 1 0.00437411 0.908722 0.268346
578 1 0.07956 0.585179 0.315328
584 1 0.165482 0.580414 0.401873
603 1 0.0939526 0.657198 0.406189
497 1 0.67588 0.832766 0.0100196
654 1 0.246623 0.578071 0.479671
662 1 0.585747 0.576271 0.49277
607 1 0.245681 0.671593 0.406335
149 1 0.160402 0.987046 0.34255
513 1 0.335737 0.502733 0.164044
588 1 0.338393 0.570307 0.411647
592 1 0.500602 0.576674 0.404142
73 1 0.981536 0.984089 0.172321
482 1 0.0784343 0.941243 0.0137595
233 1 0.677492 0.982694 0.491018
455 1 0.901824 0.516741 0.068572
594 1 0.751295 0.574716 0.329078
596 1 0.679481 0.580438 0.422755
600 1 0.830454 0.60071 0.413413
619 1 0.748236 0.666213 0.404939
83 1 0.425347 0.985053 0.243067
580 1 0.994347 0.58096 0.41501
623 1 0.920657 0.660234 0.416565
598 1 0.905781 0.581953 0.326703
621 1 0.824442 0.66841 0.312065
602 1 0.0860092 0.747223 0.317917
627 1 0.0915552 0.81553 0.410701
678 1 0.24422 0.747454 0.485504
606 1 0.267669 0.746633 0.309908
608 1 0.172441 0.749723 0.394816
163 1 0.767087 0.993262 0.427012
611 1 0.413938 0.671349 0.42489
612 1 0.339345 0.75118 0.417759
519 1 0.584212 0.50062 0.242886
615 1 0.590059 0.671129 0.421157
616 1 0.490736 0.758174 0.41475
639 1 0.579041 0.839779 0.416569
624 1 0.847233 0.739051 0.413653
618 1 0.738001 0.748389 0.324043
620 1 0.669694 0.750432 0.414444
643 1 0.759848 0.82502 0.404202
601 1 0.00362336 0.657339 0.325343
604 1 0.0166044 0.727814 0.409979
625 1 0.000958885 0.814316 0.328275
486 1 0.256485 0.920191 0.000748516
632 1 0.168674 0.904373 0.412631
677 1 0.16668 0.671439 0.488153
701 1 0.165371 0.827005 0.493517
450 1 0.739479 0.578683 0.00135063
165 1 0.842152 0.997429 0.33391
631 1 0.254364 0.835385 0.410589
527 1 0.9118 0.500967 0.242727
489 1 0.346869 0.841619 0.0136081
705 1 0.326853 0.826467 0.496526
636 1 0.326849 0.917799 0.408993
690 1 0.753322 0.736332 0.495026
515 1 0.40906 0.510862 0.249869
635 1 0.41113 0.835682 0.413654
93 1 0.848102 0.985669 0.17719
644 1 0.675239 0.913144 0.411847
167 1 0.930018 0.996348 0.420475
640 1 0.493756 0.905557 0.412705
485 1 0.173794 0.831134 0.0133591
674 1 0.0954259 0.745087 0.490598
650 1 0.0942556 0.592386 0.486681
653 1 0.169513 0.505729 0.493624
157 1 0.50871 0.998293 0.335409
451 1 0.754855 0.501045 0.088159
595 1 0.757075 0.50325 0.402584
698 1 0.0811837 0.915628 0.497472
649 1 0.011384 0.511334 0.493693
493 1 0.501381 0.829113 0.0115864
686 1 0.581119 0.743577 0.498438
652 1 0.0137051 0.578002 0.577301
307 1 0.746222 0.991491 0.754585
469 1 0.502385 0.652397 0.996509
811 1 0.755846 0.504081 0.913789
656 1 0.165053 0.602991 0.573587
726 1 0.2583 0.595412 0.652984
725 1 0.181355 0.507651 0.657847
309 1 0.821111 0.989154 0.668905
433 1 0.0016281 0.508665 0.980606
660 1 0.336481 0.580524 0.562055
441 1 0.333863 0.507346 0.996967
730 1 0.406001 0.583055 0.668799
490 1 0.424993 0.927629 0.998649
664 1 0.481347 0.583007 0.573503
668 1 0.655339 0.586033 0.581324
303 1 0.591662 0.992849 0.759327
694 1 0.92175 0.75014 0.507668
734 1 0.578748 0.58543 0.67654
757 1 0.49787 0.661777 0.664296
714 1 0.761066 0.90945 0.506313
672 1 0.842048 0.598291 0.587645
494 1 0.589059 0.917581 0.998928
470 1 0.576943 0.749486 0.989102
367 1 0.261459 0.999149 0.932898
670 1 0.934971 0.583949 0.508172
742 1 0.912243 0.575064 0.67392
299 1 0.416142 0.997074 0.745034
675 1 0.0826329 0.667225 0.570841
676 1 0.00409402 0.750423 0.586394
745 1 0.9987 0.655927 0.659471
671 1 0.901522 0.502944 0.595411
679 1 0.242409 0.673885 0.571134
680 1 0.160715 0.743412 0.573298
703 1 0.244392 0.836793 0.580685
749 1 0.172262 0.670828 0.66639
753 1 0.340752 0.669594 0.661018
683 1 0.413638 0.666392 0.573887
684 1 0.338913 0.751677 0.5758
754 1 0.421859 0.740752 0.661353
687 1 0.578934 0.65496 0.579281
688 1 0.496386 0.746088 0.580675
692 1 0.655601 0.753981 0.587165
850 1 0.413203 0.911252 0.832556
849 1 0.335008 0.830319 0.82498
691 1 0.755087 0.679603 0.591405
696 1 0.84739 0.752889 0.595516
761 1 0.672671 0.666719 0.661354
377 1 0.672112 0.982073 0.829178
693 1 0.848295 0.667494 0.503473
695 1 0.928796 0.669822 0.572353
719 1 0.926685 0.837756 0.575168
311 1 0.911312 0.977659 0.745368
473 1 0.645594 0.665002 0.986362
699 1 0.07835 0.828723 0.567661
700 1 0.00998601 0.918416 0.576729
704 1 0.173415 0.917702 0.568653
361 1 0.00164662 0.981105 0.846881
857 1 0.671244 0.812366 0.835239
465 1 0.321557 0.663562 0.994168
773 1 0.169354 0.831221 0.661144
774 1 0.25633 0.927035 0.664155
707 1 0.430503 0.837176 0.578657
708 1 0.326693 0.917376 0.576379
851 1 0.418294 0.830514 0.913304
777 1 0.339758 0.825238 0.651292
711 1 0.595865 0.845132 0.576177
712 1 0.501154 0.92251 0.583033
716 1 0.681269 0.910552 0.595108
782 1 0.589321 0.908457 0.669142
715 1 0.754409 0.811512 0.57164
720 1 0.842102 0.916522 0.580314
478 1 0.910605 0.745796 0.989411
462 1 0.257554 0.743424 0.995557
786 1 0.765335 0.887403 0.664241
667 1 0.739541 0.504872 0.576961
848 1 0.16995 0.925741 0.942569
21 1 0.831974 0.993312 0.997632
289 1 0.00276347 0.984682 0.661347
858 1 0.753861 0.916726 0.83656
722 1 0.0964874 0.583417 0.659712
794 1 0.0978471 0.568716 0.825854
860 1 0.6812 0.912217 0.927904
728 1 0.177745 0.583619 0.742552
751 1 0.266615 0.674579 0.740321
805 1 0.487728 0.505109 0.82141
856 1 0.498397 0.908451 0.921629
297 1 0.338092 0.996355 0.667417
852 1 0.339905 0.904584 0.921668
732 1 0.328526 0.589384 0.741043
736 1 0.484777 0.583734 0.750822
825 1 0.342808 0.673839 0.83847
815 1 0.914587 0.507733 0.901645
291 1 0.096815 0.989108 0.737407
740 1 0.670304 0.58883 0.73936
759 1 0.575692 0.661131 0.753335
438 1 0.251883 0.584169 0.997155
738 1 0.749355 0.583666 0.657546
810 1 0.752372 0.579192 0.826939
763 1 0.7514 0.674395 0.752188
765 1 0.856062 0.672184 0.66621
837 1 0.83558 0.673271 0.832599
724 1 0.00328113 0.588485 0.752641
744 1 0.820377 0.582598 0.748566
817 1 0.00656759 0.684056 0.827461
746 1 0.0864298 0.740381 0.666718
747 1 0.0945274 0.665358 0.748181
748 1 0.988733 0.773167 0.740095
769 1 0.00941598 0.828978 0.655936
771 1 0.0862305 0.827666 0.734669
818 1 0.100286 0.755035 0.822681
841 1 0.0106279 0.831864 0.844733
750 1 0.256644 0.750772 0.659947
752 1 0.174488 0.751144 0.734203
755 1 0.410411 0.659544 0.752153
756 1 0.330365 0.753174 0.736524
779 1 0.422313 0.82149 0.731705
760 1 0.499894 0.743972 0.745679
758 1 0.585982 0.736234 0.666975
764 1 0.662237 0.732877 0.74377
833 1 0.67258 0.652478 0.838458
762 1 0.747097 0.757619 0.663509
785 1 0.672601 0.830509 0.671282
787 1 0.742892 0.827522 0.753803
834 1 0.743661 0.744916 0.835825
766 1 0.93277 0.760943 0.659505
767 1 0.934078 0.673947 0.749391
768 1 0.828276 0.754511 0.743678
791 1 0.920633 0.848623 0.751341
838 1 0.907141 0.759228 0.835689
457 1 0.0194374 0.632129 0.987263
666 1 0.750859 0.606184 0.510446
770 1 0.0952743 0.913362 0.65504
772 1 0.013309 0.917182 0.747915
842 1 0.104875 0.910701 0.833373
776 1 0.175006 0.911038 0.760671
461 1 0.175568 0.657795 0.995878
775 1 0.253295 0.831014 0.739695
781 1 0.51481 0.821381 0.660599
778 1 0.421064 0.91113 0.667978
780 1 0.347902 0.901502 0.743482
784 1 0.505867 0.899238 0.753493
864 1 0.83288 0.912004 0.918031
783 1 0.57763 0.821414 0.752682
853 1 0.500334 0.82795 0.834222
854 1 0.576022 0.907725 0.832488
788 1 0.667598 0.903153 0.749655
741 1 0.818152 0.501491 0.662746
739 1 0.748607 0.504169 0.747932
789 1 0.855895 0.840516 0.673301
792 1 0.829066 0.914349 0.765527
862 1 0.922818 0.909039 0.848138
689 1 0.667014 0.671283 0.50756
474 1 0.742914 0.752584 0.980861
861 1 0.830194 0.838349 0.840856
790 1 0.91633 0.925226 0.65591
442 1 0.404197 0.598101 0.982569
796 1 0.996121 0.581465 0.882794
847 1 0.254121 0.837877 0.912983
231 1 0.585377 0.992425 0.588738
798 1 0.254643 0.587802 0.821745
673 1 0.00526727 0.669441 0.500667
800 1 0.180442 0.586546 0.90951
802 1 0.40023 0.590381 0.836787
804 1 0.318524 0.590827 0.912882
827 1 0.411812 0.684161 0.917319
434 1 0.108757 0.577764 0.997273
795 1 0.0925149 0.500299 0.916133
806 1 0.57457 0.566747 0.833359
808 1 0.505857 0.576888 0.919483
831 1 0.564503 0.666175 0.910551
803 1 0.4103 0.515046 0.9173
710 1 0.584842 0.920175 0.501547
735 1 0.598118 0.502705 0.747435
835 1 0.752546 0.655443 0.927168
812 1 0.667646 0.5725 0.915384
816 1 0.831643 0.579624 0.915474
454 1 0.910626 0.591803 0.987646
846 1 0.258972 0.909677 0.836598
814 1 0.910528 0.582947 0.817579
863 1 0.909779 0.827303 0.913939
819 1 0.0931652 0.656345 0.904571
820 1 0.0184265 0.743056 0.952819
843 1 0.0872881 0.833396 0.934083
502 1 0.9187 0.919632 0.983922
821 1 0.164607 0.669944 0.830148
822 1 0.248962 0.744036 0.82528
845 1 0.178275 0.825501 0.821351
823 1 0.255123 0.682846 0.90558
824 1 0.178189 0.757034 0.910862
826 1 0.434112 0.739718 0.825553
829 1 0.493788 0.649191 0.82903
828 1 0.330958 0.756668 0.919897
855 1 0.592585 0.829964 0.922496
830 1 0.582598 0.74239 0.822375
832 1 0.498803 0.762008 0.919039
481 1 0.994458 0.841926 0.999709
737 1 0.669848 0.501123 0.664984
859 1 0.751317 0.828232 0.902359
836 1 0.657044 0.73645 0.912255
458 1 0.112276 0.733014 0.993281
840 1 0.825787 0.751581 0.922139
839 1 0.918349 0.672995 0.911398
305 1 0.664193 0.986251 0.671013
681 1 0.316624 0.662555 0.502841
844 1 0.0126069 0.911323 0.919446
721 1 0.00583986 0.510639 0.674643
227 1 0.420451 0.993203 0.595618
