ITEM: TIMESTEP
6000
ITEM: NUMBER OF ATOMS
864
ITEM: BOX BOUNDS pp pp pp
0.0000000000000000e+00 3.1559999999999999e+01
0.0000000000000000e+00 3.1559999999999999e+01
0.0000000000000000e+00 3.1559999999999999e+01
ITEM: ATOMS id type xs ys zs
27 1 0.0670738 0.142251 0.0776145
8 1 0.151165 0.0807455 0.070233
146 1 0.057075 0.0816636 0.163873
173 1 0.160959 0.148774 0.16366
4 1 0.985998 0.0789418 0.0842938
145 1 0.981676 0.994754 0.163946
12 1 0.335967 0.0900486 0.0873711
31 1 0.230068 0.14242 0.0742301
7 1 0.233563 0.00325816 0.0762858
150 1 0.24259 0.0751223 0.175661
16 1 0.499296 0.0887852 0.07244
11 1 0.40675 0.994029 0.0879753
13 1 0.483402 1.00273 0.00555789
39 1 0.600456 0.17089 0.0798114
14 1 0.57675 0.0915503 0.987174
15 1 0.582936 1.00036 0.0837711
20 1 0.662641 0.0916483 0.0660061
18 1 0.734366 0.083422 0.9976
24 1 0.834876 0.0929402 0.0794943
19 1 0.752092 -0.00547187 0.0869046
17 1 0.661515 1.00392 -0.00547402
41 1 0.68272 0.17174 -0.023033
47 1 0.919933 0.168808 0.0853448
189 1 0.829506 0.165736 0.159938
166 1 0.913658 0.0818797 0.172942
28 1 -0.00437955 0.255934 0.0780695
169 1 -0.0151687 0.158928 0.166238
25 1 -0.0135637 0.159746 -0.00735645
26 1 0.0798905 0.234682 1.00206
29 1 0.167588 0.160171 0.976774
32 1 0.166197 0.225245 0.0787869
36 1 0.342788 0.246609 0.0602193
55 1 0.24789 0.34546 0.0775742
53 1 0.163396 0.322105 0.0120198
30 1 0.249096 0.240514 1.00173
33 1 0.327738 0.158723 1.00257
35 1 0.419898 0.161673 0.0737544
40 1 0.49156 0.253789 0.0752382
59 1 0.409862 0.338875 0.0940469
37 1 0.508757 0.167799 0.999636
34 1 0.413 0.253811 0.989445
61 1 0.497656 0.328137 0.980616
38 1 0.590217 0.255384 1.00805
43 1 0.757574 0.16629 0.0710909
44 1 0.675529 0.273578 0.0840795
67 1 0.761199 0.361273 0.0763879
42 1 0.74827 0.274046 0.996114
48 1 0.841162 0.262397 0.0789314
71 1 0.915628 0.343709 0.0845486
190 1 0.916575 0.241807 0.177744
213 1 0.849208 0.345062 0.175447
51 1 0.0744675 0.335489 0.0723408
194 1 0.0723764 0.41799 0.162612
50 1 0.0961253 0.414631 0.990054
75 1 0.0855441 0.518727 0.0845671
56 1 0.156292 0.432065 0.0826161
225 1 0.342707 0.498865 0.168139
57 1 0.32133 0.335112 -0.0076939
60 1 0.339161 0.416865 0.0811388
58 1 0.393726 0.423729 0.988277
202 1 0.409036 0.407705 0.168724
63 1 0.586349 0.338376 0.0667314
205 1 0.507704 0.333501 0.159527
64 1 0.495211 0.405674 0.0686197
206 1 0.58532 0.412574 0.159579
87 1 0.571837 0.503979 0.0744658
68 1 0.653596 0.417538 0.0675816
210 1 0.755763 0.425446 0.163215
65 1 0.661304 0.342261 0.987302
52 1 0.0114381 0.429973 0.0802346
72 1 0.844781 0.426912 0.0831362
214 1 0.925646 0.433515 0.160026
193 1 0.985849 0.337328 0.167812
218 1 0.0874841 0.58051 0.18186
80 1 0.170114 0.588783 0.0989394
76 1 0.0100751 0.591536 0.084108
217 1 0.0120723 0.510912 0.175514
221 1 0.174671 0.503445 0.170291
79 1 0.266649 0.502544 0.0900793
84 1 0.325592 0.591597 0.0822475
222 1 0.250536 0.585893 0.174422
245 1 0.169081 0.670802 0.188342
83 1 0.420031 0.493995 0.0922903
226 1 0.408055 0.582006 0.174767
107 1 0.404223 0.656523 0.0957246
229 1 0.518039 0.492067 0.165557
88 1 0.489272 0.572254 0.0895514
111 1 0.583169 0.67074 0.0996199
230 1 0.570926 0.593257 0.172191
92 1 0.661597 0.584568 0.0897744
89 1 0.663 0.518981 0.00476784
91 1 0.760024 0.508838 0.0748434
234 1 0.759054 0.570291 0.174556
257 1 0.663796 0.674821 0.169539
233 1 0.668806 0.496421 0.150127
95 1 0.931514 0.518973 0.0809791
96 1 0.832803 0.591457 0.0825678
238 1 0.909912 0.580605 0.165868
73 1 0.0208645 0.500364 0.993182
94 1 0.922558 0.590007 1.00703
99 1 0.0947047 0.659973 0.0989847
104 1 0.167962 0.746728 0.106212
100 1 0.985894 0.753384 0.0877749
125 1 0.159249 0.829182 0.0121168
123 1 0.0863934 0.837181 0.0993475
269 1 0.169507 0.84787 0.16531
242 1 0.0795228 0.755013 0.168929
103 1 0.260361 0.670888 0.100841
127 1 0.253054 0.827107 0.0809218
246 1 0.252671 0.770308 0.169067
249 1 0.333376 0.663641 0.182194
108 1 0.338828 0.748161 0.0855279
112 1 0.496257 0.764959 0.0954772
106 1 0.422556 0.752814 0.0124138
250 1 0.421407 0.754772 0.180768
254 1 0.581675 0.767277 0.165649
116 1 0.666878 0.755439 0.0943721
253 1 0.489059 0.668142 0.176463
110 1 0.583934 0.748814 0.0203077
115 1 0.759311 0.670153 0.0948557
120 1 0.846485 0.753576 0.0942687
258 1 0.747157 0.760018 0.173668
141 1 0.819078 0.827752 -0.00446384
114 1 0.752337 0.73892 1.00716
119 1 0.927571 0.661355 0.100132
143 1 0.91579 0.84101 0.0975484
261 1 0.84123 0.665626 0.177025
97 1 1.00226 0.667233 0.00332741
3 1 0.0591583 -0.00264075 0.0725827
149 1 0.149697 1.0109 0.17019
128 1 0.177624 0.916014 0.0750471
132 1 0.322762 0.912698 0.0794647
270 1 0.239013 0.929059 0.170206
131 1 0.398225 0.837675 0.0722373
136 1 0.496974 0.940533 0.0836406
130 1 0.395332 0.92641 0.998098
277 1 0.484219 0.849435 0.144369
135 1 0.589096 0.840462 0.0869845
278 1 0.57846 0.916778 0.175755
134 1 0.56904 0.920369 0.000135689
140 1 0.664351 0.912785 0.0931531
139 1 0.744721 0.833152 0.0845733
144 1 0.82255 0.901808 0.0758207
21 1 0.829213 0.00452737 0.00750496
23 1 0.910104 0.984314 0.0862817
124 1 1.00518 0.916167 0.0929289
142 1 0.897168 0.902215 0.00803186
265 1 -0.00519302 0.834861 0.16307
286 1 0.904041 0.921251 0.181696
147 1 0.0558837 0.996254 0.239315
152 1 0.16214 0.0941013 0.2545
148 1 0.99026 0.092137 0.251927
171 1 0.0705916 0.162478 0.239584
293 1 0.153379 0.00718113 0.334806
175 1 0.24739 0.181935 0.224831
156 1 0.334019 0.0864062 0.23655
177 1 0.333087 0.172995 0.155236
294 1 0.248687 0.0907659 0.337687
154 1 0.425707 0.0832501 0.160745
155 1 0.421588 0.00620397 0.258944
160 1 0.497326 0.0834005 0.248868
297 1 0.337785 -0.00289784 0.323074
158 1 0.59118 0.0845977 0.162568
181 1 0.49821 0.178467 0.15512
159 1 0.595211 0.00923423 0.249105
183 1 0.582458 0.186832 0.226875
157 1 0.512758 0.00943503 0.170217
185 1 0.675861 0.172925 0.16603
162 1 0.75177 0.0804885 0.151755
161 1 0.663806 -0.00154156 0.156901
164 1 0.655192 0.0979415 0.249235
187 1 0.758148 0.181874 0.248059
168 1 0.817405 0.0937821 0.258064
165 1 0.834228 1.01872 0.179251
170 1 0.0738768 0.247022 0.152713
172 1 0.99821 0.257864 0.248894
176 1 0.15658 0.236987 0.240089
321 1 0.330344 0.170454 0.332462
174 1 0.249371 0.241511 0.14327
178 1 0.409906 0.243556 0.1497
179 1 0.414957 0.165499 0.244896
180 1 0.32706 0.239727 0.251058
322 1 0.409872 0.248833 0.327756
184 1 0.484734 0.254568 0.232515
182 1 0.598473 0.263623 0.15409
209 1 0.676554 0.346424 0.168227
326 1 0.580313 0.257648 0.316575
186 1 0.772104 0.259334 0.159236
188 1 0.670587 0.254305 0.248395
313 1 -0.000124948 0.16768 0.322662
192 1 0.836689 0.252487 0.261761
191 1 0.90364 0.164458 0.248354
197 1 0.165449 0.317986 0.142037
341 1 0.161976 0.32916 0.325319
195 1 0.083543 0.322294 0.24484
200 1 0.158896 0.406478 0.238419
198 1 0.249435 0.420356 0.166435
199 1 0.247664 0.313157 0.240235
201 1 0.32794 0.330898 0.169641
345 1 0.326003 0.323988 0.325206
342 1 0.237603 0.405362 0.335637
204 1 0.323018 0.403035 0.252628
203 1 0.403955 0.325476 0.237908
346 1 0.408686 0.405941 0.327343
373 1 0.511254 0.488676 0.332783
208 1 0.509015 0.414877 0.239402
207 1 0.57368 0.33838 0.241499
349 1 0.506115 0.347862 0.316359
350 1 0.60625 0.419673 0.34277
212 1 0.680256 0.40995 0.253752
211 1 0.761146 0.352194 0.24831
357 1 0.827008 0.334838 0.338848
353 1 0.668252 0.328566 0.32766
237 1 0.839329 0.497843 0.160177
215 1 0.925449 0.332473 0.263022
196 1 0.996648 0.415826 0.246369
216 1 0.849782 0.423847 0.253206
219 1 0.0977987 0.4955 0.256317
224 1 0.161455 0.582821 0.25354
220 1 0.015186 0.583391 0.262389
223 1 0.244939 0.491125 0.260711
228 1 0.335842 0.568524 0.260319
227 1 0.424126 0.491175 0.240471
232 1 0.49274 0.573069 0.252932
231 1 0.597833 0.500308 0.24369
377 1 0.681903 0.500731 0.346071
255 1 0.595881 0.679349 0.25897
374 1 0.593739 0.577398 0.32841
236 1 0.669867 0.587311 0.255579
235 1 0.760245 0.484097 0.251231
240 1 0.824982 0.584278 0.245685
361 1 0.00538755 0.496416 0.33604
239 1 0.916853 0.507872 0.262024
382 1 0.923437 0.584531 0.344661
263 1 0.917054 0.653553 0.251014
243 1 0.086559 0.674794 0.257384
389 1 0.16548 0.679154 0.333086
409 1 0.995983 0.842489 0.337939
247 1 0.253006 0.679434 0.256313
248 1 0.155238 0.75773 0.246885
271 1 0.238853 0.850576 0.261272
413 1 0.164327 0.8526 0.348752
251 1 0.413366 0.66547 0.261702
252 1 0.33672 0.758528 0.248378
275 1 0.418364 0.854391 0.248134
421 1 0.50317 0.842802 0.327636
417 1 0.330127 0.843516 0.331584
256 1 0.50534 0.76315 0.253609
279 1 0.589591 0.833213 0.259961
401 1 0.672075 0.67247 0.336653
260 1 0.672117 0.760236 0.244921
259 1 0.731667 0.672826 0.252554
264 1 0.826743 0.744495 0.248178
402 1 0.745921 0.757863 0.341218
241 1 1.00066 0.659983 0.182404
385 1 0.0104582 0.667214 0.336496
262 1 0.927553 0.743792 0.185325
244 1 1.00962 0.749132 0.254625
406 1 0.905169 0.744795 0.316691
289 1 1.00689 -0.00406173 0.338117
267 1 0.0813283 0.844901 0.243887
266 1 0.0891972 0.922156 0.170969
410 1 0.07926 0.921935 0.337467
151 1 0.249743 0.000466239 0.257117
272 1 0.149662 0.935811 0.253835
414 1 0.254796 0.920971 0.343549
276 1 0.328891 0.921034 0.235846
153 1 0.324687 0.00150714 0.173056
273 1 0.336024 0.839429 0.161404
274 1 0.420796 0.934025 0.165478
418 1 0.415873 0.926856 0.333541
281 1 0.674955 0.83635 0.167769
280 1 0.503457 0.92232 0.265379
284 1 0.670092 0.908402 0.258476
163 1 0.738473 0.000766676 0.240338
283 1 0.744947 0.835076 0.261224
282 1 0.747664 0.914286 0.163827
429 1 0.834119 0.825306 0.325183
285 1 0.82378 0.839491 0.171417
287 1 0.904099 0.832419 0.239639
288 1 0.834782 0.914804 0.271487
167 1 0.916452 0.00577621 0.275764
268 1 0.990666 0.909252 0.247288
290 1 0.0821404 0.0862966 0.322103
315 1 0.0848876 0.169963 0.418923
317 1 0.165736 0.158554 0.335408
296 1 0.148501 0.067295 0.429895
461 1 0.167799 0.161715 0.494035
437 1 0.168062 0.00321355 0.507692
438 1 0.254987 0.0780249 0.505056
300 1 0.339881 0.0815485 0.425914
319 1 0.261457 0.178634 0.421427
295 1 0.259222 0.00647828 0.414627
298 1 0.407896 0.0864753 0.334135
442 1 0.422403 0.0830728 0.496417
304 1 0.506179 0.0915529 0.414043
302 1 0.586079 0.102902 0.324909
325 1 0.499703 0.159269 0.322942
327 1 0.580078 0.175367 0.412774
305 1 0.662427 1.00757 0.333826
308 1 0.663762 0.0794954 0.41732
306 1 0.729918 0.0990587 0.324423
331 1 0.75159 0.16156 0.41019
450 1 0.748794 0.0801722 0.504589
310 1 0.917052 0.0847777 0.352914
333 1 0.832768 0.17588 0.327554
292 1 1.00544 0.0925086 0.422395
312 1 0.827396 0.0797331 0.423853
477 1 0.834599 0.151 0.513677
314 1 0.0862494 0.246487 0.323185
316 1 0.00673806 0.252289 0.404043
458 1 0.0828296 0.243548 0.499958
457 1 0.987011 0.16895 0.501406
318 1 0.247868 0.250192 0.333707
320 1 0.181884 0.261911 0.411638
324 1 0.335353 0.258844 0.427658
462 1 0.255813 0.247894 0.507281
323 1 0.427343 0.170785 0.417253
347 1 0.412997 0.338713 0.40762
489 1 0.323991 0.341308 0.508778
465 1 0.343108 0.161317 0.499524
328 1 0.505676 0.259826 0.406672
329 1 0.657638 0.182175 0.336648
332 1 0.670533 0.246258 0.412818
351 1 0.573142 0.335052 0.400017
497 1 0.659991 0.341145 0.510674
330 1 0.749183 0.256096 0.327722
336 1 0.831512 0.243655 0.416221
337 1 0.00225884 0.340814 0.342592
334 1 0.911689 0.262475 0.346176
335 1 0.911853 0.170143 0.410729
338 1 0.0919057 0.412497 0.32285
339 1 0.0944076 0.335425 0.420443
482 1 0.0858926 0.409667 0.502633
340 1 1.00075 0.411005 0.415562
485 1 0.183346 0.341639 0.508138
344 1 0.172835 0.417481 0.418944
343 1 0.256509 0.338463 0.420645
486 1 0.265922 0.420721 0.490886
348 1 0.33649 0.415792 0.412136
352 1 0.498141 0.41975 0.417158
356 1 0.673986 0.429251 0.432427
493 1 0.503886 0.332067 0.503549
521 1 0.679726 0.50319 0.504233
517 1 0.492441 0.491627 0.503605
355 1 0.740303 0.342991 0.42275
354 1 0.74841 0.419657 0.348297
360 1 0.844271 0.419703 0.430576
379 1 0.753666 0.496632 0.424192
381 1 0.831754 0.502746 0.335351
358 1 0.920435 0.425546 0.337247
359 1 0.925758 0.323479 0.423694
362 1 0.0969948 0.583423 0.340637
363 1 0.0811664 0.494284 0.421446
505 1 -0.00549997 0.489317 0.493964
364 1 0.00363076 0.58961 0.418951
506 1 0.0904606 0.584505 0.495586
365 1 0.164336 0.493655 0.340203
369 1 0.336284 0.498097 0.33196
368 1 0.170318 0.596683 0.416975
367 1 0.251873 0.495887 0.409791
366 1 0.243794 0.577089 0.330071
513 1 0.336031 0.501739 0.484064
391 1 0.25396 0.677119 0.41741
393 1 0.320664 0.670532 0.336515
372 1 0.33524 0.58668 0.407791
371 1 0.41829 0.49336 0.42003
370 1 0.417828 0.57363 0.343911
395 1 0.407983 0.666095 0.408057
375 1 0.575609 0.512123 0.430968
397 1 0.507837 0.663327 0.346577
376 1 0.492266 0.579656 0.411771
380 1 0.677382 0.586625 0.435153
518 1 0.585352 0.592546 0.511157
378 1 0.754563 0.579684 0.338416
545 1 0.669009 0.676421 0.505401
522 1 0.761518 0.5783 0.520411
383 1 0.923039 0.498563 0.415344
384 1 0.839026 0.57723 0.412376
525 1 0.841211 0.500874 0.505686
529 1 0.00379126 0.674615 0.489526
526 1 0.936878 0.590923 0.502936
386 1 0.0801591 0.762032 0.330631
387 1 0.0905529 0.66568 0.414329
530 1 0.0894441 0.735462 0.499784
388 1 -0.00063919 0.753905 0.413967
390 1 0.252498 0.745621 0.335907
392 1 0.156721 0.753472 0.411455
415 1 0.245558 0.828136 0.413033
557 1 0.168992 0.82673 0.493967
396 1 0.338568 0.76013 0.402566
394 1 0.418923 0.75826 0.327248
400 1 0.490233 0.756186 0.400404
398 1 0.586856 0.753811 0.342177
399 1 0.595152 0.664366 0.420989
423 1 0.565269 0.833863 0.417971
403 1 0.763784 0.662841 0.423571
425 1 0.666475 0.827533 0.347664
404 1 0.658905 0.758012 0.44295
408 1 0.850521 0.757436 0.41107
427 1 0.765618 0.828459 0.41773
549 1 0.840465 0.649978 0.499834
546 1 0.758181 0.752869 0.501399
569 1 0.67651 0.850264 0.485085
405 1 0.835133 0.66388 0.339808
407 1 0.915327 0.661671 0.424671
553 1 -0.00792533 0.820878 0.507533
550 1 0.896373 0.755082 0.501076
411 1 0.0811094 0.834879 0.434038
291 1 0.0795323 0.980617 0.418584
412 1 -0.00578622 0.905577 0.414884
416 1 0.185859 0.921128 0.438182
420 1 0.332997 0.913294 0.414669
299 1 0.417839 0.00636439 0.407886
441 1 0.350596 -0.00417761 0.49036
419 1 0.427178 0.833886 0.420631
301 1 0.501257 0.0200542 0.330793
422 1 0.588898 0.915348 0.329441
303 1 0.578551 0.0167229 0.407009
424 1 0.506279 0.926702 0.397516
566 1 0.5775 0.913373 0.491577
307 1 0.740043 0.00566429 0.413523
426 1 0.749322 0.913217 0.350285
428 1 0.667232 0.928361 0.409468
453 1 0.839166 1.00658 0.499978
309 1 0.818453 0.0192661 0.329189
432 1 0.839098 0.914702 0.405379
311 1 0.917412 -0.00819095 0.403914
431 1 0.918999 0.836522 0.418808
430 1 0.919675 0.910803 0.335315
434 1 0.0813287 0.0857167 0.506247
435 1 0.074668 -0.0034522 0.567616
601 1 -0.0119834 0.160835 0.654741
440 1 0.161645 0.0689075 0.584512
459 1 0.0939508 0.158625 0.583388
605 1 0.165574 0.161234 0.669464
444 1 0.342778 0.0768135 0.59639
463 1 0.240928 0.155321 0.585373
439 1 0.255388 0.00120715 0.591639
443 1 0.430039 0.995 0.575849
448 1 0.504323 0.0875477 0.569814
467 1 0.419766 0.164605 0.577656
446 1 0.601142 0.0896629 0.502357
471 1 0.584644 0.176604 0.578207
447 1 0.5862 0.99003 0.579391
593 1 0.657703 0.994047 0.660895
452 1 0.673147 0.0762865 0.586732
449 1 0.670681 1.00232 0.491666
456 1 0.839363 0.0624137 0.58521
473 1 0.665419 0.17543 0.492757
597 1 0.818265 0.991926 0.664383
454 1 0.921953 0.0838461 0.505507
436 1 0.996016 0.0793658 0.579267
598 1 0.912615 0.0798412 0.669241
479 1 0.917338 0.151381 0.583996
577 1 1.00546 0.984468 0.671346
481 1 0.0038323 0.33081 0.496072
460 1 0.0057845 0.248553 0.597976
483 1 0.089405 0.326199 0.573915
602 1 0.0946346 0.243527 0.669189
464 1 0.170595 0.252042 0.592422
609 1 0.332937 0.16638 0.672053
629 1 0.168168 0.336769 0.667653
487 1 0.248136 0.314206 0.59239
466 1 0.425687 0.254154 0.49606
468 1 0.333377 0.232982 0.578805
491 1 0.416806 0.330747 0.591692
610 1 0.416153 0.2506 0.652749
472 1 0.502818 0.252183 0.587513
633 1 0.335137 0.32454 0.667988
637 1 0.499313 0.332649 0.671817
469 1 0.502682 0.171241 0.506715
470 1 0.579134 0.263334 0.49195
476 1 0.65674 0.250845 0.569009
495 1 0.572148 0.340941 0.584192
614 1 0.587586 0.253321 0.658039
474 1 0.745871 0.259795 0.496086
475 1 0.731792 0.160861 0.581053
480 1 0.836365 0.253894 0.574473
478 1 0.90983 0.247577 0.499302
503 1 0.932018 0.327659 0.585593
621 1 0.810391 0.159036 0.651697
625 1 0.00691463 0.329403 0.658342
484 1 0.00985051 0.408915 0.581141
649 1 0.0187712 0.501172 0.667842
488 1 0.174514 0.417806 0.5775
630 1 0.242785 0.418503 0.67058
492 1 0.336414 0.412684 0.582481
490 1 0.409698 0.409689 0.493965
496 1 0.490392 0.43045 0.585077
634 1 0.404599 0.404849 0.672205
494 1 0.591341 0.426301 0.503977
519 1 0.580536 0.505721 0.586136
500 1 0.68439 0.41137 0.580654
498 1 0.763506 0.420391 0.504016
499 1 0.756383 0.321495 0.580297
501 1 0.829393 0.329393 0.490311
645 1 0.84002 0.322906 0.65838
642 1 0.757656 0.421275 0.669075
504 1 0.83197 0.400519 0.585528
502 1 0.923599 0.409167 0.500805
646 1 0.91406 0.417282 0.683392
509 1 0.160757 0.500916 0.488603
507 1 0.0901487 0.508954 0.573923
533 1 0.17307 0.660786 0.497791
510 1 0.247652 0.573154 0.485514
653 1 0.164129 0.502854 0.660679
511 1 0.250785 0.505405 0.576601
512 1 0.165719 0.583343 0.570153
654 1 0.248796 0.593736 0.663051
515 1 0.398035 0.501557 0.570924
516 1 0.332401 0.584369 0.584234
514 1 0.412571 0.579991 0.501614
539 1 0.421153 0.671844 0.584527
537 1 0.330764 0.668234 0.491748
520 1 0.494219 0.589613 0.573773
543 1 0.573778 0.671521 0.584448
689 1 0.671301 0.665886 0.671775
541 1 0.503776 0.662414 0.497029
523 1 0.765878 0.497484 0.587263
524 1 0.665307 0.56762 0.60885
666 1 0.761647 0.58643 0.664152
527 1 0.941776 0.502549 0.588377
508 1 0.0083019 0.610748 0.579547
528 1 0.837933 0.578781 0.593903
693 1 0.83075 0.674307 0.670068
673 1 -6.7346e-05 0.668849 0.679974
531 1 0.0975241 0.667816 0.589389
532 1 -0.00435296 0.74547 0.591572
536 1 0.164679 0.744822 0.57847
674 1 0.100376 0.751949 0.65832
535 1 0.247383 0.677291 0.578931
534 1 0.254111 0.753568 0.503711
678 1 0.255905 0.75506 0.663562
538 1 0.421013 0.75167 0.489491
540 1 0.330532 0.757604 0.580433
544 1 0.501093 0.762603 0.585523
542 1 0.570773 0.751147 0.505029
565 1 0.508945 0.841014 0.507186
567 1 0.599889 0.854469 0.575996
548 1 0.650599 0.74418 0.584686
547 1 0.728809 0.656468 0.585604
573 1 0.831265 0.841031 0.507229
552 1 0.839691 0.757533 0.590877
571 1 0.743129 0.822462 0.583394
717 1 0.83597 0.829822 0.666242
713 1 0.666427 0.829921 0.655674
551 1 0.911022 0.680719 0.578116
575 1 0.911585 0.833144 0.583015
697 1 0.0245848 0.828865 0.66472
433 1 0.991705 0.9972 0.489061
555 1 0.0873604 0.84331 0.582101
554 1 0.0799442 0.910682 0.499228
556 1 -0.00738466 0.91511 0.576733
698 1 0.0846246 0.929234 0.648314
558 1 0.269816 0.937234 0.49729
559 1 0.25258 0.850647 0.56194
560 1 0.168704 0.926063 0.577009
564 1 0.339181 0.925091 0.584983
561 1 0.337718 0.837449 0.494104
562 1 0.432291 0.926233 0.484236
563 1 0.418001 0.839963 0.569038
568 1 0.504836 0.91578 0.593294
445 1 0.513887 0.00178543 0.496124
572 1 0.675415 0.922594 0.578348
451 1 0.747221 0.99616 0.579892
570 1 0.759653 0.922593 0.478027
576 1 0.818732 0.908695 0.589597
574 1 0.903458 0.919892 0.494672
455 1 0.921479 0.989006 0.593493
718 1 0.937055 0.896227 0.664573
578 1 0.0888829 0.0571904 0.675681
584 1 0.172142 0.0722722 0.748617
722 1 0.0766193 0.0780343 0.829419
579 1 0.0901614 0.987926 0.755159
581 1 0.178309 0.997813 0.674783
582 1 0.255365 0.0843687 0.66259
726 1 0.242485 0.0764489 0.844588
607 1 0.239381 0.162817 0.749173
586 1 0.423451 0.082381 0.672179
613 1 0.493388 0.157025 0.670288
587 1 0.407855 0.975347 0.742833
588 1 0.311763 0.0736456 0.746789
592 1 0.513218 0.0791613 0.742167
590 1 0.585879 0.0841399 0.665712
615 1 0.593352 0.157462 0.753305
594 1 0.748289 0.0792312 0.66861
596 1 0.667432 0.0532575 0.758175
595 1 0.763352 0.99568 0.748948
600 1 0.849302 0.0876938 0.75229
619 1 0.725078 0.15802 0.750436
580 1 -0.00249695 0.0746551 0.739405
721 1 1.01283 0.997586 0.823686
599 1 0.900631 0.989409 0.74386
742 1 0.917569 0.0715285 0.839125
603 1 0.07699 0.147556 0.732041
608 1 0.162394 0.236114 0.750423
627 1 0.0858339 0.324627 0.742
606 1 0.24538 0.252579 0.689071
612 1 0.336494 0.231405 0.759016
611 1 0.408364 0.149556 0.747985
616 1 0.499709 0.259707 0.751632
641 1 0.665998 0.335701 0.652622
620 1 0.666397 0.256331 0.753277
639 1 0.580439 0.335742 0.753287
617 1 0.658605 0.170177 0.656927
618 1 0.744563 0.252647 0.66485
762 1 0.740622 0.245179 0.830425
622 1 0.913386 0.247118 0.658584
623 1 0.913295 0.171001 0.745244
604 1 1.00188 0.245358 0.735266
624 1 0.834655 0.254547 0.749056
626 1 0.0992085 0.414933 0.662887
770 1 0.0876004 0.410882 0.835576
628 1 0.0236337 0.411494 0.7423
651 1 0.0977714 0.504936 0.735286
797 1 0.16956 0.508008 0.836824
793 1 0.0111887 0.513752 0.819822
631 1 0.244262 0.342042 0.749866
632 1 0.165747 0.414165 0.745315
636 1 0.334037 0.406952 0.747893
661 1 0.506987 0.495452 0.674694
635 1 0.418083 0.329287 0.757327
659 1 0.418616 0.502184 0.735127
805 1 0.510819 0.505358 0.846937
638 1 0.58714 0.415984 0.657442
785 1 0.684556 0.342655 0.843844
640 1 0.493078 0.414675 0.749594
663 1 0.583197 0.491392 0.74689
809 1 0.67097 0.507091 0.831043
643 1 0.756265 0.334907 0.760507
644 1 0.659181 0.407768 0.745895
667 1 0.747939 0.506001 0.73671
786 1 0.750634 0.421632 0.813555
647 1 0.913768 0.335173 0.748428
648 1 0.838874 0.414923 0.75258
671 1 0.924309 0.509205 0.73857
790 1 0.93248 0.422022 0.815828
813 1 0.828885 0.507736 0.813862
650 1 0.0944055 0.587795 0.66101
656 1 0.161869 0.596016 0.768429
652 1 -0.00230861 0.587649 0.748128
817 1 0.000607584 0.663392 0.828664
794 1 0.0853091 0.593796 0.83695
655 1 0.250747 0.497684 0.74233
677 1 0.176285 0.67719 0.672693
798 1 0.257922 0.592251 0.831189
825 1 0.348045 0.663701 0.838223
657 1 0.326706 0.494214 0.661699
660 1 0.34037 0.582659 0.739309
658 1 0.417442 0.564666 0.65886
802 1 0.433755 0.581169 0.838019
665 1 0.670711 0.480086 0.667782
664 1 0.495383 0.590357 0.748847
662 1 0.576881 0.570284 0.672016
806 1 0.585313 0.589488 0.819451
685 1 0.500896 0.660639 0.665103
668 1 0.671496 0.590221 0.74809
691 1 0.74418 0.683681 0.753451
810 1 0.772724 0.601202 0.826096
669 1 0.835816 0.49806 0.677188
672 1 0.840966 0.592595 0.733286
670 1 0.930862 0.580236 0.666109
837 1 0.836026 0.678382 0.828575
814 1 0.918598 0.575467 0.829918
675 1 0.09099 0.67012 0.741582
818 1 0.0725836 0.738616 0.831811
680 1 0.169015 0.756763 0.749632
676 1 -0.0040739 0.761695 0.749893
699 1 0.0861307 0.847073 0.750428
681 1 0.333684 0.666671 0.654315
679 1 0.257779 0.675597 0.752656
684 1 0.348145 0.75016 0.743293
703 1 0.248921 0.831672 0.744226
845 1 0.168663 0.827924 0.840559
683 1 0.419184 0.664749 0.731705
682 1 0.410283 0.753724 0.65676
826 1 0.425071 0.729023 0.828106
829 1 0.517521 0.668844 0.825327
688 1 0.497382 0.749996 0.737478
686 1 0.582761 0.752687 0.663099
687 1 0.583914 0.660829 0.737403
711 1 0.579626 0.818954 0.749845
692 1 0.658772 0.748455 0.731157
690 1 0.752308 0.741548 0.654352
834 1 0.747286 0.752034 0.842011
696 1 0.838332 0.752293 0.752852
715 1 0.749847 0.821999 0.750444
833 1 0.675669 0.6675 0.839187
694 1 0.918867 0.747619 0.664922
695 1 0.922538 0.67766 0.752339
838 1 0.924048 0.739453 0.837718
841 1 0.00716198 0.821465 0.840881
701 1 0.172381 0.826554 0.657832
725 1 0.158927 0.982076 0.83612
842 1 0.092189 0.904783 0.836908
702 1 0.251786 0.913029 0.655242
583 1 0.245881 0.985879 0.763893
705 1 0.324257 0.831872 0.664466
585 1 0.334869 0.998204 0.671511
704 1 0.169723 0.908711 0.734849
846 1 0.262703 0.901753 0.835923
589 1 0.514332 -0.0161659 0.676352
706 1 0.405047 0.902133 0.661668
709 1 0.494034 0.836874 0.664077
708 1 0.329496 0.911677 0.751769
707 1 0.417463 0.83422 0.743704
712 1 0.499012 0.905611 0.757861
710 1 0.587757 0.911472 0.680701
591 1 0.595092 0.98147 0.769173
716 1 0.669076 0.898873 0.755027
714 1 0.748933 0.903178 0.671782
858 1 0.748111 0.902212 0.848431
720 1 0.83749 0.908282 0.734192
741 1 0.82244 0.994506 0.845275
719 1 0.914037 0.823066 0.75414
700 1 0.990908 0.907378 0.760125
861 1 0.841942 0.823895 0.839442
862 1 0.900974 0.904924 0.83717
2 1 0.0821326 0.0807339 0.990303
5 1 0.163872 0.989708 0.990243
745 1 0.989549 0.154915 0.823778
728 1 0.1524 0.0680715 0.912066
749 1 0.157907 0.144772 0.835915
753 1 0.330417 0.159383 0.838809
6 1 0.237918 0.0771705 0.990767
732 1 0.327066 0.0787808 0.906812
751 1 0.250618 0.169265 0.908348
9 1 0.320633 1.00445 1.01356
10 1 0.412477 0.0738499 -0.0119494
730 1 0.426147 0.0833703 0.833119
736 1 0.49796 0.0708162 0.92176
731 1 0.409435 1.0009 0.919203
757 1 0.484462 0.164973 0.814763
734 1 0.590979 0.0845257 0.852328
759 1 0.581098 0.170431 0.917794
735 1 0.580727 0.99633 0.904182
740 1 0.676145 0.0800205 0.912022
761 1 0.673372 0.165094 0.843532
738 1 0.753452 0.0854795 0.839455
739 1 0.755967 0.994296 0.920864
744 1 0.836345 0.0852777 0.913503
22 1 0.915313 0.0837914 -0.00311624
724 1 0.999262 0.083662 0.919997
767 1 0.92444 0.160909 0.903891
743 1 0.907934 0.979541 0.925177
746 1 0.0742503 0.236501 0.823772
747 1 0.0808811 0.155477 0.910872
771 1 0.086917 0.328866 0.918795
769 1 0.00743256 0.335681 0.830437
748 1 -0.00703956 0.249502 0.919076
49 1 1.00508 0.343371 0.993026
750 1 0.24427 0.240441 0.827052
777 1 0.323346 0.315921 0.827155
752 1 0.152308 0.247138 0.911877
775 1 0.244332 0.326672 0.910245
754 1 0.411328 0.246983 0.838151
756 1 0.32503 0.245501 0.919762
755 1 0.424834 0.149437 0.92228
781 1 0.497894 0.332643 0.828814
760 1 0.504518 0.244363 0.914697
758 1 0.587986 0.230659 0.828931
783 1 0.576312 0.337304 0.922602
764 1 0.659033 0.258891 0.914618
45 1 0.84163 0.171967 1.00648
765 1 0.838463 0.155441 0.829287
763 1 0.758738 0.18317 0.912685
787 1 0.765257 0.370571 0.915313
46 1 0.90857 0.26742 1.00015
766 1 0.92277 0.260471 0.824848
789 1 0.837718 0.355753 0.838721
768 1 0.84412 0.256148 0.916712
791 1 0.920241 0.327717 0.915321
77 1 0.16223 0.506309 0.982749
795 1 0.0813743 0.497309 0.898571
772 1 -0.00222197 0.409874 0.913454
81 1 0.331027 0.506764 0.0126962
773 1 0.159293 0.33041 0.819564
776 1 0.168966 0.400441 0.916727
54 1 0.245697 0.426233 -0.00703206
774 1 0.243834 0.418849 0.830815
799 1 0.25163 0.504334 0.906355
779 1 0.41059 0.332009 0.914695
780 1 0.320519 0.408421 0.919305
778 1 0.4101 0.407651 0.82653
784 1 0.498056 0.409436 0.906698
801 1 0.327264 0.506727 0.820985
803 1 0.406475 0.501982 0.916217
62 1 0.565693 0.427092 0.996122
782 1 0.597275 0.424015 0.83988
788 1 0.668362 0.435419 0.920866
66 1 0.761726 0.441344 -0.00286532
69 1 0.8377 0.350419 0.985383
792 1 0.841808 0.451704 0.902511
93 1 0.843651 0.504857 1.00714
70 1 0.934396 0.426378 1.00554
74 1 0.0798901 0.603771 0.00518051
796 1 0.00456168 0.588259 0.918529
78 1 0.239215 0.572614 0.0146581
800 1 0.170916 0.598787 0.921301
823 1 0.245493 0.67331 0.920145
85 1 0.495026 0.511955 0.987876
82 1 0.414937 0.576213 1.01066
109 1 0.49119 0.667646 0.0124144
804 1 0.328489 0.577973 0.932333
827 1 0.416368 0.668757 0.924755
808 1 0.515317 0.595589 0.909269
807 1 0.598567 0.513826 0.913509
86 1 0.571119 0.601538 0.018619
812 1 0.669399 0.599085 0.93403
113 1 0.664515 0.664761 0.0237849
811 1 0.750274 0.51433 0.919152
90 1 0.749978 0.599598 0.00117851
835 1 0.763405 0.666272 0.916007
816 1 0.84229 0.569514 0.908647
815 1 0.932098 0.507796 0.934354
839 1 0.909659 0.653121 0.920538
98 1 0.0768077 0.74298 0.0336675
819 1 0.0838193 0.6773 0.924559
101 1 0.169742 0.665009 0.0128911
843 1 0.077149 0.834891 0.93191
824 1 0.155589 0.754625 0.93229
821 1 0.165089 0.671206 0.83494
102 1 0.23229 0.7474 0.0160456
822 1 0.258043 0.750879 0.831804
847 1 0.240473 0.810017 0.924843
105 1 0.325998 0.66649 0.010691
849 1 0.354362 0.833864 0.831719
828 1 0.334584 0.751305 0.916672
851 1 0.416952 0.821125 0.921992
832 1 0.500609 0.742129 0.901513
830 1 0.590691 0.74543 0.84262
831 1 0.574301 0.680545 0.945856
855 1 0.575988 0.826161 0.939257
836 1 0.664377 0.745573 0.922052
859 1 0.751552 0.822381 0.917285
117 1 0.845771 0.6689 0.0137547
121 1 0.991474 0.844394 0.012383
820 1 1.00032 0.743888 0.928852
840 1 0.834939 0.746282 0.925217
118 1 0.904831 0.759007 1.01095
122 1 0.0813233 0.905035 0.0119782
723 1 0.0727552 0.990547 0.912022
126 1 0.249676 0.917719 1.00013
727 1 0.245817 0.992038 0.910144
848 1 0.167083 0.904452 0.925459
729 1 0.334761 0.000741568 0.827997
850 1 0.421375 0.915004 0.847898
733 1 0.500648 0.983533 0.833673
129 1 0.322351 0.815097 -0.00546807
852 1 0.329899 0.90298 0.91899
133 1 0.479843 0.844455 -0.00247806
853 1 0.497242 0.817246 0.832883
137 1 0.679043 0.83824 0.999615
857 1 0.664762 0.824717 0.828898
856 1 0.494362 0.924946 0.925538
854 1 0.581642 0.900287 0.843462
138 1 0.747737 0.917689 1.00504
860 1 0.646388 0.904899 0.925161
737 1 0.677038 0.99669 0.852001
1 1 0.986087 0.976217 1.00146
844 1 1.00071 0.904251 0.920538
863 1 0.931595 0.829299 0.919589
864 1 0.824676 0.90887 0.919835
