ITEM: TIMESTEP
5500
ITEM: NUMBER OF ATOMS
864
ITEM: BOX BOUNDS pp pp pp
0.0000000000000000e+00 3.1559999999999999e+01
0.0000000000000000e+00 3.1559999999999999e+01
0.0000000000000000e+00 3.1559999999999999e+01
ITEM: ATOMS id type xs ys zs
8 1 0.162129 0.0767621 0.0684922
233 1 0.670347 0.0106027 0.499104
65 1 0.667261 0.336054 0.00966288
12 1 0.33168 0.0849223 0.0907613
161 1 0.676683 0.00664793 0.32242
31 1 0.250023 0.167814 0.0764909
269 1 0.160368 0.334853 0.487979
35 1 0.41035 0.167263 0.0764892
229 1 0.498424 0.00383075 0.490673
15 1 0.590792 0.0122303 0.091521
16 1 0.499158 0.101341 0.070658
86 1 0.580607 0.085389 0.156042
261 1 0.827902 0.174487 0.48759
237 1 0.824682 0.00473602 0.489043
20 1 0.671612 0.0972336 0.0835714
43 1 0.760899 0.174108 0.090196
90 1 0.74085 0.0936671 0.185712
113 1 0.666957 0.166129 0.162838
211 1 0.759458 0.325394 0.418564
215 1 0.9222 0.336908 0.422759
254 1 0.577444 0.256785 0.475838
4 1 0.991442 0.0863537 0.0817696
24 1 0.833454 0.0759504 0.0832941
47 1 0.915762 0.181146 0.0786522
23 1 0.930601 0.000597431 0.0924522
94 1 0.92084 0.104023 0.157335
117 1 0.838956 0.176818 0.162557
241 1 0.990834 0.160806 0.484419
27 1 0.0862422 0.156472 0.0863937
97 1 0.000133915 0.181886 0.172721
257 1 0.664129 0.173365 0.473733
591 1 0.591224 0.488927 0.417467
32 1 0.174435 0.253907 0.0762361
36 1 0.345227 0.250577 0.0727099
250 1 0.43018 0.251497 0.499201
105 1 0.339771 0.169939 0.163133
10 1 0.408173 0.0772781 0.00324475
129 1 0.344678 0.325508 0.163301
40 1 0.494976 0.238599 0.0768386
39 1 0.580492 0.172765 0.0811683
153 1 0.345171 0.0102151 0.329969
63 1 0.575581 0.330049 0.0688013
507 1 0.0742233 0.492142 0.240495
44 1 0.665419 0.25049 0.0721377
48 1 0.831147 0.254388 0.0867334
114 1 0.752155 0.266609 0.158538
137 1 0.667197 0.350182 0.173376
28 1 0.0043855 0.250223 0.0759227
163 1 0.744487 0.0127569 0.412966
118 1 0.916027 0.25081 0.181233
51 1 0.0882788 0.334404 0.0848057
122 1 0.0900918 0.420058 0.153684
125 1 0.160888 0.338478 0.164144
56 1 0.180949 0.401774 0.0811217
159 1 0.583103 0.00662884 0.419329
55 1 0.271224 0.334307 0.0790079
277 1 0.509769 0.329057 0.490247
73 1 0.00229166 0.0014219 0.185468
59 1 0.420073 0.324447 0.0687834
60 1 0.350486 0.40541 0.0878443
521 1 0.664585 0.494103 0.148441
64 1 0.495663 0.408602 0.0749674
134 1 0.580958 0.400299 0.160349
68 1 0.651049 0.417752 0.0727534
133 1 0.499555 0.320874 0.149568
67 1 0.744067 0.34315 0.083794
72 1 0.834398 0.419263 0.0796165
585 1 0.337153 0.499377 0.336753
61 1 0.497668 0.326609 0.000136485
439 1 0.275006 0.488351 0.0733831
71 1 0.917946 0.327649 0.0736158
149 1 0.161377 0.00178401 0.336661
52 1 0.00240751 0.415286 0.0873768
141 1 0.839207 0.332618 0.165192
517 1 0.500255 0.484207 0.167199
74 1 0.0836214 0.0893747 0.177693
513 1 0.345431 0.492954 0.160635
76 1 0.00710866 0.0929966 0.244013
146 1 0.091882 0.0756831 0.357016
145 1 0.996739 0.0116909 0.320334
78 1 0.248577 0.0989077 0.163971
80 1 0.165322 0.0793436 0.247459
3 1 0.0743655 0.0141839 0.0935817
82 1 0.413627 0.0873688 0.16599
84 1 0.314164 0.108196 0.245713
88 1 0.503751 0.0912661 0.24075
519 1 0.588758 0.489556 0.23731
579 1 0.0703346 0.495384 0.402162
111 1 0.573312 0.16649 0.245982
443 1 0.419146 0.489838 0.0711185
92 1 0.656854 0.110619 0.253161
115 1 0.759901 0.174906 0.255848
96 1 0.837816 0.09016 0.250114
189 1 0.840233 0.173038 0.322199
435 1 0.0911519 0.499219 0.0813728
166 1 0.915904 0.0840835 0.333401
95 1 0.908261 0.0201894 0.237388
22 1 0.913798 0.0712754 0.0024695
98 1 0.0986196 0.239719 0.161033
99 1 0.0917687 0.151487 0.269974
170 1 0.10072 0.268502 0.34013
101 1 0.168253 0.161324 0.171174
173 1 0.181355 0.158413 0.343407
103 1 0.236012 0.176978 0.250396
104 1 0.169761 0.260403 0.245573
102 1 0.257524 0.252167 0.151316
106 1 0.411371 0.241932 0.170219
107 1 0.417709 0.18102 0.252479
108 1 0.339549 0.25717 0.256372
131 1 0.420796 0.330639 0.25437
109 1 0.493787 0.171879 0.157163
112 1 0.503993 0.252479 0.257238
110 1 0.594146 0.269959 0.163228
135 1 0.585244 0.328096 0.257723
185 1 0.660747 0.166531 0.348202
116 1 0.653972 0.239758 0.259315
120 1 0.824775 0.256744 0.240773
139 1 0.744167 0.344916 0.241077
100 1 0.00194827 0.261174 0.25946
119 1 0.924605 0.165153 0.258258
143 1 0.913977 0.362651 0.246539
121 1 0.983247 0.331618 0.158046
123 1 0.0932818 0.334101 0.239095
194 1 0.0749118 0.405093 0.321264
127 1 0.256991 0.331849 0.234852
126 1 0.260654 0.416542 0.161482
128 1 0.180203 0.417627 0.237765
216 1 0.828757 0.406675 0.432278
258 1 0.742623 0.248269 0.49835
201 1 0.346007 0.329613 0.326614
130 1 0.43118 0.397521 0.175807
132 1 0.339861 0.404598 0.251529
595 1 0.749879 0.498867 0.405656
136 1 0.507109 0.426527 0.267282
140 1 0.678502 0.432529 0.240718
282 1 0.753801 0.406194 0.495004
138 1 0.759481 0.428105 0.159581
210 1 0.75562 0.421576 0.320411
209 1 0.675067 0.333245 0.321219
214 1 0.902872 0.425343 0.34396
50 1 0.0935157 0.414847 0.00333762
142 1 0.897344 0.436569 0.166187
124 1 0.0170891 0.40564 0.223823
144 1 0.826673 0.449571 0.246114
511 1 0.2676 0.485958 0.254413
169 1 0.00128914 0.187669 0.332451
148 1 0.995283 0.0928144 0.406897
152 1 0.188793 0.0842193 0.423265
150 1 0.261897 0.0657239 0.339385
156 1 0.345041 0.071002 0.427639
222 1 0.258251 0.0793208 0.494953
509 1 0.174099 0.487592 0.151548
19 1 0.74117 0.00319785 0.0824808
154 1 0.40328 0.0989178 0.323378
179 1 0.421699 0.169879 0.424324
447 1 0.562718 0.492401 0.0869231
89 1 0.676358 0.00527414 0.166771
181 1 0.498292 0.153478 0.331609
160 1 0.501984 0.0866516 0.421624
158 1 0.57654 0.0724816 0.338009
162 1 0.754445 0.0862707 0.32269
164 1 0.664392 0.0800269 0.407814
187 1 0.74853 0.164553 0.406716
168 1 0.838078 0.107543 0.408612
213 1 0.824358 0.339329 0.322187
70 1 0.921158 0.410803 0.00429409
191 1 0.922089 0.180554 0.406624
87 1 0.591587 0.00571529 0.252166
669 1 0.833429 0.496444 0.496645
193 1 0.991079 0.339553 0.340929
171 1 0.0774708 0.178368 0.399646
172 1 0.999508 0.267707 0.417502
589 1 0.508877 0.495009 0.340588
174 1 0.236291 0.26739 0.345151
175 1 0.255721 0.169896 0.426755
176 1 0.157089 0.243955 0.422796
7 1 0.253196 0.00645631 0.0781197
177 1 0.33314 0.173653 0.329596
178 1 0.420574 0.254667 0.341145
180 1 0.333919 0.252573 0.417663
203 1 0.415456 0.335028 0.434229
182 1 0.582913 0.246211 0.336109
183 1 0.578109 0.161262 0.417666
184 1 0.496877 0.251915 0.413137
234 1 0.751812 0.089815 0.493182
207 1 0.575002 0.336525 0.40015
218 1 0.0785933 0.0835999 0.484035
188 1 0.663229 0.254787 0.404124
186 1 0.759066 0.246497 0.331632
262 1 0.915949 0.251642 0.495838
77 1 0.168641 0.00765784 0.160239
238 1 0.920709 0.0815787 0.496504
192 1 0.831759 0.250272 0.408937
190 1 0.914844 0.257133 0.316632
200 1 0.17986 0.429824 0.430082
195 1 0.0773391 0.34588 0.41992
196 1 0.984866 0.42635 0.430335
197 1 0.165341 0.354367 0.344216
198 1 0.257253 0.411002 0.332013
199 1 0.254643 0.330622 0.421455
69 1 0.817156 0.330429 0.0117716
204 1 0.33509 0.415313 0.411168
202 1 0.415282 0.423868 0.332235
281 1 0.668321 0.332932 0.487807
25 1 0.995163 0.166743 0.00179774
208 1 0.49303 0.418569 0.421073
205 1 0.493632 0.340119 0.32794
206 1 0.590476 0.419069 0.336994
212 1 0.680568 0.407177 0.410915
581 1 0.178894 0.476718 0.334908
91 1 0.765916 0.00718923 0.251611
505 1 0.007885 0.499094 0.152147
278 1 0.590943 0.406087 0.488674
455 1 0.905179 0.498012 0.0878033
167 1 0.909746 0.00265537 0.411195
433 1 0.00719013 0.486049 0.00773302
577 1 0.992709 0.497323 0.337328
151 1 0.263562 0.00383173 0.414361
18 1 0.747401 0.0730747 0.000739391
270 1 0.272029 0.413224 0.498701
75 1 0.0876685 0.000120268 0.249934
661 1 0.510512 0.495815 0.499861
11 1 0.419673 0.00192231 0.0877085
527 1 0.932443 0.488105 0.247134
224 1 0.174693 0.080166 0.554264
243 1 0.0922079 0.148383 0.583438
317 1 0.155391 0.153197 0.671272
274 1 0.423494 0.419718 0.507286
247 1 0.240411 0.159794 0.588938
301 1 0.490497 0.0102655 0.659955
228 1 0.336064 0.0825608 0.575723
232 1 0.506138 0.0868544 0.58858
298 1 0.411369 0.0826706 0.665428
321 1 0.331662 0.163588 0.66103
265 1 0.996574 0.342646 0.510883
302 1 0.595896 0.101242 0.668467
255 1 0.586228 0.172952 0.564403
66 1 0.755562 0.422897 0.989728
236 1 0.664539 0.0828948 0.576114
259 1 0.757996 0.166693 0.578354
329 1 0.691023 0.157138 0.669766
240 1 0.84241 0.0838324 0.571065
306 1 0.755873 0.0659391 0.650196
333 1 0.838268 0.170638 0.665972
449 1 0.656081 0.487235 0.986757
62 1 0.5666 0.412744 0.994429
220 1 0.00112431 0.0799014 0.562427
263 1 0.902381 0.17367 0.581467
733 1 0.504518 0.487851 0.667462
725 1 0.173451 0.497489 0.668867
309 1 0.838289 0.00281561 0.672813
244 1 0.990587 0.239821 0.573096
248 1 0.173329 0.257752 0.580242
271 1 0.239458 0.350682 0.592043
251 1 0.420071 0.151347 0.575624
252 1 0.343216 0.248087 0.590626
325 1 0.5018 0.15598 0.666538
345 1 0.328098 0.333629 0.671503
256 1 0.501999 0.247748 0.580937
326 1 0.601358 0.232476 0.664728
349 1 0.496896 0.343445 0.661508
260 1 0.669019 0.242539 0.580111
283 1 0.75048 0.333045 0.578168
330 1 0.750818 0.248757 0.656154
264 1 0.834918 0.256003 0.589105
334 1 0.913817 0.251244 0.665453
287 1 0.914849 0.340208 0.599018
311 1 0.923413 0.00242466 0.747652
267 1 0.0832459 0.339033 0.573932
268 1 0.00255322 0.420016 0.599035
338 1 0.081408 0.42016 0.666969
285 1 0.850503 0.340405 0.508511
337 1 0.00248873 0.325697 0.653642
226 1 0.424453 0.087811 0.500786
272 1 0.167552 0.428502 0.5885
276 1 0.342189 0.422332 0.586901
230 1 0.585277 0.0820188 0.505559
53 1 0.159919 0.323677 0.998365
275 1 0.42483 0.327426 0.58131
2 1 0.0763135 0.0726256 0.993519
266 1 0.0763353 0.424419 0.508822
279 1 0.582442 0.314371 0.570876
280 1 0.517057 0.404931 0.574617
350 1 0.579971 0.411988 0.66741
357 1 0.840091 0.339543 0.670164
284 1 0.670734 0.408736 0.575322
354 1 0.742143 0.413518 0.658548
288 1 0.825309 0.42837 0.587426
14 1 0.584342 0.0752 0.998719
663 1 0.584174 0.491354 0.577245
441 1 0.334684 0.487429 0.992397
807 1 0.571583 0.476205 0.904986
290 1 0.0659232 0.0751227 0.647998
296 1 0.172112 0.0745016 0.74777
292 1 0.000292122 0.0755162 0.763318
58 1 0.414882 0.408096 0.986501
294 1 0.252719 0.0993987 0.680527
319 1 0.244288 0.172022 0.765664
366 1 0.265271 0.0725388 0.816511
6 1 0.249644 0.0947945 0.994248
300 1 0.340584 0.0769174 0.734209
370 1 0.420137 0.0919049 0.826432
803 1 0.415437 0.489767 0.918772
304 1 0.492669 0.0877823 0.742376
327 1 0.579324 0.152349 0.766295
246 1 0.255875 0.251726 0.504019
397 1 0.502154 0.16253 0.843658
308 1 0.666244 0.0655839 0.752558
331 1 0.755836 0.166191 0.758949
310 1 0.941928 0.0746007 0.668428
312 1 0.838198 0.0975668 0.749903
335 1 0.935154 0.16913 0.747519
382 1 0.919027 0.0767591 0.847316
315 1 0.0717778 0.153152 0.76264
314 1 0.079944 0.247078 0.666794
339 1 0.0868553 0.328103 0.759409
409 1 0.985589 0.335755 0.840361
318 1 0.231317 0.240883 0.669525
320 1 0.153944 0.243737 0.740227
343 1 0.232432 0.330653 0.735629
413 1 0.170333 0.331266 0.831329
390 1 0.256183 0.260614 0.833976
323 1 0.412569 0.158954 0.740289
324 1 0.334485 0.242701 0.746233
322 1 0.421744 0.234766 0.669725
347 1 0.416718 0.321786 0.737626
417 1 0.330495 0.338614 0.809685
328 1 0.509992 0.24716 0.741914
332 1 0.671818 0.246993 0.747033
425 1 0.661981 0.336791 0.831231
353 1 0.668719 0.328858 0.656465
336 1 0.835524 0.255813 0.73443
313 1 0.0136945 0.171164 0.649818
385 1 0.998339 0.157922 0.842833
316 1 0.999035 0.261616 0.735903
359 1 0.915557 0.347873 0.747977
406 1 0.918804 0.236896 0.828644
410 1 0.0756033 0.399671 0.839366
340 1 0.00213522 0.415737 0.75333
815 1 0.913194 0.497628 0.911702
341 1 0.158026 0.335937 0.657603
743 1 0.919151 0.498304 0.762562
445 1 0.48961 0.48714 0.987544
344 1 0.173697 0.424282 0.749877
342 1 0.240578 0.421351 0.668272
414 1 0.250011 0.41556 0.83436
348 1 0.335568 0.439456 0.752066
346 1 0.415165 0.415947 0.668397
57 1 0.328137 0.336111 0.989771
418 1 0.40855 0.425381 0.832236
352 1 0.50353 0.426514 0.749282
291 1 0.0849637 0.0154785 0.731356
351 1 0.582953 0.321895 0.738075
286 1 0.918111 0.426944 0.50829
355 1 0.744483 0.325517 0.738593
356 1 0.662947 0.40283 0.737879
429 1 0.824393 0.327096 0.82019
360 1 0.827808 0.417163 0.743978
358 1 0.911579 0.42774 0.669966
430 1 0.901155 0.412785 0.835282
809 1 0.666883 0.497897 0.822355
389 1 0.156962 0.157158 0.826373
362 1 0.0770515 0.0737072 0.832607
368 1 0.163936 0.075539 0.915419
364 1 0.998097 0.0905728 0.921304
387 1 0.0839596 0.165182 0.912595
273 1 0.334322 0.326289 0.504469
393 1 0.339632 0.152702 0.835691
372 1 0.341284 0.0733946 0.916711
391 1 0.244862 0.162768 0.903454
33 1 0.339949 0.158291 0.984767
395 1 0.423766 0.160392 0.920593
249 1 0.335088 0.176054 0.503804
376 1 0.492127 0.0681624 0.916151
374 1 0.579681 0.069261 0.832517
399 1 0.587765 0.150562 0.909557
381 1 0.850528 0.000117466 0.827315
383 1 0.922831 0.00616159 0.925622
380 1 0.676106 0.0848582 0.917896
378 1 0.762485 0.0836971 0.830275
401 1 0.671989 0.172485 0.831251
805 1 0.512547 0.494286 0.81837
373 1 0.484772 0.00739891 0.81821
384 1 0.832114 0.0732133 0.920576
386 1 0.0636501 0.237584 0.825649
388 1 0.989873 0.258383 0.917317
392 1 0.169396 0.243808 0.898622
411 1 0.092132 0.326233 0.919989
293 1 0.15982 0.0186982 0.64347
46 1 0.912869 0.254732 0.99415
29 1 0.165818 0.156289 0.988609
415 1 0.24145 0.326463 0.929523
394 1 0.423122 0.244701 0.814332
34 1 0.409679 0.253241 0.98887
396 1 0.332302 0.235669 0.907704
400 1 0.498192 0.2493 0.914876
219 1 0.0796275 0.00736697 0.558996
38 1 0.582424 0.243333 0.993098
398 1 0.579037 0.243814 0.826489
729 1 0.324054 0.499702 0.667266
405 1 0.839398 0.162615 0.825451
403 1 0.763916 0.160742 0.905314
42 1 0.75818 0.220757 0.995088
402 1 0.744463 0.246698 0.834223
404 1 0.669058 0.250686 0.91354
408 1 0.84393 0.24954 0.909481
407 1 0.906528 0.164487 0.916932
431 1 0.905391 0.335645 0.926608
671 1 0.931971 0.497101 0.588238
45 1 0.842858 0.156723 0.990215
412 1 0.997769 0.421658 0.922934
416 1 0.155637 0.415901 0.903141
799 1 0.252971 0.499242 0.921708
253 1 0.498394 0.170318 0.502521
379 1 0.75077 0.00871782 0.912845
41 1 0.656593 0.163152 0.989935
420 1 0.327321 0.407908 0.908431
421 1 0.508652 0.325995 0.822988
419 1 0.416233 0.32737 0.892176
54 1 0.236624 0.414289 0.990338
422 1 0.579563 0.399769 0.817174
423 1 0.574206 0.319912 0.90498
30 1 0.231277 0.237335 0.987965
424 1 0.495854 0.410934 0.898227
723 1 0.0910401 0.497794 0.759845
428 1 0.65664 0.405169 0.918083
26 1 0.0747865 0.240781 0.979076
426 1 0.741343 0.41556 0.817611
427 1 0.7494 0.34737 0.914764
432 1 0.837803 0.414933 0.916199
245 1 0.165084 0.181794 0.50544
242 1 0.082347 0.255214 0.510317
49 1 0.00587852 0.338325 0.991931
811 1 0.738943 0.499842 0.905628
307 1 0.748443 0.00393588 0.752365
665 1 0.676618 0.489685 0.505457
37 1 0.501649 0.167678 0.991479
369 1 0.337812 0.00219236 0.823507
223 1 0.245076 0.00131194 0.575559
797 1 0.177909 0.491775 0.832537
299 1 0.415944 0.00189778 0.739733
667 1 0.750545 0.499512 0.598747
459 1 0.0925865 0.65762 0.0915016
506 1 0.0938223 0.580912 0.171332
529 1 0.996996 0.667771 0.166123
440 1 0.175213 0.58359 0.0844432
444 1 0.343318 0.570629 0.0902604
533 1 0.168694 0.663916 0.178737
599 1 0.910062 0.503433 0.420667
448 1 0.494242 0.570113 0.0718804
467 1 0.425419 0.65148 0.0725783
541 1 0.502233 0.6686 0.157462
514 1 0.433815 0.583978 0.167499
85 1 0.522024 0.986353 0.169803
545 1 0.661756 0.653928 0.148511
481 1 0.00186287 0.829305 0.0045802
452 1 0.667351 0.581689 0.0731122
456 1 0.826945 0.601627 0.0733104
522 1 0.754109 0.600322 0.159256
475 1 0.746494 0.673582 0.0753919
549 1 0.844632 0.668629 0.167991
436 1 0.00297692 0.577698 0.0737642
526 1 0.93102 0.582984 0.164827
81 1 0.315298 0.984666 0.169916
483 1 0.0877234 0.833474 0.0745285
530 1 0.0914578 0.757486 0.161805
557 1 0.175777 0.827159 0.176978
434 1 0.0850133 0.576362 0.0140271
464 1 0.178569 0.743093 0.0928822
463 1 0.264387 0.645077 0.105477
534 1 0.264168 0.739169 0.168924
468 1 0.344498 0.725216 0.0853597
537 1 0.356879 0.645728 0.163249
538 1 0.425604 0.736109 0.179188
670 1 0.916635 0.588593 0.498482
593 1 0.664417 0.50206 0.327378
451 1 0.750883 0.5171 0.0782458
471 1 0.577584 0.676684 0.0755955
472 1 0.491756 0.759982 0.0861355
476 1 0.667361 0.742087 0.0802486
565 1 0.489001 0.819469 0.183454
147 1 0.0782709 0.986992 0.424475
690 1 0.768912 0.737223 0.475923
479 1 0.931531 0.661661 0.0682682
480 1 0.846764 0.732934 0.0747683
460 1 0.0128063 0.746984 0.0870081
648 1 0.834568 0.914874 0.410198
503 1 0.928926 0.841931 0.0832539
717 1 0.836552 0.838057 0.496559
554 1 0.0908605 0.916392 0.170241
489 1 0.33339 0.835744 0.00214286
701 1 0.188271 0.841006 0.497365
437 1 0.170727 0.502949 0.00641639
487 1 0.253895 0.829255 0.0935634
488 1 0.164938 0.916222 0.0901838
492 1 0.35151 0.914853 0.0870413
491 1 0.402508 0.823326 0.0908236
562 1 0.424635 0.921733 0.177137
496 1 0.492541 0.905362 0.0966741
673 1 0.0103258 0.687201 0.487485
462 1 0.248735 0.723937 0.0105746
495 1 0.591616 0.828168 0.0787792
500 1 0.667146 0.910357 0.0777962
458 1 0.0979425 0.730311 0.0144038
698 1 0.0981867 0.899212 0.498134
499 1 0.748092 0.822976 0.0594695
573 1 0.848926 0.830281 0.176203
504 1 0.829471 0.90473 0.0878691
83 1 0.414433 0.99759 0.242551
484 1 0.0151506 0.921527 0.0806039
502 1 0.919588 0.919715 0.00622718
494 1 0.580199 0.907582 0.00948904
693 1 0.858311 0.679327 0.493086
578 1 0.0753459 0.579092 0.323281
531 1 0.0895917 0.672866 0.245583
605 1 0.163526 0.671357 0.341469
510 1 0.253694 0.553851 0.16638
512 1 0.172066 0.564944 0.23879
535 1 0.249554 0.655401 0.247741
582 1 0.250903 0.578329 0.337032
609 1 0.331581 0.648198 0.34308
645 1 0.827963 0.834032 0.311605
516 1 0.329502 0.572017 0.257714
520 1 0.509089 0.580151 0.251118
518 1 0.588601 0.575545 0.141549
543 1 0.572774 0.66213 0.239823
590 1 0.59036 0.581372 0.342115
225 1 0.352194 0.994777 0.499903
597 1 0.835558 0.514577 0.346343
524 1 0.651185 0.596067 0.239779
528 1 0.847011 0.573168 0.260791
594 1 0.749563 0.589926 0.325345
508 1 0.0139094 0.594071 0.245648
551 1 0.917645 0.662781 0.240304
598 1 0.937783 0.58462 0.335401
532 1 0.997299 0.752114 0.257342
602 1 0.0760949 0.753177 0.33428
555 1 0.0767098 0.833384 0.251244
625 1 0.980298 0.830068 0.341711
536 1 0.16543 0.748938 0.25558
606 1 0.250855 0.732236 0.345192
559 1 0.253158 0.806764 0.26203
633 1 0.335553 0.847899 0.337482
539 1 0.420752 0.654334 0.267806
540 1 0.344015 0.732219 0.267255
610 1 0.414233 0.768568 0.347396
563 1 0.419624 0.843254 0.263553
542 1 0.580171 0.751564 0.158282
569 1 0.66095 0.821891 0.163716
544 1 0.489953 0.745891 0.272108
548 1 0.660403 0.732556 0.228727
567 1 0.585529 0.844475 0.237736
546 1 0.749444 0.758779 0.154739
547 1 0.749829 0.662784 0.2388
618 1 0.748056 0.755721 0.326076
552 1 0.832745 0.749001 0.242146
571 1 0.743687 0.833019 0.250193
550 1 0.922449 0.745334 0.155798
553 1 0.000773285 0.845038 0.162056
575 1 0.922631 0.825896 0.24967
643 1 0.755422 0.835936 0.406047
560 1 0.166629 0.909212 0.25384
556 1 0.995204 0.907451 0.263852
157 1 0.497475 0.997806 0.339282
558 1 0.247149 0.907606 0.163788
561 1 0.339171 0.825525 0.182898
564 1 0.323493 0.914137 0.25095
630 1 0.260477 0.921213 0.348812
710 1 0.590359 0.923615 0.498246
641 1 0.675165 0.837676 0.332986
566 1 0.607741 0.914381 0.16564
568 1 0.509783 0.92165 0.26162
572 1 0.682531 0.925681 0.24342
642 1 0.749998 0.919981 0.334446
570 1 0.744692 0.896633 0.156748
677 1 0.17069 0.667639 0.492091
165 1 0.826597 0.995439 0.328716
574 1 0.929115 0.921054 0.168397
646 1 0.900211 0.927061 0.31896
576 1 0.829729 0.914604 0.232454
603 1 0.0877773 0.666506 0.421834
686 1 0.582136 0.746791 0.496865
580 1 0.000271284 0.587226 0.425983
583 1 0.251772 0.516481 0.418895
584 1 0.164958 0.577614 0.414129
588 1 0.334346 0.580733 0.422556
466 1 0.405686 0.744807 0.00137716
650 1 0.0961518 0.58237 0.496791
586 1 0.422806 0.567322 0.337078
685 1 0.504225 0.656529 0.488794
611 1 0.414028 0.655227 0.4162
592 1 0.510402 0.569046 0.428244
644 1 0.675401 0.91932 0.417279
640 1 0.507684 0.915091 0.422739
617 1 0.672387 0.675311 0.322976
613 1 0.50301 0.656903 0.340646
615 1 0.597896 0.658153 0.412294
596 1 0.671814 0.570491 0.412623
718 1 0.907099 0.91651 0.496438
17 1 0.66948 0.986793 0.0067652
638 1 0.585596 0.922391 0.322766
621 1 0.832457 0.675969 0.316308
600 1 0.827971 0.587384 0.437784
619 1 0.761615 0.674846 0.392797
601 1 0.0131592 0.665795 0.338047
623 1 0.930791 0.666702 0.418678
523 1 0.748741 0.518189 0.239948
79 1 0.236274 0.996183 0.25272
629 1 0.161575 0.839488 0.32879
607 1 0.242757 0.65673 0.417413
608 1 0.173526 0.759636 0.415032
631 1 0.264511 0.830734 0.416682
637 1 0.5203 0.830488 0.334165
587 1 0.416409 0.500601 0.433816
612 1 0.327458 0.740845 0.416567
635 1 0.422664 0.849578 0.421226
616 1 0.493903 0.751249 0.421078
614 1 0.584294 0.739658 0.325294
639 1 0.596568 0.822327 0.431202
682 1 0.419481 0.746542 0.495232
9 1 0.337223 0.98877 6.72741e-05
486 1 0.255371 0.916764 0.000385853
620 1 0.683228 0.751447 0.411552
604 1 0.00783563 0.760545 0.421701
624 1 0.83571 0.76448 0.395084
622 1 0.914965 0.740856 0.332336
647 1 0.917069 0.833772 0.425233
628 1 0.984777 0.920376 0.398529
681 1 0.341818 0.663955 0.493954
626 1 0.092183 0.916765 0.325989
627 1 0.0922249 0.83458 0.413921
714 1 0.754386 0.912626 0.4943
515 1 0.41696 0.500309 0.247104
632 1 0.167012 0.914928 0.405021
5 1 0.181686 0.996026 0.00190808
636 1 0.348485 0.920989 0.423094
221 1 0.17799 0.990044 0.48489
705 1 0.339707 0.842707 0.491143
694 1 0.929457 0.760896 0.498271
634 1 0.414792 0.92835 0.336652
525 1 0.825906 0.52652 0.155639
461 1 0.171585 0.656387 0.00577112
155 1 0.426443 0.991349 0.419152
1 1 0.998955 0.999652 0.00430528
217 1 0.978785 0.996968 0.48744
689 1 0.688495 0.664056 0.494983
93 1 0.821719 0.994609 0.155307
713 1 0.691027 0.815156 0.498734
457 1 0.0120275 0.659656 0.00136787
649 1 0.995171 0.502823 0.498491
485 1 0.193183 0.816512 0.0110513
722 1 0.0935186 0.581615 0.66655
656 1 0.179617 0.58317 0.592733
297 1 0.350253 0.993107 0.639786
654 1 0.248175 0.583625 0.501592
666 1 0.751817 0.574341 0.51027
679 1 0.248022 0.676631 0.577742
801 1 0.322561 0.504827 0.832334
655 1 0.248103 0.501802 0.583297
660 1 0.320037 0.585848 0.584208
730 1 0.428326 0.591774 0.653008
664 1 0.506032 0.569127 0.582971
674 1 0.106537 0.747153 0.509873
469 1 0.503123 0.656753 0.993715
855 1 0.588831 0.841311 0.924361
702 1 0.259878 0.929849 0.501935
739 1 0.760341 0.507742 0.744539
668 1 0.668129 0.572906 0.579413
738 1 0.747939 0.595873 0.670495
672 1 0.840884 0.587843 0.584617
844 1 0.00349592 0.910961 0.923697
652 1 0.0031741 0.602844 0.555835
742 1 0.945912 0.584942 0.654822
303 1 0.585869 0.999578 0.740963
474 1 0.764263 0.750694 0.987724
13 1 0.504588 0.99781 0.990492
675 1 0.0936241 0.655311 0.577863
680 1 0.164063 0.755872 0.590271
676 1 0.0120693 0.756616 0.569595
745 1 0.999368 0.680303 0.651568
477 1 0.836917 0.66065 0.987105
703 1 0.246178 0.8382 0.576486
684 1 0.336852 0.751979 0.571703
658 1 0.42213 0.589576 0.510162
235 1 0.746033 0.98803 0.569989
683 1 0.422698 0.670242 0.576371
754 1 0.402556 0.752154 0.667654
777 1 0.310718 0.843734 0.680014
688 1 0.503474 0.749965 0.584205
687 1 0.596006 0.666776 0.573547
692 1 0.686044 0.742319 0.573009
691 1 0.749046 0.654772 0.584242
762 1 0.74245 0.735459 0.666927
696 1 0.842392 0.756991 0.569583
765 1 0.829745 0.670792 0.660382
21 1 0.828108 0.998484 0.997073
695 1 0.916877 0.673225 0.578687
375 1 0.592879 0.988638 0.922583
766 1 0.911055 0.752156 0.658994
497 1 0.662829 0.83118 0.98954
699 1 0.0868755 0.830685 0.588173
700 1 0.00632825 0.927242 0.576647
305 1 0.654765 0.995271 0.64864
239 1 0.918715 0.997634 0.582147
438 1 0.250432 0.576127 0.997074
704 1 0.165102 0.916058 0.57437
737 1 0.661378 0.500112 0.659504
289 1 0.00393125 0.979179 0.661726
707 1 0.414544 0.830323 0.587662
708 1 0.332357 0.908744 0.57877
712 1 0.507454 0.899349 0.584751
781 1 0.50687 0.828249 0.666099
377 1 0.678965 0.996168 0.834883
721 1 0.00599996 0.510037 0.675253
711 1 0.591228 0.828936 0.568802
716 1 0.67685 0.908051 0.564177
864 1 0.848286 0.921551 0.907014
715 1 0.764273 0.828094 0.576554
786 1 0.732631 0.920848 0.651146
478 1 0.916744 0.754671 0.997057
719 1 0.911887 0.842191 0.587521
720 1 0.835878 0.925893 0.585837
790 1 0.902048 0.915965 0.677634
657 1 0.332941 0.510826 0.501008
493 1 0.496895 0.825962 0.998714
724 1 0.0233413 0.583106 0.753919
794 1 0.103831 0.57902 0.833299
295 1 0.251482 0.998955 0.725402
749 1 0.16022 0.668147 0.683839
726 1 0.248335 0.599512 0.675815
728 1 0.154838 0.583414 0.747735
860 1 0.676515 0.922404 0.923935
732 1 0.338218 0.582864 0.733032
659 1 0.422605 0.506857 0.599309
734 1 0.581176 0.577657 0.662381
736 1 0.499016 0.578891 0.726517
793 1 0.0101429 0.505466 0.840264
653 1 0.164799 0.508711 0.506038
470 1 0.577628 0.751177 0.996212
761 1 0.664787 0.66749 0.657501
740 1 0.668409 0.585421 0.751485
744 1 0.843371 0.586885 0.75094
810 1 0.751177 0.574656 0.824886
814 1 0.924128 0.583075 0.828731
450 1 0.744369 0.57477 0.985359
856 1 0.489604 0.906787 0.904037
746 1 0.0853737 0.752824 0.669142
747 1 0.0745617 0.678771 0.748676
752 1 0.1573 0.748683 0.75855
748 1 0.997759 0.752075 0.741851
751 1 0.249054 0.680796 0.746292
750 1 0.252189 0.764047 0.66537
756 1 0.331313 0.76163 0.751594
753 1 0.334399 0.667968 0.667946
755 1 0.42073 0.657277 0.747888
757 1 0.504988 0.662942 0.666697
779 1 0.421153 0.84998 0.748602
826 1 0.411903 0.757023 0.829281
760 1 0.506166 0.743298 0.7378
759 1 0.578293 0.662612 0.745983
758 1 0.583407 0.756747 0.665606
764 1 0.674041 0.746238 0.760223
833 1 0.666323 0.655763 0.835438
857 1 0.667893 0.822921 0.843559
763 1 0.748366 0.667562 0.761056
834 1 0.754139 0.739277 0.835532
767 1 0.922592 0.667985 0.734432
768 1 0.829726 0.748336 0.757477
837 1 0.859723 0.664612 0.835684
817 1 0.000749646 0.66588 0.832022
838 1 0.937729 0.754856 0.828889
769 1 1.42687e-06 0.834594 0.669623
770 1 0.0843577 0.911612 0.653512
771 1 0.103503 0.845558 0.748171
842 1 0.0875005 0.930336 0.830496
651 1 0.0790553 0.504858 0.587229
773 1 0.176198 0.838703 0.675466
795 1 0.091268 0.503509 0.922143
774 1 0.253829 0.924497 0.660172
775 1 0.241269 0.824494 0.764393
776 1 0.167089 0.931682 0.739784
780 1 0.333263 0.927762 0.737266
778 1 0.431062 0.918009 0.663734
784 1 0.509828 0.917896 0.732854
706 1 0.425362 0.907084 0.511514
785 1 0.674248 0.824837 0.650282
782 1 0.584592 0.912028 0.652615
783 1 0.602278 0.845987 0.741952
788 1 0.666655 0.935244 0.736364
854 1 0.577862 0.932059 0.822131
501 1 0.8357 0.833796 0.992805
662 1 0.59282 0.579307 0.5015
787 1 0.741211 0.842869 0.751399
858 1 0.751148 0.917299 0.824832
231 1 0.575297 0.998562 0.576091
789 1 0.807657 0.838794 0.67022
772 1 0.0234717 0.923511 0.742969
792 1 0.825789 0.929938 0.751535
791 1 0.907486 0.822405 0.735543
862 1 0.921196 0.912855 0.81048
482 1 0.0986972 0.912956 0.982492
453 1 0.832511 0.504167 0.987377
859 1 0.755996 0.84612 0.915151
800 1 0.172762 0.581885 0.931683
851 1 0.421484 0.827363 0.919103
796 1 0.00562225 0.578725 0.924182
819 1 0.0856583 0.662633 0.916585
490 1 0.417387 0.9109 0.980348
821 1 0.178879 0.666593 0.8271
727 1 0.253535 0.508657 0.746608
798 1 0.245188 0.58495 0.832055
823 1 0.251802 0.665312 0.925556
741 1 0.845741 0.516926 0.660572
802 1 0.41499 0.565505 0.842422
465 1 0.345097 0.668385 0.985887
804 1 0.331477 0.577745 0.918351
808 1 0.510015 0.578372 0.903971
806 1 0.592735 0.581463 0.820491
473 1 0.661358 0.666079 0.996535
446 1 0.583132 0.581813 0.989483
498 1 0.755346 0.914866 0.997205
812 1 0.66299 0.571471 0.914732
816 1 0.829423 0.57822 0.908628
853 1 0.517733 0.816965 0.82064
697 1 0.00245007 0.847161 0.500361
839 1 0.924753 0.672373 0.932802
454 1 0.914965 0.57275 0.997118
818 1 0.0883404 0.741231 0.842253
820 1 0.0137908 0.753326 0.927805
822 1 0.244842 0.753254 0.840243
849 1 0.331484 0.83107 0.829896
825 1 0.32946 0.669172 0.840211
824 1 0.168377 0.738864 0.914446
847 1 0.261169 0.84152 0.916228
367 1 0.254963 0.999222 0.91761
827 1 0.417369 0.653998 0.895454
828 1 0.331979 0.749639 0.916349
832 1 0.489045 0.746437 0.912383
829 1 0.499937 0.664641 0.825332
831 1 0.574133 0.665552 0.915015
830 1 0.593351 0.736446 0.834825
836 1 0.679276 0.749903 0.921825
227 1 0.43305 0.996892 0.574102
861 1 0.836392 0.844619 0.835672
835 1 0.74578 0.650663 0.912849
841 1 0.0327223 0.831593 0.8271
863 1 0.925517 0.842913 0.909298
840 1 0.845356 0.757083 0.901107
850 1 0.419561 0.926838 0.829562
813 1 0.830705 0.50701 0.83692
361 1 0.994132 0.990181 0.839497
843 1 0.099948 0.826569 0.919211
735 1 0.585722 0.501738 0.744729
845 1 0.165461 0.840256 0.841455
846 1 0.254263 0.917958 0.823878
848 1 0.179659 0.920521 0.925949
852 1 0.330322 0.926172 0.904928
709 1 0.503552 0.829297 0.500798
363 1 0.0703796 0.998139 0.919964
442 1 0.413357 0.58089 0.996812
371 1 0.409407 0.994376 0.901472
731 1 0.425966 0.50578 0.751762
365 1 0.16843 0.989624 0.848577
678 1 0.244174 0.74863 0.50006
