ITEM: TIMESTEP
250
ITEM: NUMBER OF ATOMS
864
ITEM: BOX BOUNDS pp pp pp
0.0000000000000000e+00 3.1559999999999999e+01
0.0000000000000000e+00 3.1559999999999999e+01
0.0000000000000000e+00 3.1559999999999999e+01
ITEM: ATOMS id type xs ys zs
1 1 1.00516 1.00183 0.992519
2 1 0.0712386 0.0932199 0.00223122
3 1 0.0923918 0.0108755 0.0753474
4 1 0.989431 0.0880817 0.0753255
5 1 0.173352 0.0173275 1.00255
6 1 0.253919 0.090541 -0.00404011
7 1 0.246336 0.991618 0.0886954
8 1 0.176624 0.0864786 0.0841146
9 1 0.328242 1.00482 -0.00171986
10 1 0.412592 0.0837845 0.0179983
11 1 0.425548 0.992663 0.0792242
12 1 0.324438 0.0753737 0.082006
13 1 0.489829 -0.00488725 0.00282507
14 1 0.581555 0.0827276 0.0101518
15 1 0.597275 -0.00373157 0.0826811
16 1 0.495705 0.0767527 0.0855661
17 1 0.666964 -0.00431278 0.00073463
18 1 0.749554 0.103017 1.0026
19 1 0.75866 0.00674676 0.0957427
20 1 0.664947 0.085909 0.0814214
21 1 0.828976 0.00542422 0.00076498
22 1 0.917801 0.0906177 0.00249241
23 1 0.916267 1.00776 0.0805039
24 1 0.834031 0.0886722 0.0993916
25 1 0.984044 0.181295 0.00492063
26 1 0.0843728 0.261295 -0.000565175
27 1 0.0832604 0.183646 0.0854857
28 1 1.00158 0.264298 0.0928193
29 1 0.163652 0.159156 -0.000912837
30 1 0.257161 0.260369 0.995298
31 1 0.261553 0.173635 0.0713124
32 1 0.178879 0.243917 0.0722597
33 1 0.338681 0.175304 0.99263
34 1 0.420694 0.258937 1.00437
35 1 0.420597 0.174676 0.0780405
36 1 0.338817 0.267039 0.0809583
37 1 0.516286 0.169616 0.00170588
38 1 0.590586 0.251898 -0.000637913
39 1 0.579526 0.165211 0.0926416
40 1 0.507694 0.265011 0.0830307
41 1 0.672447 0.170466 0.00995621
42 1 0.741643 0.24602 0.00415005
43 1 0.748516 0.173133 0.0884245
44 1 0.649445 0.240477 0.0979949
45 1 0.849784 0.165315 1.00634
46 1 0.906968 0.25966 0.00929884
47 1 0.917968 0.16921 0.10094
48 1 0.827202 0.245871 0.0936327
49 1 -0.00831957 0.334418 0.0094467
50 1 0.0855031 0.426598 0.00444257
51 1 0.0915918 0.337706 0.0875968
52 1 0.00165585 0.424466 0.0912135
53 1 0.170903 0.337987 -6.36025e-05
54 1 0.248214 0.424631 1.00665
55 1 0.24975 0.3337 0.087459
56 1 0.169821 0.421841 0.0765956
57 1 0.326628 0.345397 0.00613304
58 1 0.414598 0.410074 1.00671
59 1 0.420529 0.337864 0.0830299
60 1 0.346436 0.410879 0.0935946
61 1 0.504317 0.33015 0.993267
62 1 0.597087 0.417197 -0.000909707
63 1 0.598547 0.334645 0.0814226
64 1 0.491996 0.413897 0.0750802
65 1 0.683858 0.348362 0.988318
66 1 0.762321 0.422321 -0.0118818
67 1 0.750307 0.324347 0.0835944
68 1 0.676384 0.416662 0.0821387
69 1 0.825806 0.332331 0.00407781
70 1 0.9114 0.414446 0.0184891
71 1 0.893515 0.331761 0.0941163
72 1 0.826058 0.414905 0.0807699
73 1 -0.00751779 0.494364 0.00195667
74 1 0.0748335 0.571317 -0.00163975
75 1 0.0867489 0.501139 0.0922305
76 1 0.990775 0.581834 0.0742769
77 1 0.163574 0.51208 1.0107
78 1 0.261798 0.589162 0.998653
79 1 0.246147 0.503361 0.0789437
80 1 0.176009 0.590006 0.0875104
81 1 0.336425 0.495796 0.00624333
82 1 0.41355 0.592796 1.00567
83 1 0.4173 0.5064 0.0804484
84 1 0.328534 0.582171 0.0908827
85 1 0.496176 0.505151 0.0125952
86 1 0.58237 0.577146 0.994179
87 1 0.578174 0.49622 0.085878
88 1 0.506526 0.590303 0.0845409
89 1 0.666798 0.502688 0.986111
90 1 0.74741 0.586153 0.99761
91 1 0.744005 0.504174 0.0745539
92 1 0.659565 0.579349 0.0766215
93 1 0.829842 0.498558 0.994158
94 1 0.904479 0.59367 0.990767
95 1 0.913876 0.504552 0.0941401
96 1 0.825022 0.58125 0.0704307
97 1 -0.0146865 0.659689 1.00036
98 1 0.0724939 0.743656 0.995095
99 1 0.0865709 0.665707 0.0729283
100 1 0.996996 0.746524 0.0728707
101 1 0.157968 0.666839 0.992945
102 1 0.252011 0.757061 0.991244
103 1 0.265628 0.668889 0.0710616
104 1 0.16422 0.756323 0.0769081
105 1 0.334958 0.681017 0.99201
106 1 0.422934 0.744664 1.00672
107 1 0.404632 0.667103 0.0872552
108 1 0.338715 0.756693 0.089667
109 1 0.511624 0.659754 0.00259045
110 1 0.591963 0.742165 1.00088
111 1 0.590209 0.673846 0.0904637
112 1 0.493931 0.737873 0.0883599
113 1 0.67084 0.663465 0.995317
114 1 0.744229 0.741802 -0.000834699
115 1 0.744004 0.669532 0.0847596
116 1 0.672012 0.753884 0.0909197
117 1 0.816944 0.669617 0.000295596
118 1 0.900029 0.754192 0.993238
119 1 0.91496 0.6558 0.0776723
120 1 0.829338 0.73852 0.0831122
121 1 0.984342 0.834804 0.996877
122 1 0.0884359 0.921643 0.998919
123 1 0.0834329 0.823015 0.0668711
124 1 1.0057 0.917531 0.0724415
125 1 0.174161 0.833998 0.998542
126 1 0.259937 0.913309 1.00564
127 1 0.255274 0.8297 0.0717798
128 1 0.160886 0.921509 0.0734003
129 1 0.344047 0.838802 0.993342
130 1 0.427827 0.90491 1.01246
131 1 0.421971 0.841351 0.0939179
132 1 0.33404 0.9181 0.0789191
133 1 0.515852 0.824496 0.0155131
134 1 0.587629 0.905851 -0.00101321
135 1 0.59205 0.833088 0.0985601
136 1 0.509999 0.928658 0.0829449
137 1 0.678023 0.836886 0.00249439
138 1 0.754074 0.909366 1.00498
139 1 0.753601 0.833938 0.0894287
140 1 0.671041 0.920874 0.0863922
141 1 0.820767 0.826483 0.988422
142 1 0.900412 0.904985 -0.00322905
143 1 0.901313 0.833567 0.086711
144 1 0.831311 0.92329 0.083309
145 1 0.0155512 0.989282 0.152168
146 1 0.079917 0.0904237 0.149129
147 1 0.0891576 -0.00185297 0.256397
148 1 1.00986 0.0766389 0.241311
149 1 0.163178 -0.00293112 0.161309
150 1 0.246132 0.0768994 0.160857
151 1 0.255439 1.00774 0.248947
152 1 0.176961 0.0886063 0.240877
153 1 0.347941 0.995878 0.182075
154 1 0.420692 0.0774175 0.154797
155 1 0.422699 0.00962194 0.254588
156 1 0.339316 0.0842576 0.254016
157 1 0.506483 0.00102813 0.177829
158 1 0.593288 0.0796203 0.15683
159 1 0.581541 0.0111648 0.254299
160 1 0.505012 0.0837746 0.247033
161 1 0.674507 1.00494 0.166181
162 1 0.740369 0.0970164 0.167714
163 1 0.748292 0.00909904 0.24665
164 1 0.662741 0.0861893 0.252419
165 1 0.830331 0.00215002 0.174607
166 1 0.910971 0.079421 0.172812
167 1 0.919082 0.990893 0.241912
168 1 0.835343 0.0764046 0.259216
169 1 -0.001503 0.177576 0.177227
170 1 0.0907371 0.248705 0.177954
171 1 0.0900068 0.152097 0.243826
172 1 -0.0120397 0.246164 0.260173
173 1 0.16372 0.164019 0.161818
174 1 0.250221 0.236482 0.160949
175 1 0.271354 0.175186 0.245771
176 1 0.172022 0.236376 0.251903
177 1 0.336799 0.156259 0.160089
178 1 0.428054 0.253364 0.156853
179 1 0.414847 0.154809 0.244457
180 1 0.348728 0.248029 0.232132
181 1 0.491603 0.164633 0.165873
182 1 0.57514 0.261464 0.173614
183 1 0.580298 0.17371 0.233902
184 1 0.494785 0.234699 0.24851
185 1 0.666811 0.168502 0.177042
186 1 0.745038 0.242817 0.189776
187 1 0.750595 0.164835 0.259179
188 1 0.658771 0.245769 0.244559
189 1 0.827607 0.169559 0.174416
190 1 0.896432 0.262 0.17119
191 1 0.911613 0.174222 0.239445
192 1 0.827599 0.246565 0.265803
193 1 -0.00261501 0.335245 0.183175
194 1 0.0827029 0.421974 0.159482
195 1 0.0990513 0.322444 0.264525
196 1 0.997603 0.415475 0.25664
197 1 0.172611 0.339132 0.154244
198 1 0.24598 0.415624 0.162639
199 1 0.240936 0.3337 0.239849
200 1 0.157882 0.402718 0.255911
201 1 0.334437 0.327598 0.168676
202 1 0.416028 0.418771 0.162267
203 1 0.409462 0.341299 0.247726
204 1 0.328724 0.422763 0.247624
205 1 0.496753 0.342944 0.181026
206 1 0.589529 0.41762 0.163422
207 1 0.59614 0.343534 0.260571
208 1 0.514281 0.430874 0.240464
209 1 0.664861 0.333274 0.172663
210 1 0.74047 0.423166 0.168481
211 1 0.731303 0.320656 0.269463
212 1 0.669198 0.425721 0.248921
213 1 0.81788 0.331548 0.195228
214 1 0.916158 0.413674 0.166253
215 1 0.91055 0.339549 0.255609
216 1 0.83269 0.41406 0.263524
217 1 0.998215 0.498601 0.177843
218 1 0.0720779 0.585533 0.1682
219 1 0.0746503 0.489278 0.250227
220 1 1.00211 0.600383 0.248462
221 1 0.159083 0.497315 0.171223
222 1 0.249837 0.57365 0.16933
223 1 0.247734 0.497023 0.256324
224 1 0.165087 0.577479 0.242213
225 1 0.329284 0.497702 0.161609
226 1 0.408376 0.578942 0.163435
227 1 0.418812 0.488243 0.260887
228 1 0.329817 0.573078 0.245294
229 1 0.494265 0.510915 0.150457
230 1 0.591576 0.579056 0.164324
231 1 0.586414 0.505139 0.245087
232 1 0.496081 0.576846 0.243373
233 1 0.666056 0.500669 0.164112
234 1 0.742979 0.584805 0.157343
235 1 0.75352 0.493303 0.260424
236 1 0.670644 0.587275 0.24777
237 1 0.82136 0.505532 0.153567
238 1 0.92594 0.581957 0.175127
239 1 0.90443 0.500988 0.253169
240 1 0.832172 0.588311 0.252719
241 1 -0.000445564 0.667985 0.161885
242 1 0.077977 0.75622 0.149866
243 1 0.075475 0.682244 0.264756
244 1 0.999637 0.752634 0.23451
245 1 0.147931 0.666625 0.183812
246 1 0.244664 0.735666 0.154142
247 1 0.262387 0.657954 0.24827
248 1 0.174254 0.753642 0.241807
249 1 0.323209 0.659097 0.164791
250 1 0.423192 0.741665 0.172757
251 1 0.411621 0.658162 0.254502
252 1 0.339017 0.746941 0.255233
253 1 0.515268 0.663836 0.166512
254 1 0.584174 0.751654 0.181402
255 1 0.589467 0.660802 0.253366
256 1 0.494387 0.741071 0.260283
257 1 0.66724 0.677359 0.168746
258 1 0.744042 0.755434 0.17972
259 1 0.75159 0.662985 0.240943
260 1 0.678059 0.761748 0.261473
261 1 0.83065 0.653559 0.159902
262 1 0.914198 0.748281 0.150767
263 1 0.911658 0.683375 0.244252
264 1 0.822507 0.74599 0.246029
265 1 0.99871 0.832537 0.158851
266 1 0.0817537 0.902782 0.15731
267 1 0.0773369 0.831489 0.239808
268 1 -0.000213904 0.914607 0.241957
269 1 0.15872 0.835568 0.150588
270 1 0.255869 0.922092 0.167012
271 1 0.252273 0.835297 0.235608
272 1 0.160852 0.906903 0.237442
273 1 0.351368 0.829135 0.167972
274 1 0.428272 0.926093 0.166684
275 1 0.428954 0.8282 0.239898
276 1 0.344039 0.905854 0.247629
277 1 0.50615 0.851179 0.16153
278 1 0.597679 0.9218 0.169835
279 1 0.578526 0.83275 0.257265
280 1 0.503935 0.921488 0.25728
281 1 0.666739 0.836433 0.170425
282 1 0.754671 0.920662 0.164754
283 1 0.756267 0.832214 0.254199
284 1 0.675806 0.911856 0.249031
285 1 0.834276 0.841658 0.169626
286 1 0.918863 0.92744 0.15549
287 1 0.92062 0.830773 0.238008
288 1 0.83611 0.917082 0.238788
289 1 0.0022849 0.9836 0.330934
290 1 0.0806685 0.0955154 0.333718
291 1 0.0779479 0.991778 0.407582
292 1 0.00101218 0.0753949 0.40939
293 1 0.16819 1.00765 0.322283
294 1 0.256675 0.0760809 0.332467
295 1 0.240705 1.00671 0.422096
296 1 0.170286 0.0830902 0.41217
297 1 0.333254 0.994838 0.329589
298 1 0.405956 0.0741828 0.345192
299 1 0.417167 0.985945 0.409191
300 1 0.330746 0.0891595 0.418424
301 1 0.499432 0.993162 0.339578
302 1 0.574106 0.0858265 0.333114
303 1 0.581937 0.0109503 0.422091
304 1 0.488953 0.0778427 0.416472
305 1 0.676505 -0.00447204 0.319341
306 1 0.759689 0.0893851 0.33453
307 1 0.748998 1.00602 0.41217
308 1 0.670425 0.0740893 0.408477
309 1 0.84276 0.978773 0.332149
310 1 0.9255 0.0779681 0.33268
311 1 0.921008 0.993571 0.414825
312 1 0.838207 0.0723493 0.399811
313 1 0.997132 0.164913 0.330391
314 1 0.0832432 0.223116 0.32267
315 1 0.0781653 0.155734 0.42203
316 1 1.01724 0.242979 0.412001
317 1 0.174396 0.153497 0.330173
318 1 0.247648 0.251021 0.33587
319 1 0.247762 0.156603 0.415603
320 1 0.168759 0.243647 0.408766
321 1 0.3392 0.173584 0.329282
322 1 0.417133 0.247879 0.338334
323 1 0.418194 0.170107 0.41584
324 1 0.31623 0.259175 0.417662
325 1 0.505514 0.165852 0.331102
326 1 0.574408 0.248075 0.331432
327 1 0.581555 0.15973 0.412749
328 1 0.489034 0.256784 0.41949
329 1 0.657394 0.158642 0.340987
330 1 0.721476 0.244226 0.337326
331 1 0.756853 0.16074 0.423979
332 1 0.651899 0.24422 0.421112
333 1 0.839433 0.166097 0.338343
334 1 0.917648 0.260954 0.342227
335 1 0.921842 0.159425 0.408994
336 1 0.836304 0.243482 0.418036
337 1 0.0146935 0.321261 0.339044
338 1 0.0804177 0.416633 0.33284
339 1 0.0830854 0.335158 0.421386
340 1 0.00121612 0.412953 0.428346
341 1 0.167823 0.338824 0.348331
342 1 0.245451 0.421363 0.33396
343 1 0.243246 0.337568 0.416725
344 1 0.162394 0.42151 0.419212
345 1 0.316036 0.325535 0.319615
346 1 0.411346 0.404046 0.338417
347 1 0.40843 0.323619 0.42124
348 1 0.329178 0.404583 0.42182
349 1 0.500522 0.340822 0.33681
350 1 0.580268 0.424937 0.334805
351 1 0.581252 0.32952 0.42591
352 1 0.495685 0.406731 0.421009
353 1 0.657355 0.329322 0.350512
354 1 0.739815 0.409482 0.33755
355 1 0.743185 0.330415 0.416081
356 1 0.666931 0.414423 0.430667
357 1 0.82769 0.322678 0.337372
358 1 0.922863 0.40928 0.335259
359 1 0.925354 0.340839 0.423274
360 1 0.825421 0.415809 0.416366
361 1 -0.00316036 0.496881 0.338235
362 1 0.0831687 0.591516 0.328571
363 1 0.0808573 0.502235 0.414041
364 1 -0.00327732 0.595856 0.416994
365 1 0.156291 0.4956 0.333921
366 1 0.255979 0.570261 0.331933
367 1 0.247827 0.493327 0.413753
368 1 0.188408 0.576706 0.420319
369 1 0.340975 0.49859 0.33587
370 1 0.413913 0.581766 0.328069
371 1 0.417544 0.492189 0.424539
372 1 0.329436 0.589481 0.417892
373 1 0.504414 0.499885 0.337916
374 1 0.587391 0.577527 0.331788
375 1 0.586453 0.484405 0.43268
376 1 0.502481 0.561734 0.426348
377 1 0.662698 0.503827 0.331246
378 1 0.7397 0.580655 0.326984
379 1 0.73995 0.495666 0.412838
380 1 0.669727 0.573699 0.420846
381 1 0.82906 0.507878 0.331509
382 1 0.910339 0.586743 0.335225
383 1 0.921139 0.490581 0.41353
384 1 0.835513 0.584094 0.40698
385 1 0.982273 0.669523 0.338426
386 1 0.0958906 0.760047 0.346976
387 1 0.0987736 0.656013 0.417341
388 1 -0.00244862 0.745393 0.408051
389 1 0.161993 0.674539 0.332915
390 1 0.253013 0.743539 0.324427
391 1 0.254531 0.662808 0.396475
392 1 0.184253 0.747987 0.410568
393 1 0.343549 0.668157 0.331031
394 1 0.419724 0.747244 0.333879
395 1 0.417781 0.653358 0.418045
396 1 0.331783 0.753352 0.412009
397 1 0.498022 0.639016 0.33841
398 1 0.583484 0.748835 0.329557
399 1 0.574605 0.661422 0.411819
400 1 0.497922 0.742057 0.410893
401 1 0.667575 0.670897 0.325743
402 1 0.748423 0.757548 0.34181
403 1 0.736658 0.664457 0.408298
404 1 0.655462 0.75007 0.403948
405 1 0.819332 0.673122 0.330245
406 1 0.919505 0.768297 0.328882
407 1 0.911955 0.665048 0.416036
408 1 0.839275 0.756705 0.405362
409 1 0.012876 0.827356 0.337262
410 1 0.0920347 0.899916 0.331239
411 1 0.0968409 0.830373 0.421342
412 1 0.0129186 0.908146 0.414831
413 1 0.181874 0.836952 0.325307
414 1 0.247231 0.9344 0.344631
415 1 0.240169 0.841027 0.4129
416 1 0.160966 0.921497 0.421102
417 1 0.326563 0.828266 0.330074
418 1 0.421697 0.909627 0.325746
419 1 0.420842 0.834273 0.411893
420 1 0.330443 0.917567 0.413609
421 1 0.500232 0.827306 0.333314
422 1 0.589868 0.930759 0.318342
423 1 0.583277 0.828459 0.417634
424 1 0.512056 0.909723 0.413929
425 1 0.660657 0.843004 0.340669
426 1 0.748137 0.919574 0.336583
427 1 0.747674 0.833787 0.416778
428 1 0.657878 0.932756 0.413324
429 1 0.823778 0.837374 0.327774
430 1 0.917988 0.889847 0.336579
431 1 0.925189 0.829223 0.429562
432 1 0.830892 0.910655 0.407992
433 1 1.00389 0.999091 0.508855
434 1 0.0700569 0.0912012 0.503289
435 1 0.0845795 -0.0125722 0.588988
436 1 1.0061 0.0883973 0.592072
437 1 0.150526 1.01074 0.497228
438 1 0.245525 0.0715616 0.506278
439 1 0.254483 1.00259 0.584064
440 1 0.159376 0.0806495 0.588991
441 1 0.324138 1.00513 0.481802
442 1 0.4128 0.0799637 0.498139
443 1 0.416062 1.00599 0.591005
444 1 0.326864 0.0783043 0.577145
445 1 0.495053 -0.000250534 0.497121
446 1 0.586061 0.0860943 0.500956
447 1 0.59294 0.00815275 0.577608
448 1 0.50576 0.0807453 0.579122
449 1 0.67419 0.00261481 0.494398
450 1 0.758094 0.0806857 0.504469
451 1 0.752203 0.999916 0.577642
452 1 0.664997 0.0930698 0.57538
453 1 0.829398 1.00327 0.499151
454 1 0.935966 0.0865285 0.499762
455 1 0.898397 -0.00235095 0.579468
456 1 0.837803 0.0789813 0.571457
457 1 0.00133025 0.176471 0.508495
458 1 0.0940286 0.242255 0.494472
459 1 0.088299 0.164915 0.592712
460 1 -0.00139285 0.247754 0.599571
461 1 0.16989 0.15966 0.494688
462 1 0.250148 0.247228 0.512964
463 1 0.241282 0.159035 0.591054
464 1 0.159669 0.240061 0.580983
465 1 0.33225 0.161134 0.502712
466 1 0.415134 0.243139 0.512226
467 1 0.410365 0.154379 0.580164
468 1 0.333114 0.238446 0.58895
469 1 0.504297 0.154739 0.501849
470 1 0.589746 0.250654 0.51399
471 1 0.584009 0.161413 0.579002
472 1 0.504398 0.246384 0.595042
473 1 0.660265 0.160557 0.48947
474 1 0.744857 0.248038 0.495448
475 1 0.744709 0.166406 0.584033
476 1 0.674674 0.251615 0.577527
477 1 0.833671 0.171219 0.507073
478 1 0.920432 0.2439 0.490821
479 1 0.921067 0.159742 0.596187
480 1 0.831191 0.249869 0.581665
481 1 0.000372788 0.318821 0.509454
482 1 0.0855263 0.420733 0.502285
483 1 0.0760934 0.321191 0.583273
484 1 1.00315 0.418005 0.571777
485 1 0.160295 0.331937 0.505425
486 1 0.263893 0.424055 0.504597
487 1 0.259537 0.328992 0.577297
488 1 0.178593 0.410809 0.580952
489 1 0.334503 0.320994 0.504835
490 1 0.410252 0.400027 0.497047
491 1 0.412133 0.33174 0.588019
492 1 0.342242 0.411334 0.585298
493 1 0.503706 0.318737 0.503628
494 1 0.573467 0.407037 0.507092
495 1 0.5915 0.325244 0.589293
496 1 0.493586 0.405796 0.581748
497 1 0.676582 0.329691 0.494262
498 1 0.753668 0.42296 0.492542
499 1 0.747507 0.328265 0.564621
500 1 0.677205 0.414851 0.582788
501 1 0.827243 0.327531 0.49359
502 1 0.919569 0.420566 0.496465
503 1 0.917511 0.329518 0.577165
504 1 0.827173 0.398421 0.563464
505 1 1.00002 0.505435 0.495225
506 1 0.0852019 0.576323 0.512046
507 1 0.0901777 0.491844 0.580613
508 1 0.978904 0.583214 0.577929
509 1 0.172645 0.487653 0.50468
510 1 0.24967 0.569462 0.505351
511 1 0.246644 0.490736 0.599751
512 1 0.171832 0.579002 0.589563
513 1 0.337774 0.489056 0.507888
514 1 0.421278 0.577614 0.508691
515 1 0.418041 0.485845 0.584725
516 1 0.327955 0.585416 0.581915
517 1 0.496475 0.492675 0.498452
518 1 0.590987 0.579395 0.496197
519 1 0.590443 0.507101 0.586101
520 1 0.493823 0.580587 0.578315
521 1 0.670738 0.494248 0.507263
522 1 0.756842 0.589624 0.508069
523 1 0.744064 0.514648 0.592093
524 1 0.675147 0.604412 0.59208
525 1 0.82841 0.507869 0.505586
526 1 0.911607 0.576426 0.49586
527 1 0.908492 0.498413 0.582335
528 1 0.839808 0.582177 0.585349
529 1 0.994827 0.68775 0.494693
530 1 0.098441 0.739252 0.492744
531 1 0.085592 0.668326 0.57039
532 1 0.993144 0.747709 0.582967
533 1 0.181538 0.6638 0.493963
534 1 0.255706 0.761613 0.491194
535 1 0.266217 0.667166 0.58441
536 1 0.162707 0.742735 0.577235
537 1 0.34233 0.658332 0.493305
538 1 0.409006 0.751517 0.505199
539 1 0.42498 0.669737 0.586435
540 1 0.333925 0.758078 0.579552
541 1 0.512526 0.662222 0.502965
542 1 0.593439 0.745166 0.498279
543 1 0.589613 0.670776 0.58489
544 1 0.513912 0.750008 0.575089
545 1 0.674086 0.658922 0.498669
546 1 0.768728 0.740918 0.488704
547 1 0.766413 0.661832 0.590206
548 1 0.687871 0.751072 0.577965
549 1 0.830657 0.654609 0.484963
550 1 0.908136 0.748689 0.502847
551 1 0.908646 0.673767 0.582217
552 1 0.820504 0.755341 0.581049
553 1 0.00782922 0.825341 0.497765
554 1 0.0891637 0.906859 0.512686
555 1 0.0840385 0.815743 0.594476
556 1 -0.00448843 0.911567 0.583295
557 1 0.169773 0.824035 0.506149
558 1 0.25738 0.925778 0.505762
559 1 0.254166 0.8424 0.589581
560 1 0.17194 0.917908 0.583752
561 1 0.32849 0.845414 0.501369
562 1 0.419897 0.922521 0.498842
563 1 0.42002 0.841464 0.579913
564 1 0.332407 0.927844 0.579764
565 1 0.505214 0.837621 0.503807
566 1 0.588671 0.918655 0.488303
567 1 0.596473 0.834265 0.579669
568 1 0.50234 0.924219 0.573795
569 1 0.657068 0.837295 0.487189
570 1 0.747448 0.921699 0.487785
571 1 0.745794 0.837412 0.58093
572 1 0.666826 0.927871 0.578203
573 1 0.833331 0.84035 0.491183
574 1 0.908972 0.918507 0.500762
575 1 0.912779 0.830129 0.573195
576 1 0.828178 0.918996 0.580016
577 1 0.982294 -0.00187001 0.657808
578 1 0.0746396 0.0733324 0.664438
579 1 0.0710065 1.00582 0.755614
580 1 0.995831 0.0749992 0.7492
581 1 0.163254 0.997764 0.682544
582 1 0.256065 0.0690725 0.670192
583 1 0.252566 0.995299 0.757704
584 1 0.159335 0.084203 0.747558
585 1 0.339212 0.994805 0.676549
586 1 0.417048 0.0772111 0.676345
587 1 0.416041 0.00403843 0.762187
588 1 0.336882 0.0753283 0.75219
589 1 0.50482 1.0106 0.678853
590 1 0.589751 0.0829103 0.663764
591 1 0.583566 0.0076215 0.753285
592 1 0.496143 0.0886208 0.754637
593 1 0.674247 1.0008 0.661139
594 1 0.758073 0.0945419 0.66677
595 1 0.762012 -0.00623678 0.748367
596 1 0.687561 0.0788487 0.751078
597 1 0.832804 0.00379842 0.663583
598 1 0.90959 0.0799406 0.674113
599 1 0.911436 0.996734 0.754428
600 1 0.832679 0.0907395 0.760808
601 1 1.00629 0.164251 0.671461
602 1 0.0790977 0.249791 0.675165
603 1 0.0876041 0.168643 0.743204
604 1 1.00392 0.244351 0.750235
605 1 0.158926 0.161004 0.669334
606 1 0.244392 0.246352 0.663918
607 1 0.25986 0.1658 0.753769
608 1 0.178406 0.249147 0.7525
609 1 0.334563 0.163961 0.666314
610 1 0.423279 0.244463 0.673631
611 1 0.408968 0.162543 0.749393
612 1 0.338664 0.249537 0.751491
613 1 0.494171 0.165333 0.655973
614 1 0.577527 0.240783 0.661441
615 1 0.573707 0.168604 0.752895
616 1 0.499571 0.25802 0.746828
617 1 0.665186 0.172125 0.668333
618 1 0.742459 0.248294 0.663303
619 1 0.754065 0.168444 0.741536
620 1 0.658907 0.255878 0.753727
621 1 0.83864 0.163479 0.664802
622 1 0.911009 0.244498 0.65956
623 1 0.905016 0.178327 0.758989
624 1 0.83204 0.252129 0.749954
625 1 -0.00675673 0.336042 0.660284
626 1 0.0876947 0.413639 0.66454
627 1 0.104492 0.325377 0.754073
628 1 0.00731929 0.408318 0.734819
629 1 0.164913 0.324927 0.654762
630 1 0.256011 0.417126 0.693919
631 1 0.249823 0.327613 0.74685
632 1 0.168328 0.421537 0.761308
633 1 0.328005 0.323659 0.67093
634 1 0.417363 0.408541 0.670917
635 1 0.423619 0.337065 0.752643
636 1 0.343111 0.410272 0.754247
637 1 0.496116 0.330027 0.660861
638 1 0.573628 0.41726 0.653504
639 1 0.579218 0.330581 0.732063
640 1 0.499508 0.425058 0.741117
641 1 0.675028 0.33533 0.663156
642 1 0.76064 0.427138 0.654741
643 1 0.756786 0.329933 0.759983
644 1 0.67181 0.416203 0.744957
645 1 0.83414 0.333492 0.656719
646 1 0.910164 0.413887 0.670995
647 1 0.908991 0.324806 0.736078
648 1 0.825675 0.415831 0.745424
649 1 0.990269 0.496695 0.658364
650 1 0.0792961 0.583785 0.666146
651 1 0.0744382 0.503297 0.741424
652 1 0.99384 0.597296 0.737357
653 1 0.161218 0.515941 0.67404
654 1 0.251087 0.580524 0.668238
655 1 0.252222 0.5107 0.755264
656 1 0.165508 0.588605 0.754386
657 1 0.335088 0.492722 0.666364
658 1 0.417452 0.584858 0.657224
659 1 0.414059 0.498979 0.747392
660 1 0.342445 0.583111 0.746715
661 1 0.500336 0.5018 0.655631
662 1 0.578058 0.588849 0.66245
663 1 0.590207 0.48355 0.743228
664 1 0.502152 0.56367 0.748442
665 1 0.664431 0.494656 0.667283
666 1 0.755822 0.590475 0.671912
667 1 0.749526 0.492985 0.741518
668 1 0.663579 0.580766 0.736945
669 1 0.831738 0.505566 0.666016
670 1 0.905216 0.593354 0.666051
671 1 0.904577 0.502972 0.749785
672 1 0.832771 0.580157 0.74787
673 1 0.998068 0.670911 0.65097
674 1 0.0898426 0.750119 0.680874
675 1 0.0822806 0.660903 0.748293
676 1 -0.00370803 0.751514 0.75491
677 1 0.16332 0.647743 0.665779
678 1 0.251169 0.753069 0.659881
679 1 0.253334 0.669947 0.739903
680 1 0.175003 0.746676 0.749606
681 1 0.336643 0.676193 0.672116
682 1 0.421921 0.764855 0.661408
683 1 0.431028 0.666545 0.739492
684 1 0.335531 0.749414 0.745142
685 1 0.516379 0.676106 0.667734
686 1 0.589487 0.766186 0.663732
687 1 0.572999 0.685093 0.759524
688 1 0.513813 0.761288 0.738121
689 1 0.656337 0.679009 0.677857
690 1 0.747514 0.753933 0.674843
691 1 0.740962 0.670548 0.746496
692 1 0.654452 0.768032 0.756928
693 1 0.822841 0.686382 0.676124
694 1 0.916662 0.74869 0.669966
695 1 0.91535 0.670268 0.74625
696 1 0.836623 0.759188 0.760043
697 1 0.994117 0.833567 0.654312
698 1 0.0825861 0.917101 0.681912
699 1 0.0831328 0.828177 0.75776
700 1 0.995159 0.908419 0.750424
701 1 0.155847 0.843349 0.675891
702 1 0.252954 0.922224 0.66817
703 1 0.252381 0.83629 0.749841
704 1 0.159063 0.91713 0.765009
705 1 0.332877 0.844618 0.658578
706 1 0.439062 0.918873 0.669414
707 1 0.421288 0.836498 0.746465
708 1 0.342585 0.920739 0.764638
709 1 0.510201 0.838187 0.651207
710 1 0.573943 0.92484 0.644355
711 1 0.576006 0.842999 0.747642
712 1 0.503128 0.929133 0.773602
713 1 0.656055 0.851997 0.664576
714 1 0.757685 0.914127 0.660093
715 1 0.73941 0.844763 0.750842
716 1 0.663456 0.927543 0.748734
717 1 0.824662 0.830013 0.670202
718 1 0.897202 0.907527 0.661501
719 1 0.910791 0.830962 0.747564
720 1 0.835388 0.909404 0.752673
721 1 0.997623 -0.00103134 0.835358
722 1 0.0871388 0.0820106 0.825876
723 1 0.0883111 0.00539621 0.909721
724 1 1.00125 0.0797714 0.920006
725 1 0.166033 0.00367248 0.841076
726 1 0.260152 0.0918556 0.835119
727 1 0.241445 0.00290822 0.915015
728 1 0.166529 0.0905476 0.904648
729 1 0.335427 0.0114733 0.834043
730 1 0.420305 0.0869937 0.838638
731 1 0.411659 0.00757952 0.926642
732 1 0.338881 0.0905728 0.937297
733 1 0.493286 0.0133384 0.842677
734 1 0.585279 0.0830418 0.830962
735 1 0.574897 1.00249 0.922102
736 1 0.499623 0.0763396 0.932487
737 1 0.673386 0.0112116 0.832402
738 1 0.751859 0.0831971 0.831398
739 1 0.757399 -0.000548568 0.911564
740 1 0.662967 0.0995999 0.914352
741 1 0.838412 1.01024 0.840246
742 1 0.919711 0.0806105 0.843184
743 1 0.917261 0.000992372 0.914302
744 1 0.829548 0.0890096 0.910337
745 1 -0.00949146 0.158236 0.830301
746 1 0.0716625 0.253653 0.849054
747 1 0.0728691 0.170707 0.930772
748 1 -0.00937024 0.252093 0.922751
749 1 0.16279 0.169942 0.830272
750 1 0.26004 0.246785 0.826515
751 1 0.24891 0.174466 0.911699
752 1 0.171081 0.253111 0.916533
753 1 0.337221 0.164517 0.840561
754 1 0.426584 0.237787 0.844535
755 1 0.433694 0.155516 0.931832
756 1 0.343342 0.255249 0.920357
757 1 0.493413 0.166773 0.829696
758 1 0.577945 0.248708 0.828787
759 1 0.578615 0.170555 0.907251
760 1 0.498471 0.245561 0.923099
761 1 0.663223 0.172797 0.819679
762 1 0.754087 0.231553 0.835192
763 1 0.747909 0.168357 0.913283
764 1 0.674532 0.248396 0.918859
765 1 0.83737 0.171018 0.837269
766 1 0.91896 0.255977 0.84756
767 1 0.913091 0.169854 0.918598
768 1 0.828508 0.257559 0.918787
769 1 0.991275 0.330741 0.832403
770 1 0.0822351 0.412243 0.832223
771 1 0.0770604 0.335715 0.917671
772 1 0.996619 0.414177 0.921653
773 1 0.161465 0.324263 0.845301
774 1 0.258075 0.398097 0.825936
775 1 0.249814 0.333588 0.90829
776 1 0.170131 0.418236 0.90319
777 1 0.333603 0.331646 0.834978
778 1 0.418771 0.415881 0.833038
779 1 0.429712 0.338258 0.907758
780 1 0.322721 0.413902 0.925419
781 1 0.499098 0.33683 0.827934
782 1 0.584394 0.414367 0.828007
783 1 0.592849 0.338434 0.924733
784 1 0.513591 0.417964 0.917385
785 1 0.675532 0.322839 0.827662
786 1 0.756073 0.422391 0.833983
787 1 0.755701 0.335374 0.905808
788 1 0.673329 0.41608 0.900323
789 1 0.837386 0.326966 0.831824
790 1 0.918776 0.420975 0.825173
791 1 0.913338 0.332642 0.922961
792 1 0.844628 0.410165 0.919086
793 1 0.994246 0.49989 0.828577
794 1 0.0766328 0.580735 0.824153
795 1 0.0723023 0.492924 0.910667
796 1 -0.00537265 0.57803 0.916783
797 1 0.163078 0.50583 0.822428
798 1 0.248664 0.588357 0.832137
799 1 0.259094 0.497265 0.920645
800 1 0.161406 0.574318 0.909602
801 1 0.335831 0.503695 0.840429
802 1 0.42071 0.594831 0.819147
803 1 0.414332 0.493098 0.922161
804 1 0.339807 0.598577 0.913145
805 1 0.496926 0.48611 0.832705
806 1 0.58235 0.583961 0.828615
807 1 0.589965 0.498714 0.910485
808 1 0.498945 0.561907 0.911716
809 1 0.66387 0.497735 0.827362
810 1 0.753341 0.587895 0.813395
811 1 0.74869 0.51533 0.915392
812 1 0.661499 0.589354 0.905522
813 1 0.839036 0.488614 0.842433
814 1 0.911895 0.576556 0.831005
815 1 0.914075 0.495639 0.919746
816 1 0.824746 0.590761 0.903691
817 1 0.995872 0.656181 0.840225
818 1 0.076945 0.738669 0.830002
819 1 0.0829589 0.657589 0.911933
820 1 0.985645 0.752895 0.914239
821 1 0.168255 0.660742 0.827139
822 1 0.257018 0.751898 0.827965
823 1 0.244809 0.67581 0.903397
824 1 0.158429 0.744325 0.917288
825 1 0.332246 0.660865 0.831718
826 1 0.415618 0.753561 0.840252
827 1 0.425956 0.668198 0.923269
828 1 0.341714 0.753819 0.911248
829 1 0.503114 0.660322 0.839086
830 1 0.565772 0.76453 0.845018
831 1 0.575702 0.657308 0.917079
832 1 0.499847 0.747806 0.926315
833 1 0.658191 0.664562 0.828548
834 1 0.735801 0.750059 0.824478
835 1 0.744128 0.664313 0.895909
836 1 0.663778 0.744161 0.916894
837 1 0.83366 0.668014 0.814213
838 1 0.913864 0.754215 0.837256
839 1 0.894431 0.670746 0.920544
840 1 0.812152 0.748547 0.906199
841 1 1.00718 0.834402 0.835366
842 1 0.0781626 0.923045 0.838815
843 1 0.0833804 0.838087 0.915652
844 1 0.989872 0.913551 0.917709
845 1 0.160137 0.828511 0.835714
846 1 0.260442 0.921548 0.839325
847 1 0.253259 0.838009 0.916584
848 1 0.176912 0.913514 0.922924
849 1 0.334939 0.826845 0.828275
850 1 0.425561 0.927633 0.846817
851 1 0.433073 0.828991 0.922424
852 1 0.337802 0.917664 0.913713
853 1 0.493872 0.838448 0.841346
854 1 0.582993 0.921747 0.842931
855 1 0.598221 0.837152 0.914582
856 1 0.500446 0.91621 0.932738
857 1 0.657397 0.845108 0.827372
858 1 0.741041 0.925129 0.832754
859 1 0.737933 0.827676 0.907239
860 1 0.667293 0.918008 0.917817
861 1 0.826159 0.833824 0.835612
862 1 0.913284 0.918495 0.831937
863 1 0.913614 0.839112 0.908563
864 1 0.8343 0.920236 0.922146
