ITEM: TIMESTEP
7000
ITEM: NUMBER OF ATOMS
864
ITEM: BOX BOUNDS pp pp pp
0.0000000000000000e+00 3.1559999999999999e+01
0.0000000000000000e+00 3.1559999999999999e+01
0.0000000000000000e+00 3.1559999999999999e+01
ITEM: ATOMS id type xs ys zs
27 1 0.0760332 0.158299 0.0804681
146 1 0.0807102 0.097299 0.166409
2 1 0.0774222 0.0889011 0.996229
145 1 -0.00680842 0.00179978 0.159514
169 1 1.00175 0.169853 0.171813
8 1 0.164743 0.08111 0.0821069
12 1 0.329585 0.0659014 0.0802358
29 1 0.161351 0.164613 1.0012
33 1 0.336423 0.183348 -0.0137568
5 1 0.16214 0.988169 0.00696848
7 1 0.253302 0.989885 0.0837574
6 1 0.245939 0.0832265 0.0114265
10 1 0.400491 0.0825019 0.999134
11 1 0.413334 0.986039 0.070421
16 1 0.489475 0.0872528 0.0796973
14 1 0.575121 0.0945408 0.991075
20 1 0.653411 0.0718185 0.085197
13 1 0.495184 0.000360651 0.999293
15 1 0.565961 0.997524 0.0792534
24 1 0.834906 0.077243 0.0925823
4 1 -0.0110616 0.0851743 0.0855745
23 1 0.910366 -0.00569308 0.0856141
26 1 0.0769993 0.257906 0.010455
32 1 0.169146 0.242008 0.0839162
51 1 0.0726791 0.328942 0.091232
31 1 0.247851 0.173042 0.0695412
30 1 0.239669 0.257381 -0.00390619
55 1 0.234564 0.327888 0.094593
36 1 0.328245 0.249646 0.0721496
53 1 0.170414 0.336663 -0.00396157
35 1 0.417888 0.182502 0.0792489
40 1 0.49915 0.256145 0.081243
59 1 0.4212 0.33233 0.082173
57 1 0.338791 0.347144 1.00257
39 1 0.569051 0.1622 0.0688027
37 1 0.49426 0.181987 0.982724
63 1 0.577393 0.348248 0.083214
38 1 0.570401 0.257283 0.00595208
61 1 0.501236 0.33832 0.00427139
44 1 0.643642 0.246967 0.0834636
43 1 0.748259 0.17913 0.0934327
186 1 0.739247 0.269952 0.170016
48 1 0.831913 0.264245 0.0914414
67 1 0.743784 0.332962 0.0754873
213 1 0.842729 0.33618 0.18978
28 1 -0.001788 0.239763 0.0811621
47 1 0.917954 0.168266 0.0939748
49 1 0.00153527 0.334423 0.00188329
71 1 0.927853 0.34581 0.0841092
190 1 0.907088 0.252945 0.166802
194 1 0.0825861 0.395632 0.167165
197 1 0.164563 0.309729 0.178263
75 1 0.083494 0.495748 0.0939345
50 1 0.083768 0.4161 0.00720371
56 1 0.163234 0.426439 0.0936535
79 1 0.252761 0.503973 0.0796075
54 1 0.245832 0.415817 0.0168144
60 1 0.329007 0.412897 0.0867517
58 1 0.418215 0.420322 -0.000394573
83 1 0.41421 0.498789 0.0854002
202 1 0.41535 0.42518 0.161713
64 1 0.496145 0.417719 0.0857499
206 1 0.5894 0.423985 0.174159
62 1 0.579253 0.421157 1.0037
85 1 0.513987 0.495404 0.0177671
68 1 0.664396 0.412862 0.0780866
91 1 0.778002 0.488489 0.0893358
233 1 0.667891 0.486688 0.165605
89 1 0.677461 0.494104 0.991848
210 1 0.747566 0.409382 0.164042
193 1 0.995639 0.326611 0.161958
52 1 1.00025 0.423614 0.0973086
72 1 0.839433 0.390676 0.0912828
214 1 0.919469 0.40741 0.169291
218 1 0.087042 0.583405 0.156588
99 1 0.0830382 0.665513 0.0793593
80 1 0.168525 0.592895 0.0937307
76 1 -0.00117388 0.57186 0.0796549
217 1 0.00433552 0.502978 0.168238
225 1 0.332082 0.491013 0.162912
222 1 0.240416 0.579216 0.169375
81 1 0.338712 0.509837 0.00860058
84 1 0.337644 0.57799 0.101804
105 1 0.333245 0.643553 0.0173215
88 1 0.517556 0.584286 0.0800854
107 1 0.429807 0.669009 0.0958558
226 1 0.415166 0.58949 0.172496
87 1 0.599304 0.497577 0.0898241
230 1 0.591458 0.570675 0.168393
92 1 0.676975 0.570779 0.0878362
96 1 0.824003 0.588517 0.0839306
113 1 0.66734 0.664617 0.00671523
257 1 0.672524 0.659287 0.191569
95 1 0.905807 0.492557 0.0915189
238 1 0.918158 0.584666 0.15836
73 1 0.998504 0.501522 0.000817355
94 1 0.916276 0.591928 0.00306957
100 1 0.000122991 0.75044 0.0969103
269 1 0.152006 0.826877 0.17226
104 1 0.145861 0.751052 0.0846256
103 1 0.251651 0.670143 0.0855173
246 1 0.245286 0.757109 0.148118
127 1 0.25416 0.83871 0.0644039
249 1 0.326188 0.673268 0.164474
108 1 0.33009 0.748488 0.0771701
250 1 0.414756 0.749537 0.179956
112 1 0.528363 0.717248 0.0744912
111 1 0.616521 0.662613 0.100965
137 1 0.670804 0.833454 0.994576
135 1 0.582362 0.815299 0.0736176
253 1 0.500726 0.645471 0.170869
133 1 0.500829 0.831324 0.985449
116 1 0.671419 0.766252 0.0898004
115 1 0.746245 0.665416 0.0855984
120 1 0.836503 0.75012 0.0856558
114 1 0.753047 0.742953 0.000334946
119 1 0.910871 0.671298 0.0868818
143 1 0.920258 0.844471 0.0817845
97 1 1.00665 0.655886 0.991401
123 1 0.0768647 0.833591 0.0976075
3 1 0.0708816 -0.00777731 0.0715218
266 1 0.0758791 0.927028 0.162799
124 1 0.996589 0.925795 0.0760898
128 1 0.169219 0.900943 0.0824276
270 1 0.251549 0.895578 0.163455
131 1 0.426363 0.797139 0.0803602
132 1 0.325486 0.919827 0.0822511
277 1 0.516558 0.820834 0.173025
136 1 0.517473 0.897423 0.0824313
273 1 0.331783 0.812593 0.164201
130 1 0.431865 0.914151 0.985778
17 1 0.683596 0.999825 -0.0043568
134 1 0.592626 0.912966 0.991397
21 1 0.837109 0.998038 0.998235
139 1 0.754574 0.83515 0.0891395
19 1 0.747987 1.00465 0.0968746
140 1 0.667436 0.91331 0.0861762
144 1 0.826117 0.921277 0.0947034
265 1 0.987392 0.844958 0.169447
142 1 0.923355 0.902416 0.997121
173 1 0.179943 0.156583 0.156833
171 1 0.0860731 0.164579 0.250609
317 1 0.148541 0.170347 0.330317
290 1 0.0830481 0.0788927 0.3268
152 1 0.180599 0.0825865 0.242384
293 1 0.162637 0.0151396 0.321198
177 1 0.348738 0.16234 0.162678
150 1 0.256397 0.0920743 0.152606
156 1 0.311968 0.0754827 0.248695
294 1 0.249847 0.0890042 0.329726
153 1 0.325445 0.985956 0.172297
321 1 0.324721 0.174545 0.312349
154 1 0.420447 0.0628595 0.161812
160 1 0.504379 0.0701508 0.252728
158 1 0.567985 0.0648319 0.16575
185 1 0.645354 0.161953 0.162809
161 1 0.652055 0.997715 0.159464
302 1 0.584818 0.0844152 0.332209
164 1 0.659148 0.0707158 0.25389
162 1 0.730049 0.0887979 0.158812
187 1 0.743 0.179517 0.239832
165 1 0.834228 0.00106306 0.17252
306 1 0.761449 0.0917434 0.335772
166 1 0.918597 0.0832257 0.168094
168 1 0.820255 0.0824913 0.242487
148 1 0.996248 0.0937814 0.246895
167 1 0.90185 0.0136694 0.251481
310 1 0.910419 0.0919012 0.343464
170 1 0.0754567 0.247496 0.164867
176 1 0.163896 0.246548 0.254162
314 1 0.0684186 0.244533 0.336982
341 1 0.166603 0.326606 0.333311
195 1 0.0729754 0.323455 0.258425
174 1 0.253279 0.233206 0.165457
175 1 0.235104 0.170782 0.260132
180 1 0.337382 0.258024 0.251383
318 1 0.250845 0.251453 0.332883
179 1 0.428502 0.149609 0.243073
178 1 0.425316 0.240008 0.17596
201 1 0.341174 0.338083 0.179464
203 1 0.410009 0.335088 0.25359
181 1 0.516694 0.154585 0.174534
184 1 0.508943 0.240897 0.254572
183 1 0.582158 0.159706 0.252845
205 1 0.494822 0.339902 0.178669
182 1 0.570092 0.258746 0.15653
207 1 0.573238 0.341327 0.261221
188 1 0.66516 0.263937 0.24068
209 1 0.656957 0.342644 0.160293
211 1 0.748356 0.344418 0.247256
330 1 0.742471 0.262433 0.330545
189 1 0.830655 0.187308 0.16844
172 1 -0.00646125 0.256775 0.254832
192 1 0.830059 0.246075 0.252075
191 1 0.910454 0.169102 0.242873
219 1 0.0877614 0.503597 0.248431
200 1 0.173465 0.407788 0.250752
221 1 0.166791 0.502556 0.1623
196 1 0.00176714 0.416312 0.246538
199 1 0.253575 0.317977 0.24428
198 1 0.24018 0.406955 0.170018
342 1 0.25042 0.4118 0.341669
223 1 0.235039 0.50984 0.255264
204 1 0.326798 0.426669 0.249623
227 1 0.417378 0.49401 0.263838
229 1 0.496547 0.503057 0.1649
373 1 0.499701 0.491261 0.339026
208 1 0.496593 0.416496 0.244574
231 1 0.569342 0.496311 0.25265
212 1 0.671745 0.413874 0.253211
235 1 0.744254 0.495049 0.259532
377 1 0.6451 0.511177 0.341041
354 1 0.748776 0.430956 0.33762
215 1 0.911341 0.333912 0.274437
357 1 0.822603 0.326642 0.34867
216 1 0.836007 0.40701 0.269083
224 1 0.162492 0.600627 0.239285
220 1 0.000492277 0.577551 0.235727
243 1 0.0739343 0.663511 0.244173
247 1 0.253132 0.675117 0.247644
228 1 0.318517 0.583575 0.24001
232 1 0.500044 0.573126 0.248889
370 1 0.407521 0.583156 0.335002
397 1 0.489026 0.670775 0.33724
393 1 0.320651 0.673534 0.324315
236 1 0.653349 0.563172 0.256178
374 1 0.567695 0.583152 0.343223
237 1 0.8231 0.483715 0.195175
234 1 0.755206 0.56476 0.169845
378 1 0.756932 0.575612 0.333305
259 1 0.762485 0.656717 0.257553
381 1 0.829956 0.504371 0.31312
239 1 0.924602 0.499147 0.253619
240 1 0.839432 0.580196 0.241164
382 1 0.910611 0.585445 0.328061
245 1 0.162269 0.668842 0.167674
242 1 0.0821626 0.746597 0.180663
248 1 0.176585 0.752176 0.242792
267 1 0.0729639 0.847152 0.239985
385 1 0.00968154 0.672443 0.324045
386 1 0.0846422 0.753286 0.323024
413 1 0.181195 0.84159 0.325416
252 1 0.327719 0.754408 0.252544
251 1 0.408134 0.672203 0.258839
256 1 0.514325 0.731513 0.253824
394 1 0.41245 0.75 0.321612
255 1 0.583503 0.648219 0.251657
254 1 0.602506 0.746432 0.167252
421 1 0.485254 0.823309 0.335071
279 1 0.574633 0.82616 0.266842
281 1 0.664755 0.833003 0.175047
260 1 0.656925 0.751896 0.254523
258 1 0.740543 0.741349 0.169999
402 1 0.760521 0.756894 0.313025
241 1 0.997852 0.654893 0.147881
261 1 0.846345 0.675906 0.173724
263 1 0.927817 0.655689 0.251354
244 1 0.00177172 0.755 0.253468
264 1 0.845792 0.758144 0.252638
262 1 0.931458 0.752152 0.177657
147 1 0.0755508 0.00781085 0.234505
272 1 0.154413 0.923992 0.24607
410 1 0.0903112 0.929187 0.322189
149 1 0.163335 -0.0093129 0.152399
271 1 0.254635 0.823203 0.240815
151 1 0.24235 0.982687 0.25264
276 1 0.322761 0.918683 0.248996
274 1 0.424239 0.898984 0.150109
155 1 0.430713 0.98933 0.248826
275 1 0.420957 0.839399 0.241035
418 1 0.416477 0.904356 0.323532
157 1 0.507378 0.974794 0.176275
278 1 0.588587 0.906037 0.17184
280 1 0.511998 0.910053 0.260441
159 1 0.587008 0.988894 0.256234
163 1 0.734062 0.000434098 0.238562
284 1 0.6665 0.915859 0.254895
283 1 0.742987 0.840667 0.244644
282 1 0.742081 0.9102 0.167138
288 1 0.82678 0.926783 0.252724
286 1 0.918556 0.923122 0.177801
409 1 0.00691222 0.841175 0.329632
287 1 0.920588 0.84139 0.264048
285 1 0.825802 0.831067 0.171435
268 1 0.997586 0.921742 0.246822
289 1 0.989002 0.00856895 0.325973
296 1 0.174415 0.0823872 0.410819
434 1 0.0599214 0.071134 0.499308
292 1 0.999684 0.0705431 0.406356
315 1 0.07421 0.146973 0.417431
433 1 0.981759 0.00146947 0.498298
438 1 0.251805 0.0795266 0.508049
300 1 0.334101 0.0830464 0.397739
319 1 0.251123 0.165338 0.404535
298 1 0.413981 0.0827877 0.327523
442 1 0.419938 0.0726088 0.508213
304 1 0.50432 0.0809493 0.411537
308 1 0.671788 0.0931358 0.416588
469 1 0.490898 0.17267 0.492675
449 1 0.665702 0.0226941 0.506188
312 1 0.830126 0.0807986 0.424377
331 1 0.74079 0.178326 0.414435
450 1 0.757926 0.0888882 0.512382
309 1 0.824912 0.00465436 0.328408
335 1 0.907961 0.169517 0.420744
311 1 0.906722 -0.00758977 0.421735
454 1 0.922332 0.0966965 0.508466
337 1 1.00099 0.334539 0.332561
339 1 0.0792592 0.330292 0.41444
458 1 0.0842412 0.240586 0.496158
320 1 0.155306 0.253873 0.406951
485 1 0.161085 0.337959 0.486024
324 1 0.33205 0.232172 0.402975
462 1 0.272136 0.242607 0.490712
465 1 0.337295 0.155211 0.48615
343 1 0.259765 0.320938 0.419677
489 1 0.344119 0.330774 0.488485
322 1 0.416553 0.233698 0.330413
323 1 0.424689 0.167565 0.417638
347 1 0.425653 0.347444 0.421068
326 1 0.600601 0.236685 0.326787
329 1 0.672127 0.16384 0.324003
328 1 0.49404 0.249702 0.416811
325 1 0.513003 0.168539 0.328013
327 1 0.580834 0.172665 0.415178
351 1 0.576417 0.323587 0.411114
353 1 0.656175 0.329501 0.322239
332 1 0.663018 0.247436 0.424066
336 1 0.827745 0.250883 0.433371
333 1 0.829236 0.175486 0.345677
474 1 0.75213 0.254503 0.513166
313 1 0.998863 0.170006 0.317325
316 1 1.00134 0.248188 0.417724
334 1 0.91586 0.239575 0.337309
478 1 0.918073 0.24203 0.501345
338 1 0.083404 0.414724 0.325184
482 1 0.0817949 0.424526 0.490635
344 1 0.178422 0.411258 0.411016
345 1 0.352272 0.3191 0.343552
348 1 0.325868 0.423625 0.424319
367 1 0.254301 0.50192 0.414892
346 1 0.41998 0.419026 0.333284
513 1 0.34174 0.498512 0.500629
352 1 0.504403 0.427592 0.430943
350 1 0.582774 0.410813 0.346112
349 1 0.498663 0.336895 0.330388
494 1 0.590172 0.417914 0.49562
355 1 0.743576 0.337073 0.410198
356 1 0.670941 0.433106 0.414663
498 1 0.748579 0.414233 0.505865
358 1 0.919096 0.418747 0.345098
359 1 0.902871 0.333435 0.421223
340 1 -0.0157188 0.43703 0.420445
360 1 0.826589 0.417136 0.415743
362 1 0.076975 0.575301 0.324061
389 1 0.168717 0.668732 0.319575
363 1 0.0916109 0.48709 0.395816
364 1 0.993028 0.561995 0.416204
368 1 0.175488 0.570691 0.413661
505 1 -0.00355648 0.504905 0.507641
365 1 0.173499 0.484107 0.334791
366 1 0.246206 0.580933 0.334412
369 1 0.319221 0.49508 0.331531
372 1 0.330084 0.589862 0.400929
371 1 0.410304 0.503939 0.410725
376 1 0.482813 0.588417 0.429234
541 1 0.493721 0.680327 0.498017
517 1 0.476945 0.50846 0.510975
401 1 0.662343 0.650435 0.326948
375 1 0.569984 0.512439 0.418729
399 1 0.576062 0.669005 0.408971
518 1 0.578393 0.594779 0.492743
521 1 0.655472 0.501227 0.500721
379 1 0.754109 0.503689 0.417331
380 1 0.669822 0.586881 0.427899
384 1 0.829176 0.598633 0.41845
403 1 0.742407 0.659569 0.423432
545 1 0.666311 0.678768 0.512676
383 1 0.891211 0.497841 0.408721
361 1 0.00797782 0.492926 0.329657
407 1 0.933532 0.662639 0.416609
387 1 0.0974141 0.67399 0.406054
411 1 0.08736 0.840309 0.40622
553 1 0.00399957 0.845888 0.492937
530 1 0.09658 0.757237 0.489756
388 1 0.0133092 0.745389 0.411677
390 1 0.246149 0.748057 0.329609
391 1 0.237876 0.66693 0.422288
392 1 0.165646 0.763709 0.397432
396 1 0.328982 0.753013 0.420437
417 1 0.33022 0.831202 0.333728
395 1 0.416264 0.668123 0.424775
538 1 0.403579 0.752047 0.498947
400 1 0.494599 0.745709 0.4184
419 1 0.422829 0.831505 0.414491
425 1 0.66736 0.832373 0.333824
398 1 0.598717 0.747234 0.341455
423 1 0.585662 0.825517 0.416012
405 1 0.837235 0.676088 0.349733
404 1 0.677808 0.746402 0.421094
408 1 0.835877 0.749775 0.42161
427 1 0.747402 0.835145 0.419515
406 1 0.923879 0.757707 0.331653
550 1 0.936255 0.758977 0.497946
437 1 0.162644 0.0170578 0.497564
291 1 0.0929831 0.00960141 0.41074
412 1 0.00884157 0.93209 0.409602
414 1 0.248104 0.924474 0.337211
295 1 0.249786 1.01531 0.421952
416 1 0.169551 0.941232 0.420108
415 1 0.247243 0.851979 0.419365
297 1 0.340522 1.00352 0.325484
301 1 0.494432 0.98297 0.337943
299 1 0.414677 0.00425894 0.41444
420 1 0.334744 0.927047 0.41272
562 1 0.418006 0.912978 0.492794
303 1 0.590139 0.0136068 0.420416
305 1 0.657805 1.0038 0.334093
424 1 0.507599 0.917727 0.424479
422 1 0.585417 0.908786 0.334374
428 1 0.669255 0.916624 0.428083
429 1 0.83318 0.834296 0.340576
426 1 0.744555 0.921521 0.328734
307 1 0.736614 0.00173035 0.413442
570 1 0.760007 0.917672 0.489468
432 1 0.819584 0.922314 0.404101
431 1 0.923291 0.85289 0.410369
430 1 0.910398 0.92287 0.325975
461 1 0.16713 0.156919 0.488865
436 1 0.989238 0.0786933 0.587086
435 1 0.0865763 0.00039757 0.573174
605 1 0.168737 0.178794 0.663865
578 1 0.0736822 0.0909834 0.671279
601 1 1.00031 0.164039 0.658525
577 1 0.998335 0.982901 0.676758
440 1 0.152664 0.0871805 0.587356
439 1 0.248421 1.01212 0.591597
444 1 0.338686 0.092985 0.594524
448 1 0.481476 0.0930728 0.593906
613 1 0.511967 0.182137 0.668263
445 1 0.502039 0.00928018 0.49486
446 1 0.589028 0.0999656 0.487938
471 1 0.582617 0.163286 0.581611
452 1 0.661656 0.100204 0.578802
473 1 0.659021 0.178103 0.505469
475 1 0.753396 0.167763 0.59302
477 1 0.827983 0.166658 0.495934
456 1 0.843758 0.0842875 0.585775
455 1 0.914766 0.999648 0.596965
457 1 1.00689 0.170593 0.492406
459 1 0.088744 0.168234 0.587903
460 1 0.995502 0.254284 0.572389
602 1 0.0674301 0.251769 0.65649
464 1 0.179685 0.251213 0.551249
483 1 0.0808829 0.324115 0.571212
463 1 0.261033 0.166781 0.57828
468 1 0.329099 0.266764 0.576231
606 1 0.248018 0.259597 0.648485
467 1 0.403348 0.179608 0.576573
466 1 0.415108 0.253169 0.495954
610 1 0.422558 0.245539 0.666316
472 1 0.506198 0.256489 0.581379
470 1 0.579645 0.254544 0.503185
614 1 0.597604 0.24307 0.674076
476 1 0.669884 0.242956 0.582022
480 1 0.839594 0.241478 0.576286
617 1 0.672316 0.163453 0.674962
621 1 0.840988 0.160853 0.667484
618 1 0.759308 0.245406 0.665206
479 1 0.919705 0.173365 0.582474
626 1 0.0786833 0.420556 0.670931
488 1 0.164544 0.413799 0.565967
484 1 1.01514 0.415162 0.572261
486 1 0.254469 0.417457 0.496974
487 1 0.245705 0.334279 0.570704
492 1 0.333425 0.404512 0.587091
491 1 0.420826 0.327388 0.578024
637 1 0.512457 0.323666 0.671676
493 1 0.509558 0.333414 0.491813
490 1 0.416686 0.413608 0.506443
634 1 0.429939 0.40233 0.655996
495 1 0.575615 0.327147 0.58737
496 1 0.495071 0.430168 0.574848
497 1 0.657511 0.327146 0.509303
500 1 0.657205 0.41932 0.57866
499 1 0.741355 0.334736 0.585785
523 1 0.742105 0.511507 0.577271
502 1 0.91449 0.433162 0.494903
503 1 0.918355 0.338182 0.576845
501 1 0.83372 0.339934 0.507458
481 1 1.00131 0.337081 0.496126
504 1 0.836432 0.41806 0.598488
527 1 0.932075 0.504051 0.585675
507 1 0.085502 0.500015 0.58448
509 1 0.169218 0.484275 0.482461
506 1 0.0880293 0.582559 0.502917
511 1 0.249119 0.489424 0.582822
510 1 0.244091 0.572075 0.502598
512 1 0.167601 0.574513 0.577546
516 1 0.313409 0.5744 0.591521
515 1 0.407 0.511856 0.590517
514 1 0.406162 0.590533 0.508596
657 1 0.334167 0.494399 0.664839
519 1 0.588729 0.505225 0.580652
520 1 0.485927 0.589361 0.582429
543 1 0.567578 0.658785 0.574329
662 1 0.571819 0.581323 0.660364
665 1 0.671269 0.490741 0.646916
525 1 0.814345 0.511145 0.50168
524 1 0.657998 0.584016 0.574204
522 1 0.745453 0.603242 0.516705
666 1 0.739467 0.591602 0.659803
526 1 0.919454 0.591263 0.490025
508 1 0.00563882 0.575988 0.58648
528 1 0.841833 0.583078 0.595184
529 1 0.0102038 0.660127 0.497698
531 1 0.0873958 0.656553 0.587136
536 1 0.173198 0.743666 0.577785
532 1 0.0113039 0.743451 0.570657
537 1 0.329753 0.667075 0.496227
561 1 0.333244 0.845804 0.513141
533 1 0.173109 0.664401 0.505979
534 1 0.243867 0.764125 0.501076
535 1 0.249968 0.669381 0.594077
540 1 0.328276 0.756094 0.578464
678 1 0.24826 0.763701 0.654274
565 1 0.49548 0.836993 0.5027
539 1 0.402844 0.678529 0.581442
563 1 0.419112 0.834783 0.591622
542 1 0.577049 0.748562 0.494817
569 1 0.681354 0.844085 0.495117
544 1 0.509495 0.75517 0.576324
567 1 0.567065 0.841977 0.578981
713 1 0.651936 0.837084 0.665078
548 1 0.646007 0.76415 0.585622
546 1 0.755784 0.748411 0.510067
549 1 0.845286 0.660917 0.507383
547 1 0.744812 0.676342 0.58929
690 1 0.747283 0.745101 0.677671
552 1 0.840773 0.747389 0.582708
551 1 0.919892 0.659131 0.577628
575 1 0.935636 0.845415 0.575334
554 1 0.0870477 0.924563 0.496889
555 1 0.0980663 0.834413 0.592449
556 1 0.00716374 0.929398 0.584402
698 1 0.0795385 0.931293 0.673158
557 1 0.163359 0.843957 0.501247
558 1 0.246085 0.931225 0.502451
559 1 0.250072 0.843963 0.588166
560 1 0.160488 0.912913 0.58375
564 1 0.341037 0.910299 0.594264
705 1 0.337187 0.841001 0.684668
441 1 0.334535 0.000855028 0.504882
443 1 0.408558 -0.0104729 0.592128
568 1 0.48881 0.924425 0.576894
566 1 0.589459 0.915524 0.504718
447 1 0.582171 0.0111015 0.570012
710 1 0.583679 0.930794 0.66801
572 1 0.664044 0.910504 0.585159
593 1 0.673328 0.000710768 0.674533
573 1 0.828122 0.835097 0.507428
571 1 0.740411 0.835297 0.596281
451 1 0.740399 0.990112 0.595331
453 1 0.833748 0.00168914 0.503384
714 1 0.75797 0.904954 0.68255
574 1 0.916145 0.91738 0.495033
576 1 0.821667 0.916942 0.586217
722 1 0.0923221 0.078281 0.840515
580 1 -0.00452761 0.0867822 0.756913
579 1 0.0702808 0.998683 0.757866
582 1 0.242454 0.072197 0.678174
581 1 0.162732 -5.46576e-05 0.68967
584 1 0.157458 0.0851441 0.758473
609 1 0.32656 0.17784 0.668931
588 1 0.322056 0.0785721 0.743804
586 1 0.413992 0.09681 0.673489
590 1 0.580683 0.0864073 0.664677
592 1 0.508497 0.0950647 0.754675
615 1 0.598886 0.174754 0.754591
757 1 0.504632 0.172115 0.82776
591 1 0.580238 0.0100566 0.748884
594 1 0.745531 0.0782345 0.654927
596 1 0.666455 0.0832518 0.759183
600 1 0.822278 0.0843675 0.752615
598 1 0.917432 0.0605502 0.691266
623 1 0.912132 0.171271 0.73766
742 1 0.905014 0.0914017 0.828412
603 1 0.0725961 0.180883 0.740674
604 1 0.994934 0.268302 0.759746
627 1 0.0709261 0.346166 0.748775
745 1 0.0131007 0.174157 0.830589
769 1 1.01737 0.344486 0.839118
607 1 0.24677 0.178401 0.744176
608 1 0.160896 0.262782 0.749944
629 1 0.160993 0.32988 0.658736
631 1 0.239638 0.347614 0.76287
611 1 0.41295 0.176837 0.758052
612 1 0.3294 0.254381 0.747026
616 1 0.497877 0.260055 0.767396
785 1 0.668208 0.328078 0.841027
620 1 0.688942 0.260018 0.752477
619 1 0.749126 0.171433 0.750589
762 1 0.751674 0.269768 0.836661
761 1 0.685291 0.187137 0.836441
789 1 0.846572 0.338736 0.837705
622 1 0.923764 0.248281 0.669663
624 1 0.83966 0.244003 0.752856
766 1 0.92329 0.252425 0.838214
625 1 0.00870171 0.331014 0.660915
651 1 0.0791728 0.508315 0.75644
649 1 1.00687 0.506828 0.675322
653 1 0.1807 0.481243 0.665602
632 1 0.15405 0.430496 0.763094
633 1 0.329415 0.331446 0.6806
630 1 0.249628 0.406242 0.661454
636 1 0.332244 0.420422 0.740736
635 1 0.416026 0.326231 0.75361
640 1 0.503892 0.406109 0.743981
661 1 0.493934 0.502618 0.656979
641 1 0.660319 0.332506 0.663112
638 1 0.58459 0.422722 0.659966
639 1 0.589549 0.325637 0.758878
644 1 0.659344 0.415121 0.74025
782 1 0.593768 0.415127 0.83656
645 1 0.845793 0.322736 0.65698
642 1 0.750088 0.422722 0.67132
643 1 0.772013 0.342635 0.74881
786 1 0.759218 0.410034 0.825293
647 1 0.910529 0.34691 0.749912
628 1 0.996988 0.420053 0.745888
648 1 0.833746 0.427306 0.743713
646 1 0.910684 0.425928 0.66272
790 1 0.924715 0.410639 0.838969
671 1 0.911927 0.495555 0.748733
650 1 0.0967332 0.565299 0.666599
673 1 0.00755253 0.668418 0.655648
652 1 0.987478 0.592236 0.749074
675 1 0.0702376 0.651805 0.753872
794 1 0.0868196 0.591658 0.833851
821 1 0.17308 0.660297 0.814236
654 1 0.236797 0.581039 0.675305
655 1 0.251151 0.499623 0.748424
656 1 0.153247 0.576191 0.751244
679 1 0.257107 0.664216 0.750425
658 1 0.413848 0.606747 0.651792
660 1 0.333922 0.59026 0.736595
659 1 0.415961 0.487294 0.737049
683 1 0.433922 0.672873 0.739428
663 1 0.577201 0.499874 0.751067
664 1 0.49086 0.582327 0.740825
689 1 0.645438 0.667735 0.662017
687 1 0.575095 0.648959 0.746616
669 1 0.828569 0.504336 0.676026
667 1 0.74345 0.508125 0.740937
668 1 0.665463 0.573588 0.736865
810 1 0.75978 0.566392 0.826217
813 1 0.840253 0.474654 0.837386
672 1 0.825882 0.596118 0.746639
670 1 0.925309 0.580313 0.665845
814 1 0.909341 0.57512 0.828749
817 1 0.998132 0.652294 0.843434
677 1 0.161509 0.658524 0.681608
674 1 0.0894256 0.74763 0.645912
818 1 0.0900961 0.747332 0.830063
701 1 0.159925 0.824359 0.677823
680 1 0.160859 0.748991 0.749309
822 1 0.270887 0.750474 0.832486
703 1 0.243608 0.827465 0.752982
684 1 0.331583 0.74451 0.742072
681 1 0.326675 0.667953 0.663788
685 1 0.51225 0.672612 0.663154
682 1 0.41741 0.758096 0.66566
707 1 0.42424 0.823176 0.752247
825 1 0.351548 0.670239 0.813965
709 1 0.49447 0.828927 0.667416
686 1 0.574644 0.762199 0.664552
688 1 0.511647 0.741213 0.751949
833 1 0.673377 0.655429 0.829591
692 1 0.660875 0.741389 0.739926
691 1 0.740305 0.662095 0.744929
715 1 0.743651 0.837119 0.761623
834 1 0.748485 0.736781 0.832484
857 1 0.664712 0.82248 0.843139
693 1 0.839266 0.672683 0.655435
694 1 0.924162 0.762173 0.656338
696 1 0.829988 0.744812 0.752953
695 1 0.912573 0.677285 0.730938
676 1 -0.00414288 0.746701 0.74148
721 1 1.00668 0.991552 0.837567
697 1 1.00903 0.833855 0.66574
699 1 0.078325 0.81501 0.752972
700 1 0.987308 0.895085 0.764069
704 1 0.148386 0.895803 0.749029
841 1 0.988102 0.825831 0.834465
842 1 0.088231 0.913075 0.830852
702 1 0.259224 0.916888 0.67893
583 1 0.244204 -0.0128688 0.765628
708 1 0.33146 0.919086 0.762688
706 1 0.417669 0.915388 0.677301
585 1 0.327521 1.00057 0.667823
587 1 0.429807 1.00556 0.756912
712 1 0.509404 0.921548 0.744936
729 1 0.345595 0.996669 0.835216
849 1 0.34764 0.831266 0.83322
589 1 0.504541 0.00339863 0.647616
711 1 0.584496 0.844188 0.750855
854 1 0.586383 0.916297 0.835399
717 1 0.828595 0.814197 0.661213
597 1 0.826354 0.994817 0.680849
595 1 0.755893 -0.000823969 0.759971
716 1 0.670419 0.914619 0.75904
720 1 0.833808 0.90286 0.760233
861 1 0.829676 0.807559 0.840375
718 1 0.898052 0.899793 0.672706
719 1 0.903321 0.826241 0.75945
599 1 0.915981 0.977009 0.766465
862 1 0.912453 0.914813 0.850092
1 1 -0.00777118 0.00578663 1.0007
747 1 0.0889503 0.160194 0.911875
723 1 0.0769071 1.00218 0.926622
728 1 0.173842 0.0793527 0.930506
726 1 0.244915 0.08808 0.834459
751 1 0.254832 0.173229 0.914525
727 1 0.261384 0.996843 0.900803
9 1 0.336542 -0.00379511 0.979056
732 1 0.339027 0.0876355 0.918517
730 1 0.411793 0.0963203 0.8219
755 1 0.408234 0.171762 0.911173
731 1 0.42125 -0.00123198 0.914368
736 1 0.488711 0.0882293 0.908702
734 1 0.578852 0.0998209 0.833132
740 1 0.662686 0.112833 0.918844
733 1 0.513257 -0.00086023 0.83311
741 1 0.83961 -0.000520662 0.834362
18 1 0.745003 0.0862423 0.0181199
738 1 0.754161 0.0917834 0.838386
744 1 0.839274 0.0897584 0.922176
739 1 0.753626 0.993627 0.912382
763 1 0.766799 0.163585 0.949153
45 1 0.840617 0.183375 0.0138516
765 1 0.844312 0.170761 0.839863
22 1 0.920739 0.0861153 -0.00635357
25 1 -0.00152039 0.165567 0.990135
724 1 1.00479 0.0791218 0.903179
767 1 0.919799 0.184047 0.922623
746 1 0.0809709 0.262144 0.81629
749 1 0.157652 0.162961 0.831934
771 1 0.0853218 0.339735 0.937279
752 1 0.163842 0.250228 0.926122
750 1 0.240295 0.25382 0.824924
756 1 0.321936 0.258114 0.918464
773 1 0.166994 0.34814 0.843064
775 1 0.243226 0.343365 0.933252
754 1 0.415804 0.26086 0.845281
753 1 0.335038 0.173108 0.836355
34 1 0.418791 0.267327 1.00033
779 1 0.423102 0.346972 0.923322
781 1 0.503509 0.341874 0.835467
759 1 0.580204 0.186781 0.92455
760 1 0.504046 0.261393 0.908675
758 1 0.591339 0.240702 0.836192
783 1 0.579489 0.329593 0.931579
41 1 0.66317 0.164987 0.0174264
764 1 0.67089 0.251621 0.926195
42 1 0.75842 0.248053 0.0108454
65 1 0.660979 0.334897 -0.000378079
46 1 0.924423 0.244012 0.00934141
748 1 0.0118095 0.249402 0.919858
768 1 0.842483 0.255308 0.925779
791 1 0.934095 0.329841 0.927055
770 1 0.0836037 0.430885 0.832831
793 1 -0.0114142 0.506711 0.825328
795 1 0.078051 0.49841 0.927386
77 1 0.156964 0.504221 0.0235781
776 1 0.168788 0.423833 0.935232
774 1 0.256243 0.434218 0.836498
797 1 0.192484 0.509806 0.840838
799 1 0.249018 0.497557 0.945464
777 1 0.340306 0.341491 0.82981
780 1 0.332384 0.422978 0.924377
778 1 0.425757 0.406928 0.840114
801 1 0.347011 0.498279 0.826548
803 1 0.42713 0.506503 0.915771
805 1 0.50601 0.492036 0.83149
784 1 0.503395 0.431491 0.923439
788 1 0.682143 0.405694 0.910364
69 1 0.834384 0.325903 0.000202002
787 1 0.753117 0.329069 0.926442
66 1 0.750581 0.423468 0.00383645
93 1 0.843825 0.496699 0.00325311
811 1 0.763325 0.484544 0.923191
792 1 0.83641 0.401706 0.929614
772 1 -0.00167138 0.418824 0.931365
70 1 0.919263 0.411963 0.00225395
815 1 0.916474 0.491729 0.915971
74 1 0.0743013 0.579674 1.01014
819 1 0.0921139 0.647798 0.921531
101 1 0.177007 0.678377 8.86438e-05
798 1 0.266862 0.586067 0.81941
78 1 0.254065 0.57986 0.012001
800 1 0.170971 0.572884 0.938508
823 1 0.247891 0.653261 0.914343
82 1 0.416473 0.571833 -0.00215708
109 1 0.509229 0.643555 1.00236
804 1 0.32928 0.561422 0.911935
802 1 0.415761 0.576445 0.824379
827 1 0.401896 0.653151 0.903255
829 1 0.499807 0.661523 0.835675
86 1 0.592219 0.574151 1.00195
806 1 0.588274 0.57628 0.819893
808 1 0.499339 0.577909 0.911806
807 1 0.591 0.503025 0.899708
831 1 0.586962 0.648705 0.917004
809 1 0.667106 0.496985 0.821938
812 1 0.67409 0.573748 0.913576
90 1 0.758645 0.569503 -0.0041274
816 1 0.835871 0.584145 0.917835
835 1 0.755426 0.64297 0.902607
796 1 1.00349 0.562943 0.920045
117 1 0.840083 0.668588 0.00191505
839 1 0.911656 0.664502 0.907052
125 1 0.160744 0.81347 0.987479
98 1 0.0829425 0.730006 1.00064
824 1 0.158733 0.730779 0.908488
820 1 -0.00644837 0.745532 0.916197
102 1 0.254874 0.756327 0.990353
845 1 0.174316 0.826513 0.859396
828 1 0.333349 0.749685 0.916599
847 1 0.267987 0.832224 0.919579
106 1 0.441179 0.734922 0.993697
826 1 0.441093 0.753984 0.825785
851 1 0.42137 0.824254 0.914839
830 1 0.601504 0.742131 0.828098
853 1 0.506185 0.832867 0.845269
110 1 0.600326 0.745589 0.989089
832 1 0.508864 0.749798 0.909683
855 1 0.593684 0.835977 0.917711
141 1 0.844101 0.824158 0.0112658
836 1 0.680253 0.721784 0.922383
840 1 0.831401 0.730272 0.92118
837 1 0.835199 0.661442 0.824641
118 1 0.916013 0.74945 -0.0113113
838 1 0.924114 0.731738 0.819993
843 1 0.0865453 0.833135 0.918932
122 1 0.086402 0.903173 0.00928847
126 1 0.263963 0.920081 -0.0112402
725 1 0.16078 0.000369883 0.859252
848 1 0.174777 0.91371 0.922474
846 1 0.241732 0.905672 0.834931
852 1 0.344383 0.910879 0.913484
129 1 0.340114 0.82042 -0.00200234
850 1 0.424919 0.911761 0.84348
735 1 0.584901 0.00475019 0.933818
856 1 0.512386 0.924125 0.905395
860 1 0.67213 0.918295 0.906833
737 1 0.664997 -0.00470955 0.835519
858 1 0.756351 0.917986 0.828575
138 1 0.748034 0.905535 1.00536
859 1 0.7532 0.824166 0.920829
864 1 0.831951 0.910241 0.945219
121 1 1.01425 0.824637 1.01676
844 1 1.01323 0.919697 0.928038
743 1 0.916197 0.991392 0.914572
863 1 0.915451 0.82605 0.913986
