ITEM: TIMESTEP
2250
ITEM: NUMBER OF ATOMS
864
ITEM: BOX BOUNDS pp pp pp
0.0000000000000000e+00 3.1559999999999999e+01
0.0000000000000000e+00 3.1559999999999999e+01
0.0000000000000000e+00 3.1559999999999999e+01
ITEM: ATOMS id type xs ys zs
3 1 0.0701739 0.999023 0.0705652
145 1 1.00099 0.00513877 0.173525
146 1 0.0685704 0.0874704 0.178169
169 1 1.00198 0.172455 0.169873
2 1 0.0743689 0.0913475 1.00169
5 1 0.15621 0.994038 0.997843
7 1 0.249771 0.00682246 0.0749577
8 1 0.151751 0.0830409 0.0749905
12 1 0.334802 0.0819817 0.0829776
149 1 0.155494 1.0055 0.155739
6 1 0.256817 0.0877855 0.00563925
29 1 0.165893 0.168786 0.000731102
16 1 0.486062 0.0777899 0.0866395
35 1 0.407707 0.167483 0.0888391
11 1 0.41131 0.994903 0.0785998
154 1 0.41662 0.0879443 0.177438
14 1 0.573924 0.0873408 0.00648327
39 1 0.580516 0.169916 0.0888199
15 1 0.592278 -0.00460353 0.0833363
158 1 0.570108 0.0814358 0.157678
20 1 0.661223 0.0826556 0.0947057
43 1 0.740273 0.180075 0.0949752
165 1 0.832191 0.00575363 0.167094
18 1 0.749107 0.10148 0.010833
4 1 0.00573111 0.0829536 0.0825254
23 1 0.917434 0.00170592 0.0815595
24 1 0.833457 0.0836052 0.0807887
47 1 0.927534 0.180789 0.0717336
27 1 0.0733872 0.174839 0.0908732
28 1 0.00887325 0.258023 0.0671005
51 1 0.0818578 0.342255 0.0788896
26 1 0.0945027 0.244751 1.00252
32 1 0.167866 0.247747 0.0861009
31 1 0.243616 0.159515 0.0911114
36 1 0.329543 0.248156 0.0926865
173 1 0.160093 0.157519 0.161392
55 1 0.245418 0.331963 0.0793261
57 1 0.332765 0.331309 1.01149
37 1 0.504215 0.17601 1.00712
178 1 0.421737 0.234238 0.178308
59 1 0.417265 0.329699 0.0818808
38 1 0.582096 0.260265 1.00013
40 1 0.497328 0.246275 0.0940616
182 1 0.5719 0.24128 0.177804
44 1 0.653581 0.254536 0.0940228
48 1 0.827497 0.252797 0.0764741
41 1 0.660357 0.173753 -0.00193898
71 1 0.914386 0.32658 0.0730525
46 1 0.916823 0.253224 0.986017
53 1 0.170064 0.33731 0.998643
50 1 0.0720379 0.423133 0.992219
56 1 0.170676 0.415396 0.07991
54 1 0.236855 0.424849 0.989549
60 1 0.334741 0.416398 0.0826409
81 1 0.336285 0.513913 1.00272
77 1 0.156771 0.50786 -0.00309182
64 1 0.489062 0.413988 0.0742613
83 1 0.412357 0.505761 0.083039
63 1 0.588281 0.33395 0.0775533
68 1 0.659963 0.418242 0.0868851
229 1 0.497424 0.499426 0.165345
67 1 0.752901 0.339518 0.080434
210 1 0.736015 0.42146 0.179161
209 1 0.638634 0.338594 0.181626
213 1 0.829243 0.336712 0.160399
49 1 0.996982 0.334193 0.985973
52 1 0.994444 0.410051 0.0642965
72 1 0.828236 0.41549 0.07569
75 1 0.0703992 0.48857 0.0801395
74 1 0.0843385 0.58171 -0.00156036
80 1 0.16149 0.583118 0.0807068
218 1 0.0773032 0.590708 0.164612
217 1 0.995335 0.494009 0.165785
73 1 1.00282 0.504065 0.983829
79 1 0.252528 0.500821 0.0843127
103 1 0.239324 0.672477 0.0750292
78 1 0.249111 0.58955 0.00391355
105 1 0.345392 0.659302 0.9931
84 1 0.335763 0.592729 0.0782325
88 1 0.501577 0.578248 0.0871719
85 1 0.505893 0.512479 0.997047
82 1 0.419917 0.581827 0.00257152
87 1 0.580226 0.499527 0.0848478
230 1 0.578588 0.589145 0.169561
91 1 0.740029 0.491277 0.0937284
90 1 0.75939 0.573171 0.997051
92 1 0.664446 0.595084 0.0925748
96 1 0.831543 0.578667 0.0742047
233 1 0.652369 0.511752 0.178688
234 1 0.740161 0.587283 0.172311
237 1 0.823357 0.504005 0.179308
95 1 0.927795 0.488552 0.0729017
76 1 1.00892 0.584954 0.0747852
93 1 0.844369 0.495294 1.00185
99 1 0.0798597 0.6647 0.0793607
98 1 0.0855754 0.755472 0.988152
104 1 0.165946 0.755674 0.0754117
101 1 0.157985 0.673712 0.998309
108 1 0.338623 0.746034 0.0829154
106 1 0.420978 0.740408 0.99975
107 1 0.423175 0.657682 0.0880456
112 1 0.494952 0.748869 0.0932035
111 1 0.573953 0.668625 0.0850641
254 1 0.588826 0.747055 0.175737
115 1 0.753764 0.672298 0.0872449
116 1 0.665455 0.73483 0.0793297
120 1 0.840304 0.752259 0.0916424
137 1 0.664321 0.842221 0.996367
261 1 0.840762 0.649466 0.161413
119 1 0.93243 0.665809 0.0948632
100 1 0.00670222 0.747554 0.078449
262 1 0.936438 0.742364 0.170311
123 1 0.0874796 0.829405 0.0837904
128 1 0.166617 0.922392 0.0789205
266 1 0.0793324 0.928191 0.159101
127 1 0.245294 0.834739 0.076386
131 1 0.419745 0.826278 0.0879874
132 1 0.332331 0.910345 0.0805515
274 1 0.412378 0.911803 0.166788
135 1 0.579997 0.82952 0.0926094
136 1 0.503711 0.919732 0.0794343
17 1 0.665448 0.0221868 0.00254997
140 1 0.672219 0.916683 0.0783224
13 1 0.501689 -0.000875933 0.0111078
139 1 0.753224 0.828119 0.0895001
19 1 0.74915 1.00122 0.0893626
282 1 0.760363 0.924903 0.175214
144 1 0.838349 0.921613 0.0831406
124 1 1.00202 0.909832 0.0795284
143 1 0.921713 0.824801 0.0909346
265 1 1.00728 0.839238 0.160763
148 1 -0.00771872 0.0958763 0.25748
152 1 0.166986 0.0680968 0.251591
150 1 0.23475 0.0780455 0.164062
175 1 0.228256 0.174863 0.245938
321 1 0.321046 0.162124 0.333519
151 1 0.241237 0.989711 0.245325
181 1 0.495913 0.161699 0.179567
153 1 0.335259 1.00657 0.160385
156 1 0.318218 0.0715391 0.248406
160 1 0.513416 0.0784943 0.26047
179 1 0.408992 0.157856 0.262694
298 1 0.420808 0.0853067 0.34534
325 1 0.501053 0.166102 0.339486
161 1 0.664359 0.99363 0.161475
157 1 0.491353 1.0042 0.165696
159 1 0.578655 0.992062 0.243723
164 1 0.661054 0.0811162 0.244517
183 1 0.586094 0.160121 0.251935
162 1 0.743261 0.0939598 0.165028
163 1 0.758731 -0.00752019 0.245597
168 1 0.823201 0.0984432 0.24884
187 1 0.753092 0.17714 0.239654
306 1 0.741767 0.0926611 0.328839
166 1 0.932563 0.0896007 0.158827
191 1 0.90822 0.16576 0.252881
167 1 0.916121 0.0305002 0.248823
333 1 0.821859 0.170374 0.328245
171 1 0.0969427 0.152783 0.265729
170 1 0.0683757 0.254945 0.170811
176 1 0.16259 0.252829 0.245968
195 1 0.0802097 0.326235 0.249368
174 1 0.24851 0.248764 0.166313
197 1 0.16093 0.321025 0.161685
199 1 0.246048 0.326294 0.234592
177 1 0.317827 0.157818 0.16562
180 1 0.320639 0.242957 0.25809
322 1 0.424516 0.255795 0.336435
184 1 0.501941 0.243063 0.252265
203 1 0.425852 0.327162 0.255488
207 1 0.556355 0.340661 0.254622
185 1 0.654308 0.168138 0.164994
349 1 0.48257 0.352669 0.344572
326 1 0.568018 0.259175 0.34285
186 1 0.753716 0.257847 0.171215
188 1 0.66758 0.238977 0.246922
353 1 0.664686 0.333761 0.328194
330 1 0.742996 0.250257 0.328711
189 1 0.847105 0.166903 0.156512
192 1 0.832963 0.24881 0.243699
172 1 0.985758 0.267058 0.255734
190 1 0.910028 0.255654 0.156167
194 1 0.0829191 0.409621 0.163921
200 1 0.167814 0.414701 0.240428
196 1 0.00846191 0.422041 0.241423
219 1 0.100112 0.502714 0.242056
338 1 0.0892634 0.419575 0.341807
365 1 0.189404 0.49233 0.328821
201 1 0.341617 0.31685 0.176418
198 1 0.256747 0.406161 0.165372
225 1 0.330473 0.489546 0.165833
342 1 0.264235 0.408164 0.330982
202 1 0.422083 0.399851 0.165885
204 1 0.335214 0.406696 0.248753
346 1 0.41268 0.419601 0.33893
205 1 0.508706 0.329994 0.157686
227 1 0.416796 0.511466 0.252572
206 1 0.570964 0.425214 0.168489
208 1 0.488401 0.43438 0.251927
350 1 0.565214 0.411061 0.339403
373 1 0.498956 0.500046 0.336874
211 1 0.733071 0.334255 0.248949
212 1 0.639241 0.414852 0.258488
216 1 0.829734 0.413349 0.242955
214 1 0.904562 0.415884 0.167528
193 1 0.989947 0.334842 0.147899
215 1 0.908811 0.346141 0.261878
358 1 0.930071 0.426763 0.331884
221 1 0.160129 0.498781 0.149651
220 1 0.00726517 0.556222 0.254452
224 1 0.184346 0.578393 0.237852
362 1 0.101085 0.571869 0.327971
249 1 0.325861 0.67394 0.164574
223 1 0.250445 0.490493 0.231311
222 1 0.26355 0.587489 0.157944
245 1 0.161952 0.657088 0.159427
366 1 0.247713 0.587849 0.339038
247 1 0.257327 0.657579 0.243087
226 1 0.419239 0.587794 0.17644
228 1 0.336469 0.574558 0.24691
251 1 0.416712 0.669287 0.255712
369 1 0.330068 0.497039 0.325357
370 1 0.4123 0.586686 0.328155
231 1 0.579297 0.501563 0.267725
232 1 0.495409 0.585314 0.249146
374 1 0.578332 0.593664 0.335986
236 1 0.655665 0.594512 0.257804
235 1 0.748333 0.499069 0.257087
377 1 0.657848 0.50816 0.332075
378 1 0.751359 0.586103 0.337282
239 1 0.915161 0.499196 0.249075
241 1 0.99385 0.651086 0.189923
240 1 0.83226 0.578433 0.261399
238 1 0.919254 0.568341 0.1541
382 1 0.921775 0.566163 0.33966
242 1 0.0843794 0.749386 0.169083
243 1 0.088635 0.669304 0.239378
244 1 0.0050601 0.744624 0.252503
246 1 0.242493 0.75227 0.159274
248 1 0.161377 0.75581 0.240484
269 1 0.152298 0.850041 0.168002
271 1 0.248527 0.839888 0.240565
250 1 0.413929 0.750307 0.176206
273 1 0.334338 0.825248 0.169595
252 1 0.336073 0.740858 0.251312
393 1 0.331658 0.660925 0.33544
253 1 0.496692 0.666369 0.174239
257 1 0.663703 0.67892 0.171327
255 1 0.581071 0.664307 0.247871
256 1 0.504488 0.748613 0.257415
279 1 0.593762 0.828878 0.250418
260 1 0.675121 0.752785 0.253994
258 1 0.748267 0.759983 0.166926
259 1 0.765921 0.667072 0.255723
402 1 0.757603 0.744423 0.336538
405 1 0.838215 0.653537 0.347963
429 1 0.848226 0.830408 0.32502
263 1 0.902905 0.662036 0.254751
264 1 0.839596 0.747692 0.228569
406 1 0.909437 0.741016 0.330439
147 1 0.0744918 0.000462467 0.253484
267 1 0.0813157 0.846381 0.248471
268 1 0.00374227 0.915681 0.244298
293 1 0.164656 0.992657 0.326057
270 1 0.245729 0.908957 0.154192
272 1 0.162167 0.922393 0.245904
276 1 0.326533 0.92225 0.239027
155 1 0.415022 -0.00330413 0.24856
297 1 0.326685 0.992125 0.326399
275 1 0.412419 0.824935 0.254238
281 1 0.663579 0.825758 0.151829
277 1 0.485543 0.829495 0.166898
278 1 0.581282 0.913252 0.168683
280 1 0.501512 0.909864 0.241073
284 1 0.665033 0.904443 0.253325
283 1 0.759036 0.838591 0.243927
288 1 0.846369 0.925929 0.240379
426 1 0.776659 0.919141 0.32493
285 1 0.84326 0.834161 0.164815
286 1 0.92728 0.926677 0.163898
287 1 0.926353 0.828823 0.238771
290 1 0.0895589 0.0787995 0.345795
317 1 0.181516 0.148769 0.337525
315 1 0.0961137 0.162027 0.425849
292 1 0.00375481 0.0774207 0.413131
434 1 0.0899293 0.0774693 0.508794
294 1 0.258247 0.0773142 0.356904
296 1 0.16881 0.0805819 0.431699
461 1 0.170799 0.168632 0.506886
437 1 0.161225 0.990377 0.512343
438 1 0.262073 0.0881595 0.506319
300 1 0.347794 0.0633166 0.4188
469 1 0.502968 0.173317 0.5073
304 1 0.508142 0.0742799 0.41097
299 1 0.425104 0.988655 0.403986
442 1 0.416435 0.0791779 0.499254
329 1 0.661443 0.178006 0.33721
302 1 0.589349 0.0631743 0.332317
327 1 0.582307 0.171763 0.415503
303 1 0.57838 0.989885 0.419147
308 1 0.656261 0.0851453 0.420905
312 1 0.827859 0.0984813 0.411824
331 1 0.742527 0.168876 0.413463
449 1 0.657249 -0.00585616 0.500419
313 1 0.00614563 0.17863 0.347192
310 1 0.912728 0.0831559 0.338091
335 1 0.920526 0.162711 0.423496
454 1 0.923411 0.0820106 0.490092
314 1 0.0833093 0.25481 0.324042
318 1 0.240588 0.254896 0.336898
319 1 0.248518 0.173482 0.428373
320 1 0.156951 0.249111 0.402462
345 1 0.334904 0.327921 0.33859
323 1 0.419703 0.165614 0.424563
324 1 0.339805 0.24727 0.414098
465 1 0.336333 0.160809 0.499938
347 1 0.399292 0.335909 0.435279
489 1 0.334406 0.33482 0.518318
328 1 0.498998 0.248886 0.426897
332 1 0.661122 0.254375 0.409524
336 1 0.824387 0.248062 0.412198
334 1 0.905206 0.242906 0.331171
316 1 0.0163708 0.253032 0.426344
478 1 0.928949 0.263947 0.503551
339 1 0.087177 0.340199 0.420259
341 1 0.166863 0.342596 0.315649
343 1 0.257086 0.330591 0.4278
344 1 0.174755 0.408786 0.41931
485 1 0.182189 0.330214 0.501945
348 1 0.33351 0.418722 0.416612
352 1 0.476662 0.423547 0.432008
351 1 0.575109 0.34774 0.421643
494 1 0.587002 0.421999 0.498918
354 1 0.749438 0.422253 0.334465
355 1 0.743311 0.330327 0.42651
357 1 0.820993 0.331997 0.332025
356 1 0.661811 0.412024 0.410949
360 1 0.826277 0.417851 0.412456
337 1 -0.000244549 0.342671 0.341875
340 1 0.00548042 0.419307 0.420547
359 1 0.912135 0.340474 0.408665
363 1 0.0886851 0.48807 0.428332
385 1 0.0102298 0.659156 0.331023
368 1 0.165427 0.572866 0.429331
389 1 0.176271 0.674877 0.313753
387 1 0.103506 0.659491 0.416852
367 1 0.246935 0.488225 0.415122
391 1 0.246246 0.676962 0.404979
371 1 0.411612 0.508417 0.420409
372 1 0.326511 0.585395 0.414099
514 1 0.423381 0.58416 0.497274
376 1 0.5009 0.577593 0.40938
517 1 0.496911 0.498391 0.504035
375 1 0.584426 0.502823 0.413062
399 1 0.582364 0.671244 0.40839
379 1 0.749099 0.504808 0.421097
380 1 0.675019 0.590597 0.412218
521 1 0.672983 0.495257 0.503283
522 1 0.754395 0.595448 0.521823
381 1 0.83492 0.506567 0.338335
361 1 0.0169173 0.496477 0.341308
383 1 0.914322 0.48337 0.425994
364 1 0.00892493 0.579438 0.417034
384 1 0.843061 0.571244 0.427447
386 1 0.0940488 0.74227 0.32255
409 1 0.988324 0.84558 0.33109
388 1 0.00473449 0.736842 0.403236
411 1 0.0649859 0.820826 0.414751
553 1 1 0.827342 0.504048
413 1 0.156122 0.830024 0.334195
390 1 0.251461 0.756674 0.321288
392 1 0.154487 0.753964 0.416641
415 1 0.246751 0.831429 0.421861
557 1 0.159309 0.836295 0.493204
394 1 0.422081 0.751744 0.336728
397 1 0.498868 0.669772 0.337402
395 1 0.409037 0.661919 0.409578
396 1 0.333601 0.749716 0.417116
419 1 0.407738 0.843288 0.408176
545 1 0.658281 0.667178 0.495258
398 1 0.582666 0.764479 0.339368
400 1 0.499875 0.770434 0.416005
404 1 0.668555 0.75908 0.419556
541 1 0.49172 0.677919 0.485844
401 1 0.677026 0.669735 0.333801
403 1 0.759989 0.6623 0.433866
427 1 0.766466 0.845136 0.415256
546 1 0.75401 0.753751 0.49436
407 1 0.926141 0.653603 0.426241
408 1 0.841772 0.740947 0.418856
431 1 0.917247 0.836464 0.41556
549 1 0.844452 0.657455 0.510155
550 1 0.922914 0.75115 0.496168
289 1 -0.00896634 0.998364 0.32809
291 1 0.0924067 -0.0111826 0.430469
410 1 0.0735207 0.91044 0.337331
412 1 0.987564 0.92273 0.423975
295 1 0.243867 -0.00554278 0.421321
414 1 0.247436 0.900121 0.339603
416 1 0.166699 0.916577 0.427754
441 1 0.3273 0.991108 0.503948
417 1 0.330229 0.832521 0.340099
418 1 0.411088 0.914115 0.323362
420 1 0.332818 0.926193 0.409997
424 1 0.513246 0.902594 0.418237
301 1 0.494547 0.989368 0.325685
422 1 0.582847 0.9136 0.32965
425 1 0.681156 0.826433 0.322586
421 1 0.496756 0.833162 0.320993
423 1 0.604589 0.844656 0.413638
309 1 0.827897 0.0192844 0.32575
305 1 0.686384 0.995549 0.325975
307 1 0.761328 0.000692696 0.402774
428 1 0.683367 0.92891 0.415651
430 1 0.909804 0.924633 0.324394
311 1 0.915852 0.00468964 0.410477
432 1 0.840304 0.925424 0.420831
433 1 -0.00226941 0.00720738 0.496793
574 1 0.908267 0.914427 0.497338
457 1 0.00414764 0.166632 0.499523
436 1 0.00738827 0.0870559 0.577223
578 1 0.0772179 0.0775019 0.671269
440 1 0.163835 0.0815409 0.588317
444 1 0.337021 0.0705792 0.589428
582 1 0.247669 0.068743 0.669194
446 1 0.573115 0.0747909 0.497562
448 1 0.501154 0.0775902 0.585732
452 1 0.661975 0.0806465 0.568004
450 1 0.744535 0.0872535 0.488718
473 1 0.654947 0.168795 0.498286
617 1 0.662127 0.162043 0.663823
475 1 0.739459 0.157393 0.574364
477 1 0.827446 0.167189 0.50236
456 1 0.824884 0.0803773 0.581917
479 1 0.92703 0.157294 0.568698
598 1 0.908949 0.0863044 0.665263
621 1 0.830328 0.1762 0.673698
459 1 0.0901439 0.160775 0.595221
458 1 0.0916213 0.254594 0.506828
460 1 0.0161451 0.247083 0.587062
629 1 0.162628 0.338027 0.67064
462 1 0.25687 0.247376 0.507863
463 1 0.252003 0.167834 0.594435
464 1 0.176614 0.249664 0.592627
468 1 0.338602 0.233542 0.58688
605 1 0.168742 0.165929 0.673681
606 1 0.263204 0.243059 0.673063
633 1 0.330747 0.330648 0.670301
466 1 0.410969 0.249527 0.50418
467 1 0.418799 0.162848 0.587996
610 1 0.412216 0.234201 0.666964
472 1 0.483802 0.257278 0.586455
470 1 0.584707 0.253581 0.501282
471 1 0.584491 0.161466 0.587803
614 1 0.587991 0.260062 0.658601
476 1 0.670539 0.251101 0.584776
474 1 0.743486 0.245124 0.493338
480 1 0.833576 0.242314 0.574097
618 1 0.736571 0.252373 0.676807
622 1 0.912898 0.230934 0.658425
482 1 0.098116 0.418512 0.506503
505 1 1.01058 0.495381 0.500673
483 1 0.0883312 0.334507 0.588477
488 1 0.17123 0.420584 0.581523
507 1 0.0924439 0.500894 0.587612
509 1 0.167052 0.505279 0.503912
487 1 0.252243 0.322913 0.587176
486 1 0.257553 0.419896 0.493324
630 1 0.255616 0.415438 0.679407
490 1 0.405655 0.418269 0.509582
513 1 0.333214 0.50736 0.504864
491 1 0.419731 0.340939 0.592588
492 1 0.325781 0.42045 0.600456
496 1 0.500471 0.416438 0.576823
637 1 0.510144 0.329211 0.672815
493 1 0.495348 0.333834 0.505547
495 1 0.579672 0.332355 0.580736
519 1 0.583686 0.502054 0.585907
497 1 0.662619 0.340372 0.504315
499 1 0.744162 0.334634 0.590597
500 1 0.660678 0.414989 0.587976
498 1 0.75223 0.414161 0.498484
504 1 0.837553 0.406402 0.576472
642 1 0.761556 0.410135 0.666334
501 1 0.829556 0.343514 0.492184
481 1 0.0157942 0.341451 0.505595
503 1 0.923187 0.328021 0.594508
484 1 0.0187195 0.420639 0.58863
502 1 0.922102 0.416099 0.501139
533 1 0.170972 0.664705 0.504382
506 1 0.0843631 0.57923 0.502482
650 1 0.0819188 0.583296 0.656575
512 1 0.173483 0.585824 0.5853
508 1 -0.00320381 0.582358 0.574877
529 1 0.000177821 0.664641 0.504758
531 1 0.082197 0.665205 0.586937
510 1 0.260545 0.588813 0.498259
511 1 0.248721 0.50002 0.578745
516 1 0.332031 0.581181 0.582427
535 1 0.247675 0.67513 0.584225
515 1 0.416071 0.503388 0.584397
658 1 0.418529 0.588566 0.66568
681 1 0.336368 0.65963 0.670657
537 1 0.333243 0.672558 0.499115
539 1 0.409692 0.660898 0.578099
518 1 0.579865 0.593488 0.500827
520 1 0.503666 0.585227 0.584673
524 1 0.663484 0.587602 0.573933
662 1 0.576964 0.578799 0.672658
543 1 0.582467 0.665967 0.586655
669 1 0.844147 0.491814 0.675933
523 1 0.756817 0.491746 0.586732
525 1 0.82854 0.483994 0.504661
528 1 0.835897 0.580596 0.591547
665 1 0.667656 0.505614 0.669648
527 1 0.921214 0.490463 0.588257
526 1 0.913459 0.575333 0.515135
551 1 0.921861 0.673069 0.585457
673 1 0.000177177 0.665812 0.667712
693 1 0.84796 0.656398 0.670329
670 1 0.93377 0.569319 0.657405
530 1 0.0730035 0.737115 0.485205
555 1 0.0844215 0.822376 0.57672
674 1 0.0865654 0.751714 0.665615
536 1 0.163875 0.749405 0.57447
534 1 0.239636 0.753258 0.481805
705 1 0.343388 0.828731 0.65982
559 1 0.247752 0.826327 0.578059
701 1 0.172298 0.82116 0.655952
678 1 0.258106 0.752238 0.667777
538 1 0.420184 0.752706 0.510728
561 1 0.336468 0.831171 0.494677
565 1 0.50575 0.834945 0.510462
540 1 0.327259 0.748058 0.571252
563 1 0.426477 0.843918 0.583354
542 1 0.582549 0.756475 0.489892
544 1 0.504534 0.740771 0.580056
567 1 0.592834 0.836565 0.569056
548 1 0.662509 0.747452 0.566312
686 1 0.579514 0.743389 0.675722
569 1 0.680134 0.846568 0.485472
547 1 0.758431 0.682367 0.589629
571 1 0.743343 0.822209 0.585329
690 1 0.757051 0.744178 0.676103
573 1 0.842006 0.830166 0.504742
532 1 0.00515953 0.749936 0.582231
552 1 0.835126 0.760158 0.585125
694 1 0.91519 0.750473 0.659231
575 1 0.921548 0.835142 0.582645
717 1 0.829582 0.842543 0.675654
697 1 0.00658986 0.837502 0.66301
435 1 0.0768373 0.995904 0.578642
554 1 0.0687029 0.913113 0.503487
560 1 0.166 0.909973 0.579742
698 1 0.0855842 0.918898 0.667556
439 1 0.247735 1.00138 0.582467
558 1 0.256754 0.913077 0.503427
564 1 0.334063 0.911962 0.587095
581 1 0.157916 0.00217874 0.668218
585 1 0.323138 -0.0107776 0.665373
445 1 0.497302 1.00103 0.500429
443 1 0.415453 -0.0101991 0.575477
562 1 0.431123 0.910964 0.489064
706 1 0.422625 0.913225 0.670869
568 1 0.500928 0.927153 0.580508
709 1 0.512218 0.831813 0.659434
589 1 0.506566 0.994609 0.667043
447 1 0.584456 0.00841149 0.582543
566 1 0.578511 0.921387 0.50239
713 1 0.660213 0.835734 0.66736
451 1 0.750094 -0.000413581 0.579428
570 1 0.75999 0.929683 0.495378
572 1 0.663674 0.911351 0.583039
714 1 0.739147 0.917359 0.664207
453 1 0.835118 0.00437606 0.499324
455 1 0.915499 0.0151904 0.578909
576 1 0.822232 0.910714 0.580703
556 1 0.981727 0.919422 0.57908
577 1 0.988744 1.00329 0.654896
718 1 0.907785 0.92134 0.65957
597 1 0.817347 0.985724 0.673341
584 1 0.169334 0.0779376 0.751657
603 1 0.0846409 0.161112 0.741068
601 1 -0.00690806 0.153333 0.66423
607 1 0.249114 0.164406 0.750861
583 1 0.250143 0.995622 0.747096
726 1 0.245816 0.0764832 0.831115
586 1 0.42508 0.0876834 0.669492
588 1 0.336715 0.0865013 0.758036
592 1 0.501291 0.0957597 0.757547
611 1 0.40866 0.166252 0.750489
587 1 0.416204 0.00631739 0.754724
729 1 0.335098 0.997281 0.841665
590 1 0.578626 0.0838076 0.671663
613 1 0.499869 0.172919 0.673809
615 1 0.587616 0.180376 0.736416
734 1 0.571775 0.0814565 0.838181
596 1 0.661637 0.0861363 0.749511
594 1 0.753005 0.0853438 0.66353
765 1 0.827324 0.165047 0.835612
738 1 0.750337 0.0823938 0.828406
741 1 0.821029 1.00233 0.822085
580 1 1.0008 0.0814869 0.745504
600 1 0.836991 0.0785162 0.746518
742 1 0.919498 0.0816132 0.834651
623 1 0.912924 0.157465 0.760893
602 1 0.0879957 0.262564 0.675177
625 1 -0.00128276 0.325501 0.67612
604 1 0.992828 0.234786 0.757658
627 1 0.0811603 0.330146 0.756904
769 1 1.00105 0.322339 0.831991
608 1 0.162216 0.244388 0.753529
631 1 0.246677 0.342564 0.765795
612 1 0.329407 0.241078 0.761844
773 1 0.164917 0.337848 0.845446
609 1 0.329609 0.155942 0.6766
754 1 0.413094 0.236688 0.832171
616 1 0.500772 0.254376 0.758732
620 1 0.661286 0.254888 0.753277
639 1 0.581197 0.330929 0.761916
757 1 0.500761 0.174884 0.834399
619 1 0.74582 0.160251 0.750048
762 1 0.735663 0.2584 0.837846
624 1 0.821111 0.241095 0.751866
766 1 0.90075 0.243975 0.824541
789 1 0.826584 0.330542 0.830854
647 1 0.913586 0.326642 0.754286
745 1 0.0105441 0.158596 0.835505
649 1 0.0141539 0.489898 0.667838
626 1 0.0857482 0.409118 0.678389
651 1 0.10263 0.509475 0.739679
632 1 0.167042 0.420329 0.759748
628 1 1.00627 0.408431 0.751086
770 1 0.0746268 0.41611 0.842201
653 1 0.177589 0.492073 0.671492
657 1 0.324135 0.500803 0.670838
634 1 0.416174 0.423993 0.669417
635 1 0.425445 0.332738 0.744981
636 1 0.339637 0.41662 0.748628
638 1 0.576209 0.425196 0.684239
641 1 0.660035 0.346785 0.677013
640 1 0.499757 0.409015 0.751739
663 1 0.586725 0.502128 0.753501
781 1 0.481098 0.329142 0.836862
782 1 0.575283 0.416639 0.837156
805 1 0.502789 0.49733 0.835984
643 1 0.738066 0.335877 0.758551
644 1 0.664784 0.423773 0.755634
786 1 0.743931 0.411351 0.836021
645 1 0.844504 0.325067 0.665962
793 1 0.0169146 0.510396 0.824565
648 1 0.841592 0.410749 0.753123
646 1 0.925037 0.412067 0.676573
671 1 0.927604 0.498739 0.749514
790 1 0.92418 0.420459 0.823181
652 1 -0.00755029 0.581235 0.74688
675 1 0.0782866 0.669711 0.737184
794 1 0.0999515 0.590091 0.817699
656 1 0.183484 0.58854 0.749627
677 1 0.17133 0.675241 0.657982
654 1 0.255375 0.585504 0.665851
655 1 0.254892 0.497363 0.754698
660 1 0.346266 0.574393 0.749046
679 1 0.263237 0.676706 0.748085
661 1 0.49728 0.499979 0.668981
659 1 0.41916 0.488981 0.754967
683 1 0.412422 0.670939 0.754025
685 1 0.500199 0.658793 0.670406
664 1 0.493147 0.58128 0.742612
668 1 0.675979 0.575248 0.75321
806 1 0.584981 0.591236 0.833585
666 1 0.75248 0.585115 0.657422
813 1 0.83059 0.492792 0.830282
667 1 0.750289 0.508148 0.748726
810 1 0.764212 0.587783 0.833942
809 1 0.662905 0.506718 0.834952
672 1 0.835286 0.575555 0.744096
814 1 0.910785 0.575787 0.825966
676 1 1.00607 0.757859 0.741288
699 1 0.0887533 0.832285 0.745415
680 1 0.171622 0.745086 0.753949
684 1 0.343525 0.756264 0.750111
682 1 0.418282 0.744221 0.649751
688 1 0.487621 0.754156 0.745464
707 1 0.421127 0.835877 0.752123
829 1 0.499975 0.667116 0.824074
687 1 0.591837 0.664629 0.746944
689 1 0.667625 0.660479 0.668528
830 1 0.584432 0.744096 0.829397
692 1 0.66544 0.745649 0.750126
691 1 0.750687 0.657296 0.743866
696 1 0.846552 0.758213 0.750762
834 1 0.75895 0.736467 0.816984
695 1 0.927271 0.671106 0.754341
719 1 0.924247 0.845069 0.744187
837 1 0.84508 0.665979 0.817156
838 1 0.923381 0.749312 0.837206
579 1 0.0812149 1.00232 0.750067
704 1 0.173882 0.920823 0.754746
700 1 0.99269 0.922878 0.743839
703 1 0.257317 0.837627 0.742038
702 1 0.247991 0.91658 0.668861
708 1 0.344888 0.908604 0.741905
712 1 0.509478 0.911209 0.752635
853 1 0.514897 0.828082 0.842029
850 1 0.420844 0.922987 0.835731
710 1 0.581694 0.916968 0.658358
711 1 0.591078 0.822724 0.752764
591 1 0.583615 0.99937 0.74859
733 1 0.506704 -0.00908936 0.832735
716 1 0.665653 0.912073 0.740931
737 1 0.675891 -0.00124325 0.83613
715 1 0.748744 0.825613 0.750286
861 1 0.838288 0.826172 0.837533
593 1 0.668186 0.00846989 0.664861
595 1 0.739814 1.00914 0.747791
858 1 0.744868 0.919314 0.823007
599 1 0.916464 1.00047 0.747918
720 1 0.837972 0.915814 0.758163
862 1 0.91304 0.923905 0.833079
722 1 0.0858666 0.0894503 0.826098
728 1 0.162414 0.0784444 0.928228
725 1 0.169848 -0.00211858 0.838622
9 1 0.334693 0.997273 0.00239868
749 1 0.164834 0.1593 0.831436
751 1 0.244598 0.167167 0.914625
753 1 0.328635 0.157375 0.847467
727 1 0.246507 0.00325397 0.917294
730 1 0.412653 0.0959949 0.841237
732 1 0.334305 0.0775048 0.934638
10 1 0.420743 0.0861582 -0.00184686
33 1 0.332963 0.164857 0.0196014
736 1 0.498469 0.091119 0.916822
740 1 0.668136 0.0762749 0.908714
759 1 0.588646 0.160207 0.915511
761 1 0.665132 0.169533 0.829451
735 1 0.578205 0.00665857 0.919035
21 1 0.831851 0.997846 0.00948176
763 1 0.742325 0.155722 0.915148
739 1 0.749541 0.00238044 0.916606
724 1 0.99743 0.0740401 0.92199
744 1 0.830823 0.0843273 0.921705
22 1 0.928768 0.0803005 0.00930985
743 1 0.902295 1.00884 0.919712
746 1 0.0887579 0.25194 0.83957
25 1 0.00375508 0.166931 0.987987
747 1 0.0919247 0.173706 0.91187
748 1 0.990526 0.244509 0.903158
771 1 0.0810028 0.33462 0.912577
30 1 0.246556 0.252488 0.00248383
752 1 0.168749 0.254717 0.920385
750 1 0.247587 0.256431 0.842035
777 1 0.331235 0.324685 0.829565
755 1 0.419215 0.165756 0.925401
34 1 0.415646 0.255719 0.00222643
756 1 0.325169 0.244271 0.912352
779 1 0.398521 0.329103 0.916443
758 1 0.583759 0.253786 0.833806
760 1 0.497576 0.24894 0.925355
764 1 0.670176 0.252465 0.920988
783 1 0.584306 0.341919 0.923472
785 1 0.657648 0.348322 0.835156
45 1 0.839464 0.168439 0.00761147
42 1 0.735554 0.249432 0.00571163
69 1 0.830759 0.320369 0.997084
787 1 0.739529 0.3426 0.92249
768 1 0.813831 0.24766 0.908111
767 1 0.918091 0.160989 0.914982
791 1 0.912924 0.332068 0.906145
776 1 0.157613 0.430616 0.908874
795 1 0.076868 0.515304 0.914865
774 1 0.259026 0.420471 0.832483
801 1 0.341989 0.507542 0.835562
775 1 0.252295 0.344093 0.917452
780 1 0.322761 0.431222 0.925473
799 1 0.250445 0.518437 0.902177
58 1 0.411244 0.414647 0.989584
61 1 0.500779 0.339014 1.00368
778 1 0.423392 0.426187 0.842541
784 1 0.489047 0.408709 0.918104
803 1 0.420649 0.509657 0.927152
62 1 0.584414 0.424295 0.00881496
807 1 0.578174 0.501106 0.912477
66 1 0.746995 0.424047 0.999107
65 1 0.667413 0.345251 0.00501994
788 1 0.657553 0.424699 0.920933
792 1 0.837764 0.41425 0.920116
70 1 0.914138 0.40801 0.994397
772 1 0.992062 0.426502 0.90875
815 1 0.910306 0.495974 0.904437
800 1 0.173045 0.582424 0.916688
796 1 0.991791 0.579271 0.899923
817 1 1.01541 0.655243 0.830272
797 1 0.155644 0.506172 0.835425
825 1 0.334131 0.663793 0.841654
798 1 0.257014 0.585282 0.829041
802 1 0.418899 0.576464 0.821209
804 1 0.338691 0.581496 0.914964
808 1 0.502913 0.580766 0.904214
827 1 0.421492 0.657585 0.912125
86 1 0.581903 0.590928 1.00476
831 1 0.576888 0.668213 0.916366
89 1 0.672451 0.502117 1.00146
113 1 0.681132 0.661847 1.00257
811 1 0.75054 0.493789 0.90728
812 1 0.665129 0.585736 0.914251
94 1 0.920649 0.581152 0.0070528
816 1 0.837754 0.585467 0.914564
819 1 0.0967624 0.653301 0.913328
97 1 0.00378733 0.675737 0.990247
818 1 0.0862135 0.738672 0.831422
821 1 0.182668 0.663778 0.827025
824 1 0.177734 0.741789 0.908999
845 1 0.176582 0.823629 0.842268
843 1 0.0687672 0.838377 0.902071
823 1 0.249835 0.662198 0.917546
102 1 0.245197 0.751805 0.981952
822 1 0.258482 0.754158 0.833055
828 1 0.336775 0.757111 0.91989
109 1 0.496828 0.675014 1.01006
133 1 0.511361 0.841488 0.998984
826 1 0.425731 0.748776 0.836539
849 1 0.349475 0.834587 0.837702
851 1 0.429345 0.828959 0.923266
832 1 0.500249 0.746788 0.914758
833 1 0.677369 0.669413 0.827149
110 1 0.590308 0.76113 0.00892562
855 1 0.589871 0.831859 0.915256
836 1 0.662326 0.741154 0.917558
117 1 0.838051 0.669793 0.00991974
835 1 0.750901 0.664616 0.915969
114 1 0.741599 0.756426 0.00861154
840 1 0.825424 0.745379 0.925187
118 1 0.921817 0.754437 1.00616
121 1 0.00164071 0.828509 0.000303625
839 1 0.916933 0.669986 0.929286
820 1 0.00695842 0.749336 0.915946
841 1 0.988873 0.840508 0.824116
842 1 0.0820732 0.914925 0.818158
122 1 0.0769828 0.917451 0.99586
723 1 0.0816696 0.992187 0.912436
848 1 0.170813 0.911013 0.901139
125 1 0.162802 0.841361 0.984652
129 1 0.33271 0.833068 1.00756
846 1 0.257429 0.918102 0.834964
847 1 0.265656 0.842475 0.914846
126 1 0.253761 0.931522 0.997332
130 1 0.413091 0.904537 0.00425258
731 1 0.410438 -0.00671918 0.93052
852 1 0.349199 0.912978 0.921755
856 1 0.496212 0.932238 0.924641
854 1 0.597182 0.91958 0.835265
857 1 0.67001 0.828524 0.831827
134 1 0.585779 0.92742 0.989592
138 1 0.741385 0.925096 -0.000564285
859 1 0.746561 0.838565 0.910515
860 1 0.673882 0.926007 0.91456
864 1 0.823872 0.917225 0.921828
1 1 0.987083 0.992271 0.992512
141 1 0.839649 0.829859 0.000223958
863 1 0.925516 0.823527 0.929166
142 1 0.918759 0.908268 0.991553
721 1 0.00835912 0.999602 0.830199
844 1 0.994828 0.921583 0.911869
