ITEM: TIMESTEP
1500
ITEM: NUMBER OF ATOMS
864
ITEM: BOX BOUNDS pp pp pp
0.0000000000000000e+00 3.1559999999999999e+01
0.0000000000000000e+00 3.1559999999999999e+01
0.0000000000000000e+00 3.1559999999999999e+01
ITEM: ATOMS id type xs ys zs
8 1 0.173744 0.0846923 0.076406
27 1 0.084996 0.155682 0.0886962
581 1 0.155717 0.480473 0.334191
213 1 0.827677 0.333983 0.346098
12 1 0.320765 0.0786847 0.0900962
222 1 0.246761 0.0735062 0.490593
78 1 0.237169 0.0781774 0.162387
101 1 0.172353 0.161798 0.163851
16 1 0.495569 0.08031 0.0897751
521 1 0.669154 0.487221 0.134792
507 1 0.0793897 0.477872 0.239909
105 1 0.318534 0.164157 0.171894
85 1 0.502156 0.0025832 0.16405
86 1 0.591771 0.0878397 0.173001
579 1 0.0843582 0.496301 0.41279
583 1 0.247279 0.490226 0.402123
270 1 0.250658 0.419463 0.485339
216 1 0.832521 0.427327 0.436659
20 1 0.679786 0.0916733 0.0916892
43 1 0.752455 0.169491 0.0855491
509 1 0.168798 0.48856 0.164484
4 1 0.991118 0.0868093 0.0900006
53 1 0.162791 0.334402 0.00027339
29 1 0.156764 0.165545 0.0148329
24 1 0.827347 0.0895216 0.0847171
209 1 0.662024 0.323788 0.33398
22 1 0.917684 0.0788107 0.00087861
28 1 0.00676772 0.236022 0.0913561
51 1 0.0780004 0.327009 0.0807652
98 1 0.0907134 0.232156 0.18157
121 1 0.984493 0.335769 0.190331
31 1 0.253961 0.157647 0.0753712
32 1 0.161016 0.261201 0.0848588
36 1 0.337404 0.241242 0.0766111
55 1 0.248394 0.325063 0.0736154
225 1 0.334535 0.00321107 0.491594
102 1 0.253496 0.257345 0.165106
129 1 0.343309 0.313603 0.17389
35 1 0.40775 0.154355 0.0899494
210 1 0.756252 0.422923 0.354283
59 1 0.416607 0.330828 0.094321
109 1 0.503465 0.160962 0.168655
196 1 0.00123587 0.425403 0.420982
39 1 0.58309 0.167739 0.0858378
40 1 0.487159 0.232455 0.0855918
63 1 0.591854 0.324077 0.0881481
110 1 0.596823 0.245482 0.174172
133 1 0.519253 0.327765 0.168554
44 1 0.665988 0.240477 0.0869707
48 1 0.859156 0.256047 0.0757793
67 1 0.760136 0.346355 0.0870098
211 1 0.762479 0.323789 0.435652
47 1 0.90791 0.164154 0.0776714
117 1 0.830406 0.162038 0.173582
519 1 0.587768 0.496033 0.247426
52 1 0.998888 0.410734 0.0682733
56 1 0.174562 0.410944 0.0711642
15 1 0.579179 0.00882412 0.08616
122 1 0.0787177 0.421569 0.14561
125 1 0.170654 0.342886 0.16197
591 1 0.591924 0.492701 0.419491
60 1 0.339779 0.414452 0.0806334
274 1 0.407819 0.420075 0.492543
204 1 0.331893 0.400526 0.406645
130 1 0.425489 0.425086 0.167775
149 1 0.146065 0.00279858 0.327083
64 1 0.493443 0.421848 0.081297
68 1 0.656839 0.405982 0.0702345
134 1 0.578193 0.425728 0.172922
17 1 0.675268 0.00820557 0.00161947
138 1 0.755903 0.419862 0.168454
5 1 0.163827 0.00782659 0.0109922
71 1 0.944327 0.326797 0.0879273
72 1 0.847761 0.416128 0.0778229
141 1 0.858765 0.340756 0.170715
253 1 0.501364 0.162163 0.496804
74 1 0.0855327 0.0959816 0.176822
76 1 0.00166988 0.0883609 0.253747
80 1 0.157434 0.0820992 0.272855
99 1 0.0930597 0.161517 0.261519
146 1 0.0690063 0.0774999 0.350212
84 1 0.340686 0.0997862 0.255832
103 1 0.24584 0.159762 0.238467
150 1 0.246367 0.0738625 0.333547
447 1 0.572343 0.495114 0.0734978
82 1 0.416163 0.0812453 0.17856
88 1 0.500881 0.0922592 0.258173
273 1 0.325749 0.344119 0.497592
41 1 0.65984 0.160295 0.00407977
30 1 0.25195 0.246773 0.0058045
92 1 0.674077 0.0838033 0.249034
158 1 0.599578 0.0795789 0.334431
185 1 0.681473 0.152556 0.346318
58 1 0.420416 0.416515 0.00738424
90 1 0.762512 0.0620671 0.170865
96 1 0.844927 0.077321 0.256267
57 1 0.341087 0.332538 0.00575271
94 1 0.918965 0.0899186 0.166915
245 1 0.17662 0.159661 0.493922
97 1 0.996294 0.162765 0.177914
100 1 8.51887e-05 0.248731 0.253892
104 1 0.173449 0.255517 0.245109
127 1 0.255024 0.33829 0.236208
106 1 0.41653 0.237313 0.163128
107 1 0.417876 0.168339 0.245961
108 1 0.324763 0.252186 0.262494
131 1 0.421514 0.330784 0.246502
177 1 0.336207 0.180867 0.333965
205 1 0.506672 0.325249 0.328654
111 1 0.598705 0.175571 0.266108
112 1 0.497928 0.239908 0.253233
113 1 0.682656 0.172901 0.190348
114 1 0.782359 0.25988 0.165474
115 1 0.758754 0.165904 0.269925
116 1 0.69407 0.261544 0.246875
137 1 0.672057 0.331956 0.157611
118 1 0.92008 0.240986 0.171671
119 1 0.915743 0.174617 0.259166
120 1 0.830935 0.250557 0.257162
123 1 0.0919395 0.335709 0.249895
124 1 0.0013315 0.421941 0.256995
193 1 0.999662 0.325861 0.327896
194 1 0.077188 0.409408 0.332557
198 1 0.250978 0.417206 0.329814
126 1 0.256071 0.4256 0.16415
128 1 0.177839 0.421256 0.24555
132 1 0.328113 0.419244 0.238877
34 1 0.412329 0.247565 0.00702633
42 1 0.762709 0.260432 0.00817495
202 1 0.411701 0.420345 0.330271
201 1 0.321391 0.325682 0.332987
203 1 0.423341 0.335034 0.414044
65 1 0.676742 0.317698 0.00911061
135 1 0.588349 0.308093 0.257163
136 1 0.498355 0.411252 0.244986
657 1 0.326487 0.494259 0.479777
511 1 0.244921 0.49746 0.258181
139 1 0.760144 0.348175 0.273275
140 1 0.666689 0.387449 0.245672
214 1 0.904446 0.429933 0.346891
142 1 0.919619 0.426787 0.153702
143 1 0.909122 0.338039 0.26306
144 1 0.841378 0.422318 0.239676
523 1 0.746717 0.481786 0.263852
152 1 0.162905 0.0905453 0.416711
169 1 0.011344 0.165876 0.326956
171 1 0.0810539 0.166555 0.42171
173 1 0.17563 0.17853 0.327803
455 1 0.915675 0.498578 0.0781277
175 1 0.251087 0.158441 0.417316
19 1 0.754597 0.0105357 0.0746991
226 1 0.425196 0.0706427 0.48888
154 1 0.41443 0.0846688 0.337869
156 1 0.328252 0.0769719 0.403074
179 1 0.42661 0.178208 0.415421
208 1 0.50121 0.415717 0.409359
160 1 0.508312 0.0825445 0.409612
61 1 0.497537 0.321389 0.016895
230 1 0.593457 0.0563291 0.493254
162 1 0.762038 0.0760193 0.332639
164 1 0.674242 0.0653509 0.423824
168 1 0.831545 0.0750576 0.422108
187 1 0.754817 0.164966 0.422246
189 1 0.849445 0.175061 0.339246
148 1 0.00155454 0.0810486 0.432008
166 1 0.921127 0.0869688 0.332714
191 1 0.942636 0.16638 0.410112
26 1 0.0865425 0.251656 0.000155299
513 1 0.339776 0.493985 0.151132
195 1 0.0893585 0.330357 0.415801
170 1 0.0834259 0.243675 0.324876
176 1 0.159134 0.241796 0.423483
199 1 0.236007 0.325239 0.425646
197 1 0.163607 0.330924 0.338698
174 1 0.245396 0.259207 0.347973
180 1 0.352756 0.250502 0.426446
249 1 0.33526 0.148044 0.485619
178 1 0.414529 0.26989 0.330228
181 1 0.505318 0.156818 0.332767
184 1 0.500846 0.26199 0.415088
250 1 0.427551 0.249069 0.496108
451 1 0.749833 0.481289 0.0607432
207 1 0.579487 0.335515 0.414188
182 1 0.580632 0.242018 0.3456
183 1 0.587373 0.153446 0.428248
186 1 0.745491 0.244692 0.342981
188 1 0.668251 0.252465 0.419006
192 1 0.842868 0.242352 0.421573
215 1 0.915277 0.337239 0.414911
172 1 0.017945 0.250397 0.414513
190 1 0.924614 0.24839 0.345209
212 1 0.667521 0.422066 0.417054
266 1 0.090977 0.413934 0.494562
206 1 0.586876 0.412824 0.323278
200 1 0.165227 0.410487 0.411143
75 1 0.0710328 0.000252101 0.238164
587 1 0.416088 0.481135 0.407098
577 1 0.999447 0.496652 0.341121
10 1 0.42222 0.0626193 0.00730464
33 1 0.352523 0.152107 0.00165366
161 1 0.682955 0.00113597 0.333021
2 1 0.0745979 0.0800924 0.0138682
661 1 0.511761 0.494153 0.498371
81 1 0.327968 0.0122102 0.181353
95 1 0.921219 0.0130027 0.264433
87 1 0.605278 0.0093363 0.254734
218 1 0.085216 0.0855445 0.496511
23 1 0.914522 0.00341597 0.075803
515 1 0.428039 0.492891 0.254075
3 1 0.0771396 0.0151046 0.0912234
441 1 0.343203 0.499689 0.000176761
277 1 0.493655 0.343028 0.487554
14 1 0.569324 0.0911393 0.0122018
243 1 0.0768537 0.163964 0.580028
381 1 0.841269 0.00291549 0.836308
290 1 0.0950542 0.0739212 0.647908
224 1 0.176988 0.0841985 0.578742
234 1 0.748124 0.0902186 0.506121
307 1 0.763386 0.00557816 0.754545
247 1 0.279891 0.161035 0.574049
294 1 0.256192 0.0865434 0.656965
317 1 0.175844 0.162294 0.66522
228 1 0.339145 0.0799457 0.576344
232 1 0.516209 0.0711404 0.588623
298 1 0.426295 0.0862286 0.657053
369 1 0.340829 0.00321237 0.832356
236 1 0.664978 0.0849082 0.583461
811 1 0.748611 0.491713 0.912905
306 1 0.751246 0.0686599 0.677286
799 1 0.249525 0.496301 0.912535
220 1 0.0124333 0.0713642 0.581449
240 1 0.830198 0.0650928 0.591489
727 1 0.262748 0.4964 0.746511
263 1 0.929765 0.158937 0.605882
333 1 0.841317 0.153536 0.675497
743 1 0.914613 0.499706 0.745551
267 1 0.080426 0.324053 0.59199
337 1 0.00462247 0.338484 0.663561
248 1 0.162379 0.237923 0.567245
271 1 0.249388 0.32988 0.575523
341 1 0.169422 0.335913 0.651853
251 1 0.415102 0.14976 0.569158
252 1 0.335614 0.247395 0.563528
256 1 0.503663 0.255223 0.57823
322 1 0.417741 0.248762 0.637388
325 1 0.513254 0.167573 0.649899
349 1 0.490114 0.329545 0.641787
261 1 0.837622 0.169733 0.508356
255 1 0.580116 0.153683 0.567893
326 1 0.596043 0.24626 0.64705
353 1 0.672128 0.34515 0.66755
453 1 0.833739 0.495076 0.993351
259 1 0.765039 0.158407 0.590415
260 1 0.679316 0.260297 0.589042
283 1 0.767796 0.330102 0.592751
330 1 0.759465 0.247886 0.66859
49 1 0.0125566 0.333174 0.997809
244 1 0.00146724 0.245681 0.595924
264 1 0.840628 0.249427 0.59677
287 1 0.916656 0.322331 0.596797
334 1 0.913132 0.248025 0.675807
268 1 0.000184843 0.41829 0.599809
338 1 0.094034 0.423922 0.671866
272 1 0.166064 0.418304 0.584157
276 1 0.333012 0.407894 0.58791
345 1 0.333254 0.324219 0.664701
723 1 0.0856869 0.498479 0.747872
275 1 0.405653 0.333284 0.573728
280 1 0.480471 0.416629 0.566534
279 1 0.588021 0.334947 0.588598
284 1 0.673631 0.418688 0.587708
350 1 0.582988 0.41088 0.658224
285 1 0.848908 0.327938 0.508336
50 1 0.0860597 0.430634 0.983579
430 1 0.919038 0.409988 0.828526
288 1 0.832222 0.414773 0.593364
286 1 0.918088 0.414526 0.511707
377 1 0.662935 0.0161474 0.84209
357 1 0.842229 0.334015 0.673099
358 1 0.920471 0.417044 0.658928
292 1 0.0178043 0.0731385 0.751846
296 1 0.185027 0.0676214 0.734876
313 1 0.0153557 0.162164 0.669253
315 1 0.0952459 0.158386 0.743522
282 1 0.75647 0.417261 0.504996
319 1 0.254167 0.171106 0.753281
321 1 0.332662 0.1613 0.66439
6 1 0.24319 0.0743063 0.995363
300 1 0.321715 0.0729603 0.754853
304 1 0.498652 0.0774984 0.74457
297 1 0.347625 0.00778595 0.655144
302 1 0.590053 0.0873377 0.67527
374 1 0.568381 0.0791543 0.837942
308 1 0.66265 0.0771668 0.760477
401 1 0.664572 0.161025 0.841054
378 1 0.763417 0.0845372 0.829544
312 1 0.840279 0.0893103 0.754606
329 1 0.67726 0.156304 0.671465
310 1 0.916464 0.0751579 0.668758
335 1 0.922631 0.171363 0.744052
405 1 0.83667 0.174563 0.83489
223 1 0.255701 0.0130252 0.580739
314 1 0.0985675 0.244433 0.664169
316 1 0.00454138 0.242109 0.736193
339 1 0.080082 0.326959 0.734306
318 1 0.247622 0.252565 0.643372
320 1 0.172651 0.247959 0.756273
390 1 0.252003 0.245046 0.837997
324 1 0.343877 0.236613 0.74142
323 1 0.427704 0.165634 0.730403
394 1 0.422191 0.254012 0.817369
328 1 0.517593 0.242034 0.72307
347 1 0.40745 0.324447 0.733218
327 1 0.597632 0.163849 0.740776
398 1 0.58244 0.249223 0.820713
332 1 0.680071 0.253708 0.74135
351 1 0.586911 0.32734 0.735712
425 1 0.659081 0.341579 0.834126
331 1 0.752821 0.153195 0.747012
355 1 0.751238 0.339892 0.751501
336 1 0.841004 0.243921 0.759469
406 1 0.928388 0.246195 0.827242
359 1 0.916205 0.331826 0.75194
429 1 0.825546 0.340617 0.837675
242 1 0.0813159 0.236249 0.503806
340 1 0.998374 0.421966 0.743614
409 1 0.0160784 0.331321 0.82177
344 1 0.171963 0.396867 0.745417
45 1 0.839775 0.170958 0.998249
342 1 0.239289 0.418701 0.66365
343 1 0.247819 0.318809 0.732145
254 1 0.595991 0.245309 0.503819
793 1 0.989146 0.499446 0.838665
346 1 0.406291 0.412683 0.667568
348 1 0.327681 0.408163 0.747032
417 1 0.333512 0.323156 0.831282
352 1 0.472632 0.407818 0.748868
803 1 0.409404 0.49733 0.912961
422 1 0.569111 0.409942 0.823598
356 1 0.672502 0.415572 0.750994
281 1 0.661309 0.332794 0.500835
354 1 0.748183 0.420741 0.667943
426 1 0.743984 0.421288 0.838402
669 1 0.844338 0.49491 0.516163
69 1 0.835844 0.330996 0.996939
360 1 0.840172 0.416499 0.74293
387 1 0.0848975 0.17512 0.920893
362 1 0.0948745 0.0777015 0.847922
385 1 0.00591661 0.165508 0.832958
364 1 0.00317069 0.0763768 0.914914
368 1 0.148964 0.0972288 0.935783
367 1 0.234735 0.00568663 0.906655
366 1 0.240561 0.0980555 0.845884
393 1 0.334378 0.179069 0.839623
372 1 0.340528 0.0720657 0.912667
809 1 0.654835 0.492281 0.833748
370 1 0.426399 0.0791995 0.832097
397 1 0.505972 0.176221 0.811066
376 1 0.48836 0.072806 0.918636
375 1 0.565951 0.0168865 0.923094
380 1 0.667801 0.0897811 0.927124
383 1 0.912473 0.00813317 0.917342
361 1 0.0175405 0.00577046 0.83626
54 1 0.246728 0.413956 0.996018
384 1 0.837682 0.090712 0.913265
403 1 0.757429 0.172628 0.91627
25 1 0.014206 0.166156 0.993414
379 1 0.753665 0.0153214 0.912154
18 1 0.753836 0.0913871 0.994698
265 1 0.997753 0.33959 0.509129
62 1 0.572025 0.398464 0.998439
382 1 0.929517 0.0803986 0.821626
428 1 0.649608 0.411292 0.916011
241 1 0.99475 0.171115 0.504738
388 1 0.0194175 0.257569 0.905554
386 1 0.0920077 0.249531 0.824414
389 1 0.174643 0.170116 0.835719
815 1 0.911013 0.495563 0.913304
396 1 0.335405 0.260739 0.930319
392 1 0.179469 0.239468 0.925228
391 1 0.258996 0.162104 0.932193
269 1 0.159492 0.322684 0.51121
395 1 0.424766 0.178981 0.908127
419 1 0.43155 0.326354 0.920821
400 1 0.509886 0.252025 0.904574
46 1 0.93096 0.23607 0.997046
423 1 0.592472 0.325135 0.912877
404 1 0.663275 0.234101 0.923081
421 1 0.503439 0.331487 0.831239
399 1 0.574937 0.166598 0.904493
365 1 0.184383 0.0106834 0.828073
427 1 0.729969 0.330133 0.913906
659 1 0.399051 0.496413 0.579626
408 1 0.833288 0.253387 0.917723
402 1 0.746556 0.251681 0.838762
431 1 0.930917 0.336545 0.913862
258 1 0.759357 0.25005 0.510163
407 1 0.924979 0.15331 0.920535
238 1 0.902771 0.0769348 0.501001
416 1 0.169209 0.419322 0.909513
412 1 0.00397678 0.420241 0.915082
411 1 0.0967231 0.336465 0.900188
410 1 0.0989791 0.4283 0.830968
415 1 0.251151 0.329065 0.915962
413 1 0.168763 0.324224 0.816705
414 1 0.248318 0.401522 0.831593
66 1 0.755373 0.417273 0.98879
420 1 0.340788 0.414906 0.930568
418 1 0.415174 0.397047 0.844306
278 1 0.583767 0.411487 0.519463
305 1 0.664173 0.00982769 0.675908
424 1 0.495226 0.432122 0.921579
70 1 0.921297 0.410858 0.988359
731 1 0.402219 0.481574 0.752885
432 1 0.84203 0.419237 0.921857
733 1 0.485789 0.488129 0.661315
801 1 0.322683 0.490456 0.837672
805 1 0.504001 0.494197 0.830338
37 1 0.491298 0.161365 0.989902
257 1 0.677423 0.17254 0.509205
246 1 0.258727 0.238441 0.500835
807 1 0.584605 0.495319 0.909917
262 1 0.92872 0.253253 0.510045
38 1 0.58519 0.256116 0.997639
813 1 0.846015 0.499869 0.829158
665 1 0.676985 0.499881 0.504577
445 1 0.488455 0.499598 0.999965
440 1 0.17155 0.586482 0.0682622
459 1 0.0961735 0.66243 0.0699734
702 1 0.259413 0.913871 0.496361
533 1 0.152701 0.669081 0.160923
147 1 0.0801909 0.995352 0.425244
463 1 0.246012 0.685342 0.0737524
709 1 0.512296 0.841822 0.488822
510 1 0.249367 0.579421 0.178853
717 1 0.833794 0.831588 0.490677
444 1 0.334237 0.588571 0.0880667
537 1 0.352296 0.678329 0.159841
448 1 0.513001 0.590403 0.0743442
471 1 0.586275 0.672256 0.0776922
689 1 0.655042 0.675215 0.48827
159 1 0.574252 0.992582 0.403936
518 1 0.592243 0.578832 0.155411
452 1 0.661921 0.587913 0.0759457
456 1 0.818037 0.567342 0.0803537
628 1 0.00620717 0.920151 0.419131
436 1 0.00960439 0.585473 0.0765858
479 1 0.901327 0.655591 0.0736992
526 1 0.914512 0.578808 0.159501
549 1 0.824159 0.655329 0.149551
79 1 0.240277 0.998588 0.237577
464 1 0.161477 0.752133 0.0783351
530 1 0.0769286 0.767139 0.144522
658 1 0.410856 0.570319 0.492723
685 1 0.502335 0.653673 0.491325
487 1 0.268623 0.83421 0.0710807
534 1 0.25509 0.754459 0.166627
561 1 0.345604 0.827953 0.166508
91 1 0.765282 0.984292 0.264822
467 1 0.432151 0.674217 0.083457
468 1 0.349652 0.756398 0.0793357
491 1 0.425756 0.841033 0.0848757
648 1 0.834085 0.908254 0.417597
538 1 0.444519 0.747277 0.160971
472 1 0.506415 0.75804 0.0716488
541 1 0.512048 0.656562 0.165975
542 1 0.580475 0.749447 0.162913
475 1 0.750443 0.649922 0.0664821
476 1 0.660364 0.751471 0.0775911
480 1 0.830454 0.751895 0.0690675
546 1 0.752897 0.741127 0.150931
569 1 0.675018 0.824754 0.158632
460 1 0.0101781 0.744198 0.0639584
483 1 0.0761874 0.830694 0.0532459
484 1 0.997078 0.901199 0.0764595
554 1 0.0795643 0.917379 0.156732
442 1 0.416159 0.583037 0.0101522
7 1 0.245541 0.995538 0.0815021
77 1 0.156693 0.998372 0.160012
93 1 0.842295 0.995713 0.167493
488 1 0.163589 0.918096 0.0808621
558 1 0.260201 0.918357 0.157944
713 1 0.660672 0.825528 0.497842
589 1 0.508437 0.506151 0.334122
493 1 0.510035 0.848552 0.00245196
492 1 0.337165 0.90978 0.0912289
562 1 0.415306 0.915625 0.170931
9 1 0.333661 0.991308 0.00902247
155 1 0.429427 0.99358 0.414681
495 1 0.589915 0.83394 0.0789709
496 1 0.525219 0.923215 0.0862891
499 1 0.746315 0.84156 0.0757771
500 1 0.655701 0.928718 0.0845873
573 1 0.843335 0.811567 0.168245
570 1 0.760654 0.910282 0.164106
503 1 0.90604 0.840498 0.0826639
504 1 0.833008 0.915861 0.0685828
574 1 0.909027 0.916701 0.160507
439 1 0.244682 0.503385 0.0585462
11 1 0.42722 0.984829 0.0860911
506 1 0.0957724 0.56877 0.150988
508 1 0.0101287 0.584908 0.247878
714 1 0.746299 0.903419 0.48858
585 1 0.336584 0.503553 0.339045
512 1 0.167795 0.58502 0.254245
535 1 0.266947 0.662777 0.229758
582 1 0.264754 0.591234 0.323211
666 1 0.756117 0.58044 0.497583
514 1 0.431002 0.583289 0.157084
516 1 0.357145 0.573472 0.237954
586 1 0.424051 0.583686 0.330104
613 1 0.514837 0.653002 0.323165
697 1 0.00521414 0.829073 0.493303
520 1 0.509461 0.582732 0.240705
590 1 0.591897 0.584534 0.337434
522 1 0.736796 0.567127 0.157357
524 1 0.663075 0.572402 0.241661
545 1 0.665361 0.65909 0.171351
547 1 0.743739 0.667518 0.249689
617 1 0.670116 0.666065 0.340721
647 1 0.920994 0.828748 0.423336
217 1 0.999032 0.999923 0.498632
528 1 0.832926 0.592351 0.243457
529 1 0.0288424 0.660778 0.160093
551 1 0.930032 0.660902 0.229233
531 1 0.0828704 0.655348 0.249904
555 1 0.0820036 0.843857 0.23823
557 1 0.175953 0.849897 0.165741
536 1 0.161898 0.752388 0.227055
605 1 0.157595 0.671519 0.318499
629 1 0.17314 0.832203 0.311965
539 1 0.423825 0.665966 0.240298
540 1 0.347221 0.745099 0.242486
563 1 0.435072 0.83569 0.24365
565 1 0.505804 0.832814 0.153035
609 1 0.344744 0.662546 0.314797
610 1 0.427626 0.739188 0.331273
633 1 0.3367 0.83257 0.32111
543 1 0.587419 0.654025 0.24743
544 1 0.49798 0.74617 0.260864
567 1 0.581065 0.839343 0.262274
614 1 0.586185 0.738667 0.328724
637 1 0.48885 0.832313 0.333731
641 1 0.683393 0.831334 0.329695
548 1 0.670987 0.74515 0.251986
571 1 0.759118 0.828874 0.238851
552 1 0.836573 0.724777 0.238056
532 1 0.98771 0.7444 0.236394
553 1 0.992295 0.823178 0.158904
550 1 0.928038 0.735368 0.142427
575 1 0.905184 0.811866 0.250151
622 1 0.90566 0.725229 0.31786
229 1 0.492319 0.982149 0.498963
626 1 0.0775212 0.906031 0.319856
630 1 0.254022 0.902517 0.331399
559 1 0.256516 0.837722 0.244029
560 1 0.16784 0.926921 0.247958
435 1 0.0838943 0.503094 0.0678748
634 1 0.407627 0.918655 0.332497
564 1 0.331049 0.917539 0.241066
638 1 0.6078 0.928027 0.327117
597 1 0.822668 0.51557 0.343191
566 1 0.586707 0.917086 0.174407
568 1 0.513555 0.924533 0.252918
572 1 0.674397 0.917767 0.23188
642 1 0.767221 0.900502 0.336232
576 1 0.852414 0.906473 0.261801
645 1 0.847259 0.825214 0.351636
718 1 0.922912 0.906679 0.494692
646 1 0.923556 0.907464 0.351985
145 1 0.00824394 0.991901 0.33319
556 1 0.974479 0.903523 0.248343
578 1 0.0901368 0.564365 0.331953
584 1 0.183367 0.577741 0.401806
603 1 0.0902059 0.680108 0.406996
681 1 0.329002 0.669248 0.474111
654 1 0.250971 0.586006 0.494206
662 1 0.597153 0.576749 0.491939
607 1 0.250215 0.678802 0.401253
527 1 0.918784 0.50087 0.247703
593 1 0.657311 0.504228 0.329784
588 1 0.33059 0.59036 0.409112
592 1 0.50825 0.575941 0.422772
73 1 0.994858 0.992577 0.161525
482 1 0.0827624 0.920069 0.0120351
221 1 0.170203 0.991094 0.495778
599 1 0.918358 0.51264 0.442547
594 1 0.739887 0.573696 0.320078
596 1 0.685906 0.580868 0.417734
600 1 0.837755 0.586675 0.419891
619 1 0.747634 0.665082 0.419403
83 1 0.42211 0.999896 0.251864
580 1 0.0136046 0.588609 0.399424
623 1 0.93091 0.661595 0.423687
598 1 0.916441 0.582239 0.325381
621 1 0.820687 0.644761 0.337981
602 1 0.0920246 0.755675 0.333966
627 1 0.0947912 0.839013 0.404106
678 1 0.253454 0.755549 0.493164
606 1 0.234293 0.742766 0.309665
608 1 0.180151 0.766276 0.401344
163 1 0.762715 0.992129 0.4133
611 1 0.424165 0.655865 0.416544
612 1 0.334512 0.75134 0.404959
517 1 0.507854 0.505851 0.163297
615 1 0.575209 0.653976 0.410111
616 1 0.514096 0.739894 0.40851
639 1 0.586245 0.835613 0.384427
624 1 0.830454 0.741269 0.421553
618 1 0.754438 0.74238 0.34201
620 1 0.667036 0.751254 0.40359
643 1 0.745163 0.835406 0.415603
601 1 0.00752919 0.675444 0.32812
604 1 0.000706823 0.746416 0.411316
625 1 0.995796 0.828063 0.340174
486 1 0.250029 0.922654 0.00311741
632 1 0.171229 0.924161 0.406648
677 1 0.184794 0.665776 0.487426
701 1 0.158229 0.823165 0.493946
165 1 0.84235 0.992642 0.338999
443 1 0.419437 0.502404 0.0844633
631 1 0.253206 0.847131 0.416883
151 1 0.246498 0.998262 0.41194
525 1 0.830938 0.508662 0.174463
705 1 0.339849 0.832118 0.498217
636 1 0.349069 0.901729 0.415575
706 1 0.412762 0.9093 0.495213
153 1 0.329093 0.993615 0.316845
635 1 0.421723 0.814472 0.421538
686 1 0.585525 0.752263 0.481256
644 1 0.664877 0.911781 0.416217
682 1 0.420638 0.741835 0.49705
640 1 0.492418 0.916346 0.408046
485 1 0.176476 0.841226 0.00587737
674 1 0.0869985 0.74562 0.488808
650 1 0.0987505 0.597395 0.484095
653 1 0.164766 0.503819 0.484389
167 1 0.920364 0.988932 0.41598
505 1 0.993785 0.502094 0.165391
89 1 0.68312 0.996081 0.159009
595 1 0.750371 0.505682 0.426213
157 1 0.504513 0.998499 0.326639
649 1 0.019353 0.5191 0.49358
652 1 0.00758706 0.598608 0.595394
299 1 0.408259 0.988588 0.748326
651 1 0.0879039 0.503107 0.573168
373 1 0.494364 0.990307 0.826567
656 1 0.157602 0.579947 0.580423
726 1 0.255013 0.586365 0.656658
725 1 0.171557 0.505053 0.667878
655 1 0.235927 0.503467 0.572106
698 1 0.0864157 0.911738 0.501236
660 1 0.331147 0.585309 0.569601
739 1 0.733119 0.506532 0.755962
730 1 0.416805 0.570465 0.656824
233 1 0.675389 0.990225 0.508123
664 1 0.512081 0.565022 0.578763
668 1 0.669323 0.580836 0.581137
303 1 0.586216 0.999068 0.744328
694 1 0.937203 0.746831 0.504698
734 1 0.588074 0.575987 0.668944
757 1 0.502188 0.664694 0.663667
231 1 0.601745 0.997187 0.587318
672 1 0.835403 0.590399 0.588313
466 1 0.418973 0.764873 0.997079
470 1 0.585195 0.752201 0.995926
458 1 0.0879308 0.741011 0.996023
670 1 0.910616 0.59257 0.508924
742 1 0.909546 0.599596 0.677818
490 1 0.412694 0.910221 0.996674
675 1 0.0843293 0.672297 0.577169
676 1 0.0104689 0.754562 0.575327
745 1 0.999165 0.664194 0.682626
295 1 0.256179 0.988557 0.751562
679 1 0.254452 0.658124 0.570432
680 1 0.163451 0.749462 0.577764
703 1 0.265076 0.834955 0.568673
749 1 0.167062 0.674725 0.652973
753 1 0.343186 0.657282 0.652961
683 1 0.437913 0.651072 0.571067
684 1 0.337376 0.745033 0.570237
754 1 0.421941 0.759648 0.64243
687 1 0.581933 0.660069 0.584077
688 1 0.500576 0.749238 0.561595
692 1 0.666334 0.744197 0.584531
850 1 0.426941 0.910245 0.831445
501 1 0.840124 0.833738 0.988028
691 1 0.745747 0.667878 0.573663
696 1 0.839309 0.750799 0.574044
761 1 0.66927 0.672087 0.665474
494 1 0.594828 0.931549 0.996665
693 1 0.834127 0.672159 0.505268
695 1 0.913344 0.665399 0.598216
719 1 0.923102 0.835166 0.595116
293 1 0.174336 0.992391 0.662038
473 1 0.669704 0.673563 0.99634
699 1 0.0807251 0.841655 0.575268
700 1 0.997795 0.915653 0.57028
704 1 0.184524 0.92215 0.575491
438 1 0.271413 0.595158 0.994682
857 1 0.670376 0.859536 0.827235
690 1 0.751109 0.758165 0.500107
773 1 0.186551 0.830663 0.652675
774 1 0.257897 0.91057 0.661653
707 1 0.43121 0.837896 0.571483
708 1 0.342803 0.923519 0.584183
851 1 0.426298 0.832734 0.915165
777 1 0.337304 0.837784 0.654465
711 1 0.582424 0.83766 0.580255
712 1 0.505688 0.917449 0.591852
716 1 0.661185 0.909588 0.584997
782 1 0.588089 0.924563 0.670564
715 1 0.754655 0.828997 0.583813
720 1 0.826632 0.904742 0.569793
478 1 0.913657 0.731772 0.998345
235 1 0.744571 0.983978 0.589171
786 1 0.744196 0.906608 0.662306
239 1 0.911171 0.992699 0.579326
489 1 0.337542 0.827208 0.986987
21 1 0.841998 0.995237 0.996011
289 1 0.99395 0.997559 0.655141
858 1 0.750877 0.928334 0.833288
722 1 0.0883451 0.576933 0.666788
794 1 0.0947435 0.595 0.825834
860 1 0.662468 0.930152 0.910589
728 1 0.178843 0.599428 0.738622
751 1 0.2603 0.671695 0.737649
729 1 0.327974 0.50731 0.668268
856 1 0.506658 0.923741 0.90133
457 1 0.00488966 0.653605 0.990252
735 1 0.579926 0.502176 0.752503
732 1 0.332967 0.584666 0.742349
736 1 0.499027 0.573696 0.730019
825 1 0.348954 0.660039 0.837496
462 1 0.256627 0.755964 0.989381
291 1 0.0961544 0.996145 0.754727
740 1 0.661651 0.582493 0.753212
759 1 0.574676 0.667286 0.753963
237 1 0.820762 0.999245 0.506462
738 1 0.752525 0.60086 0.663966
810 1 0.738878 0.596188 0.839152
763 1 0.748576 0.666234 0.758942
765 1 0.830063 0.675339 0.6862
837 1 0.83699 0.662592 0.820454
724 1 0.00544552 0.58239 0.762457
744 1 0.815174 0.574491 0.748088
817 1 0.0171522 0.68347 0.829749
746 1 0.0724926 0.736055 0.66383
747 1 0.0861694 0.667526 0.744338
748 1 0.996568 0.758535 0.755172
769 1 0.00146177 0.845593 0.664679
771 1 0.0809543 0.825951 0.741229
818 1 0.0978845 0.754232 0.834605
841 1 0.99522 0.844301 0.843364
750 1 0.265154 0.746532 0.649779
752 1 0.173286 0.7556 0.735178
755 1 0.422561 0.650936 0.745124
756 1 0.353963 0.745108 0.725493
779 1 0.421742 0.836935 0.739983
760 1 0.490736 0.744106 0.740783
758 1 0.578083 0.742404 0.671659
764 1 0.668383 0.761099 0.760262
833 1 0.65483 0.667365 0.83527
762 1 0.750856 0.749645 0.677707
785 1 0.659353 0.818768 0.665748
787 1 0.756664 0.822988 0.757774
834 1 0.750648 0.741303 0.846711
766 1 0.925699 0.752762 0.665642
767 1 0.929465 0.675735 0.757992
768 1 0.851898 0.767201 0.750761
791 1 0.92689 0.848085 0.746768
838 1 0.924549 0.759805 0.837817
741 1 0.844046 0.511795 0.667477
363 1 0.0936331 0.983027 0.921155
770 1 0.0818437 0.924701 0.656895
772 1 0.00642498 0.919621 0.757056
842 1 0.0812201 0.903039 0.838615
776 1 0.175458 0.899178 0.738954
461 1 0.180285 0.675029 0.991928
775 1 0.267741 0.826883 0.753625
781 1 0.503097 0.82872 0.671286
778 1 0.426929 0.916861 0.66304
780 1 0.333158 0.910623 0.741759
784 1 0.498518 0.908792 0.745053
864 1 0.837004 0.919589 0.900646
783 1 0.583006 0.833067 0.753719
853 1 0.496244 0.837204 0.829015
854 1 0.591118 0.935578 0.831744
788 1 0.674592 0.920092 0.740679
371 1 0.423227 0.992543 0.911006
498 1 0.742853 0.920379 0.999983
789 1 0.832625 0.840947 0.680262
792 1 0.827147 0.912993 0.758904
862 1 0.921385 0.927211 0.839569
309 1 0.833597 0.995809 0.672335
474 1 0.750073 0.744416 0.996936
861 1 0.813035 0.832733 0.840992
790 1 0.90805 0.920938 0.668139
795 1 0.082223 0.517442 0.905577
796 1 0.000383647 0.597664 0.886554
663 1 0.592273 0.502122 0.570321
497 1 0.644425 0.838382 0.981705
798 1 0.257587 0.595415 0.83009
673 1 0.00806836 0.666451 0.501996
800 1 0.174054 0.577107 0.909138
802 1 0.418657 0.559673 0.810248
804 1 0.33263 0.588685 0.915378
827 1 0.423091 0.668831 0.925447
434 1 0.088946 0.587617 0.980705
446 1 0.577352 0.587251 0.996274
806 1 0.578173 0.585883 0.832171
808 1 0.487079 0.572663 0.917237
831 1 0.578716 0.663554 0.915921
469 1 0.494258 0.678072 0.996318
797 1 0.167227 0.504423 0.83309
1 1 0.00553228 0.998244 0.997549
835 1 0.74901 0.663595 0.914116
812 1 0.661807 0.58067 0.906884
816 1 0.828272 0.59184 0.896339
454 1 0.915772 0.576381 0.979411
477 1 0.833467 0.647487 0.985252
814 1 0.909947 0.581279 0.813462
863 1 0.915023 0.839106 0.910741
819 1 0.0913182 0.678861 0.911122
820 1 0.00384186 0.753848 0.908868
843 1 0.0896621 0.834529 0.942562
502 1 0.923259 0.916519 0.993311
821 1 0.174421 0.67823 0.815959
822 1 0.273441 0.750336 0.829099
845 1 0.169599 0.839939 0.824961
823 1 0.253355 0.668855 0.90642
824 1 0.17945 0.751623 0.911096
826 1 0.419312 0.754167 0.839775
829 1 0.489201 0.650855 0.837626
828 1 0.343484 0.749111 0.911471
855 1 0.574951 0.847814 0.899141
830 1 0.572554 0.758737 0.832537
832 1 0.50608 0.757295 0.92175
671 1 0.93031 0.519745 0.594641
737 1 0.680436 0.510048 0.663523
859 1 0.74094 0.835567 0.915162
836 1 0.652629 0.759985 0.901282
433 1 0.000473984 0.511981 0.976962
840 1 0.825358 0.749494 0.922479
839 1 0.906656 0.662615 0.906211
481 1 0.991323 0.826005 0.997422
437 1 0.160533 0.501048 0.994543
844 1 0.0109257 0.921196 0.927647
721 1 0.00246966 0.515087 0.672346
227 1 0.42312 0.995823 0.572059
848 1 0.174337 0.919927 0.929506
667 1 0.756228 0.513164 0.579867
849 1 0.346291 0.838302 0.842508
846 1 0.252562 0.916806 0.836401
847 1 0.256253 0.836802 0.90486
852 1 0.329578 0.927493 0.914181
311 1 0.918226 0.994433 0.747552
449 1 0.651731 0.50681 0.993283
301 1 0.503876 0.998844 0.674171
450 1 0.750834 0.572823 0.982898
13 1 0.50012 0.982873 0.999743
465 1 0.34181 0.683221 0.997898
219 1 0.0975281 0.999787 0.568673
710 1 0.598209 0.909424 0.500154
