ITEM: TIMESTEP
6750
ITEM: NUMBER OF ATOMS
864
ITEM: BOX BOUNDS pp pp pp
0.0000000000000000e+00 3.1559999999999999e+01
0.0000000000000000e+00 3.1559999999999999e+01
0.0000000000000000e+00 3.1559999999999999e+01
ITEM: ATOMS id type xs ys zs
8 1 0.171813 0.102719 0.0667797
269 1 0.174933 0.330646 0.484349
74 1 0.0890884 0.0920628 0.177498
1 1 0.00391883 0.0138177 0.000271898
31 1 0.260473 0.176025 0.0819959
242 1 0.0809187 0.252816 0.493745
101 1 0.153274 0.17341 0.160022
12 1 0.337292 0.0754162 0.0819211
35 1 0.418464 0.158006 0.0820884
82 1 0.41702 0.0709181 0.169365
16 1 0.500038 0.0791895 0.0876983
86 1 0.575136 0.0797677 0.177355
113 1 0.669998 0.159835 0.152427
39 1 0.584016 0.164389 0.0867983
20 1 0.650586 0.0777723 0.0897339
90 1 0.756874 0.0967182 0.155324
24 1 0.834929 0.0870687 0.0699586
226 1 0.421709 0.0868079 0.486386
215 1 0.919444 0.330011 0.412291
4 1 0.0137352 0.0823183 0.0903998
47 1 0.928386 0.147467 0.0736429
94 1 0.911338 0.0717476 0.165665
515 1 0.407738 0.496871 0.247838
27 1 0.0942077 0.171228 0.0574945
97 1 0.981384 0.160454 0.172776
51 1 0.0819048 0.338592 0.0784125
98 1 0.0718517 0.24263 0.167251
258 1 0.738446 0.255339 0.492997
32 1 0.177165 0.240587 0.0775954
129 1 0.334694 0.341648 0.159969
125 1 0.164229 0.328767 0.151787
55 1 0.247405 0.332778 0.087225
50 1 0.0865303 0.422576 0.00859651
36 1 0.327428 0.266064 0.0823787
105 1 0.345898 0.169187 0.166795
59 1 0.417411 0.327275 0.0847392
40 1 0.494786 0.245141 0.0792714
44 1 0.665566 0.255373 0.0774611
43 1 0.746855 0.169458 0.0784932
117 1 0.850329 0.16439 0.156217
114 1 0.757105 0.230443 0.168692
67 1 0.742756 0.355676 0.0668136
48 1 0.825504 0.249443 0.084575
28 1 0.00217868 0.237812 0.0808363
77 1 0.17079 0.00656925 0.155626
217 1 0.00660081 0.00455286 0.498928
56 1 0.170855 0.410867 0.0901165
270 1 0.249947 0.421859 0.487588
126 1 0.266557 0.41224 0.156838
451 1 0.752229 0.484443 0.0959639
266 1 0.0906734 0.408091 0.490137
60 1 0.326761 0.41796 0.0629188
64 1 0.498673 0.412756 0.0756225
130 1 0.408213 0.42865 0.144037
63 1 0.587849 0.332591 0.074443
137 1 0.676768 0.335817 0.147012
68 1 0.658831 0.426744 0.0930715
591 1 0.577882 0.499571 0.406283
3 1 0.104121 0.00419266 0.0670301
72 1 0.833611 0.42079 0.0730119
141 1 0.828314 0.345257 0.155759
286 1 0.931602 0.429152 0.476059
138 1 0.761154 0.427399 0.186408
46 1 0.923648 0.236618 0.00704515
71 1 0.908262 0.32782 0.0717565
52 1 0.010299 0.42133 0.0976578
142 1 0.92438 0.414839 0.155552
579 1 0.0812624 0.497863 0.406248
265 1 0.990376 0.336333 0.484843
146 1 0.0825255 0.0764479 0.336903
173 1 0.181219 0.181845 0.338042
91 1 0.74851 0.00821919 0.249234
78 1 0.245646 0.0779762 0.143243
80 1 0.174231 0.0912533 0.247204
103 1 0.249826 0.164864 0.233817
150 1 0.243724 0.0895143 0.334886
84 1 0.317513 0.080793 0.242495
107 1 0.423179 0.169228 0.2468
154 1 0.410869 0.079264 0.329519
88 1 0.497917 0.0763519 0.25532
111 1 0.57792 0.156382 0.246563
92 1 0.665145 0.0826524 0.249298
109 1 0.505594 0.165649 0.16118
158 1 0.584945 0.0925603 0.339212
519 1 0.578387 0.497374 0.236614
595 1 0.743291 0.490533 0.410815
115 1 0.743122 0.161907 0.252212
96 1 0.838106 0.0925915 0.246572
185 1 0.656525 0.176785 0.324741
162 1 0.744079 0.0825589 0.337509
57 1 0.335855 0.330412 0.00122642
76 1 0.00940101 0.0802324 0.247523
89 1 0.657 0.010569 0.168304
166 1 0.926655 0.0998844 0.324629
119 1 0.907441 0.181656 0.243358
278 1 0.574042 0.415755 0.493589
99 1 0.102205 0.17527 0.250986
170 1 0.0857817 0.237038 0.331119
104 1 0.190132 0.244814 0.249527
123 1 0.0922158 0.323651 0.251426
197 1 0.171898 0.323199 0.325732
102 1 0.258705 0.260867 0.162909
108 1 0.337594 0.254776 0.239497
127 1 0.254252 0.337373 0.24198
174 1 0.267228 0.251016 0.337049
106 1 0.415235 0.254908 0.165087
131 1 0.410336 0.33496 0.242808
112 1 0.495289 0.236757 0.247148
110 1 0.590699 0.24965 0.164314
205 1 0.487125 0.327679 0.32297
182 1 0.570271 0.25337 0.328462
189 1 0.829345 0.160759 0.345967
116 1 0.666052 0.258422 0.238624
139 1 0.745457 0.324877 0.254809
186 1 0.75015 0.234023 0.344677
118 1 0.914071 0.255998 0.1563
120 1 0.817721 0.235934 0.25762
100 1 0.992474 0.241279 0.252541
193 1 0.0028144 0.334465 0.327962
122 1 0.0990616 0.419569 0.171821
194 1 0.0850296 0.412956 0.310924
285 1 0.833769 0.336589 0.496754
42 1 0.754821 0.258164 0.0082853
222 1 0.244441 0.0798996 0.498358
128 1 0.177682 0.403584 0.247478
201 1 0.336567 0.333707 0.320403
132 1 0.34048 0.418696 0.252899
198 1 0.258046 0.421463 0.333342
133 1 0.498963 0.344616 0.151611
136 1 0.488693 0.413369 0.247636
134 1 0.565222 0.421015 0.168714
135 1 0.57013 0.336725 0.236248
250 1 0.420818 0.249932 0.495712
140 1 0.661293 0.419649 0.23645
209 1 0.671193 0.329056 0.330044
144 1 0.854997 0.42038 0.247071
505 1 0.992493 0.498236 0.176021
143 1 0.921459 0.327226 0.234441
121 1 0.0169659 0.338644 0.168322
214 1 0.91827 0.414027 0.344526
124 1 0.984512 0.40829 0.255087
213 1 0.824659 0.335371 0.325058
581 1 0.168921 0.490322 0.325225
23 1 0.911559 0.00932307 0.0602305
171 1 0.0917583 0.168515 0.421001
225 1 0.320282 0.00329587 0.480495
253 1 0.506149 0.160831 0.481206
152 1 0.167585 0.0954689 0.408472
175 1 0.261654 0.169079 0.414084
665 1 0.66606 0.490817 0.496954
511 1 0.244608 0.496219 0.252403
649 1 0.00835011 0.494475 0.490501
73 1 0.00381423 0.00371908 0.167251
156 1 0.343014 0.0855489 0.410984
179 1 0.426031 0.171714 0.400723
181 1 0.500135 0.162932 0.325204
177 1 0.33062 0.167196 0.314232
274 1 0.414661 0.416088 0.4829
160 1 0.502312 0.0884009 0.406627
164 1 0.672056 0.0692254 0.413682
230 1 0.585694 0.081987 0.49638
165 1 0.842886 0.0115702 0.329289
593 1 0.661427 0.497588 0.322049
38 1 0.584081 0.247068 0.00708542
168 1 0.823173 0.0799517 0.427962
148 1 0.00145024 0.0844127 0.401011
229 1 0.488076 0.00829484 0.486823
34 1 0.401703 0.253223 0.00621696
583 1 0.258984 0.491378 0.412363
176 1 0.178882 0.249406 0.418316
195 1 0.0925027 0.332384 0.397516
6 1 0.262507 0.0855555 0.00266989
93 1 0.827722 0.00309134 0.145933
180 1 0.347031 0.236589 0.417336
199 1 0.255061 0.332276 0.403812
653 1 0.179523 0.496421 0.486225
178 1 0.414074 0.242976 0.330381
184 1 0.513357 0.249119 0.42525
61 1 0.484921 0.327138 0.00498717
183 1 0.602724 0.176895 0.407073
188 1 0.655867 0.268393 0.421253
187 1 0.748 0.163853 0.434666
62 1 0.590358 0.422059 0.00364587
192 1 0.830882 0.246646 0.425476
169 1 0.0206679 0.162468 0.326571
191 1 0.930241 0.164462 0.411689
172 1 0.00384288 0.244364 0.398709
190 1 0.893572 0.254151 0.332902
262 1 0.922475 0.238511 0.490692
41 1 0.659456 0.176402 0.012701
196 1 0.0063777 0.41586 0.407579
87 1 0.579889 0.0036949 0.262992
19 1 0.753304 0.0079453 0.0572584
200 1 0.157768 0.417367 0.417823
204 1 0.342513 0.421153 0.404875
208 1 0.488158 0.421283 0.408795
15 1 0.572595 0.00155136 0.0791675
167 1 0.916672 0.0237423 0.422463
203 1 0.408663 0.322761 0.426593
202 1 0.423417 0.410484 0.331146
212 1 0.648892 0.414991 0.408671
525 1 0.838617 0.493332 0.162478
206 1 0.580146 0.41153 0.319454
577 1 0.0156733 0.498103 0.330357
207 1 0.559818 0.343582 0.418505
211 1 0.748917 0.334294 0.415038
216 1 0.824513 0.416857 0.421554
246 1 0.260698 0.251336 0.497617
210 1 0.75048 0.410669 0.31353
273 1 0.327286 0.335739 0.488769
589 1 0.507297 0.494355 0.317252
249 1 0.33375 0.160742 0.494282
597 1 0.826165 0.496103 0.337121
245 1 0.17153 0.173731 0.498065
224 1 0.166513 0.0833028 0.584251
227 1 0.415916 0.0103014 0.568429
220 1 0.997756 0.0907806 0.581363
290 1 0.0714413 0.0835493 0.658242
294 1 0.235773 0.076027 0.665999
13 1 0.506616 0.00258855 0.985518
277 1 0.491531 0.329813 0.50966
228 1 0.323675 0.0761349 0.575174
232 1 0.513032 0.0852481 0.586241
671 1 0.910814 0.4898 0.573895
70 1 0.912809 0.433995 0.995723
302 1 0.59784 0.0860781 0.670832
255 1 0.575587 0.166806 0.588238
236 1 0.661059 0.0900583 0.572308
259 1 0.759518 0.181635 0.589363
49 1 0.999294 0.334557 0.997479
241 1 0.00403734 0.172333 0.505014
240 1 0.832835 0.0770052 0.578371
311 1 0.90823 0.00193206 0.747095
291 1 0.0721033 0.0170778 0.747289
243 1 0.067399 0.169758 0.592202
248 1 0.164835 0.252165 0.566287
797 1 0.163631 0.498834 0.820314
313 1 0.985574 0.179665 0.666582
247 1 0.265925 0.173961 0.577976
743 1 0.918803 0.496593 0.780933
271 1 0.25975 0.339976 0.576058
252 1 0.346869 0.245494 0.576787
321 1 0.337732 0.148669 0.654673
251 1 0.420824 0.143631 0.583379
322 1 0.418086 0.244036 0.667208
325 1 0.506711 0.169519 0.680579
256 1 0.495992 0.23808 0.581147
326 1 0.583413 0.251146 0.688505
260 1 0.661295 0.243739 0.582712
22 1 0.90732 0.08837 0.987077
329 1 0.67544 0.172701 0.667982
283 1 0.749253 0.326809 0.58742
264 1 0.826284 0.261017 0.567148
353 1 0.665835 0.315396 0.658199
420 1 0.33462 0.431214 0.918624
383 1 0.931838 0.00139024 0.9201
263 1 0.916383 0.165136 0.576582
244 1 0.988656 0.253241 0.57466
367 1 0.251939 0.0129264 0.90571
267 1 0.0803068 0.331375 0.580309
337 1 0.988183 0.323366 0.662977
272 1 0.169734 0.40854 0.560967
733 1 0.513474 0.492074 0.671204
739 1 0.745209 0.486434 0.740083
345 1 0.336403 0.345566 0.669162
276 1 0.340657 0.423377 0.560725
30 1 0.249033 0.259399 0.991126
25 1 0.997536 0.156475 0.992622
2 1 0.0851617 0.0887069 0.992363
275 1 0.40951 0.320852 0.573557
426 1 0.759932 0.415594 0.838162
346 1 0.41533 0.412557 0.649991
667 1 0.744343 0.491073 0.602197
349 1 0.48905 0.335167 0.66446
279 1 0.560667 0.333601 0.591973
280 1 0.493291 0.421998 0.586927
350 1 0.585561 0.408666 0.674973
284 1 0.660339 0.423091 0.58498
301 1 0.496754 0.0102557 0.665825
354 1 0.733594 0.396185 0.671084
288 1 0.82863 0.399067 0.58773
234 1 0.745883 0.075564 0.504884
287 1 0.914663 0.328913 0.568704
268 1 0.994274 0.411107 0.565721
379 1 0.738868 0.0157307 0.908003
358 1 0.917459 0.408838 0.658577
735 1 0.576932 0.491538 0.760129
296 1 0.161885 0.0837298 0.744771
292 1 0.987286 0.0910237 0.747649
362 1 0.0765117 0.0917944 0.821478
37 1 0.487585 0.174959 0.992789
281 1 0.650165 0.344143 0.503883
366 1 0.243133 0.0886142 0.819625
298 1 0.426491 0.0841186 0.668319
300 1 0.331836 0.0655159 0.73957
370 1 0.416772 0.0864578 0.824858
29 1 0.165182 0.166119 0.982704
428 1 0.667968 0.420645 0.909208
304 1 0.503555 0.0875739 0.75832
397 1 0.50422 0.181312 0.834167
308 1 0.676681 0.0983048 0.765586
374 1 0.589737 0.0678861 0.828553
306 1 0.733742 0.0831769 0.663149
423 1 0.583213 0.350557 0.915909
331 1 0.754512 0.169781 0.752287
333 1 0.84205 0.168424 0.654365
310 1 0.928128 0.0848518 0.656774
312 1 0.819738 0.092031 0.750828
335 1 0.909078 0.165137 0.740332
382 1 0.912918 0.092437 0.83957
405 1 0.842308 0.170249 0.826965
317 1 0.162644 0.168436 0.659141
315 1 0.0697007 0.179531 0.750757
314 1 0.0909733 0.249943 0.670187
339 1 0.0665973 0.332703 0.757643
320 1 0.181278 0.255074 0.752481
316 1 0.989679 0.248787 0.751782
319 1 0.257151 0.165666 0.747616
318 1 0.266653 0.263664 0.664476
343 1 0.259677 0.347866 0.760157
389 1 0.161012 0.1683 0.808804
393 1 0.331385 0.168336 0.848305
323 1 0.40288 0.165408 0.741217
324 1 0.331624 0.250897 0.748107
347 1 0.410548 0.330295 0.749949
327 1 0.581297 0.165572 0.761284
328 1 0.504109 0.254564 0.762741
332 1 0.66716 0.246129 0.748053
425 1 0.67946 0.328623 0.838022
401 1 0.645078 0.168954 0.841069
398 1 0.589606 0.258559 0.834028
421 1 0.491894 0.338218 0.83233
330 1 0.747893 0.251981 0.660474
336 1 0.832342 0.250779 0.743187
402 1 0.748704 0.232478 0.841467
334 1 0.907523 0.252562 0.652013
357 1 0.829188 0.326645 0.667828
406 1 0.907382 0.252062 0.83693
338 1 0.0573313 0.420315 0.663159
410 1 0.082429 0.419433 0.82134
341 1 0.15606 0.33807 0.659623
344 1 0.149881 0.418036 0.730321
342 1 0.252272 0.420788 0.674704
348 1 0.356547 0.423277 0.757196
18 1 0.736264 0.0877556 0.991218
418 1 0.419865 0.436816 0.843639
289 1 0.989499 0.000909072 0.673578
5 1 0.170482 0.0184772 0.983349
352 1 0.485726 0.41615 0.752801
351 1 0.587831 0.340277 0.759149
356 1 0.666916 0.4108 0.76272
17 1 0.649904 0.0114798 0.988355
66 1 0.746393 0.431254 0.992979
422 1 0.579483 0.419651 0.833153
355 1 0.747845 0.330236 0.749953
416 1 0.165537 0.420916 0.895341
359 1 0.918508 0.330792 0.764368
340 1 0.986371 0.412088 0.742368
424 1 0.501206 0.417152 0.924404
429 1 0.830151 0.328306 0.837109
360 1 0.833382 0.407921 0.744508
430 1 0.924556 0.412609 0.834129
669 1 0.833819 0.497007 0.504588
368 1 0.151206 0.103205 0.895069
364 1 0.99728 0.080717 0.904154
387 1 0.0851299 0.177412 0.9085
361 1 0.988845 0.00616832 0.826362
45 1 0.823456 0.171212 0.996337
655 1 0.251366 0.498128 0.57092
372 1 0.351052 0.0703623 0.915225
391 1 0.239214 0.18459 0.90788
725 1 0.16569 0.497663 0.650236
299 1 0.419887 0.00611141 0.739626
69 1 0.830382 0.343047 0.998097
419 1 0.418669 0.343942 0.920507
309 1 0.82897 0.00136775 0.662046
376 1 0.50578 0.07967 0.898064
399 1 0.577489 0.179322 0.924548
380 1 0.651027 0.0919032 0.918512
33 1 0.342767 0.172891 0.977985
257 1 0.660023 0.179475 0.505806
21 1 0.832776 0.00632914 0.992317
378 1 0.74319 0.105528 0.842398
10 1 0.422986 0.0918731 0.991401
54 1 0.239471 0.429598 0.993233
384 1 0.826998 0.0914601 0.923521
432 1 0.845636 0.437507 0.910017
386 1 0.087998 0.259436 0.840877
388 1 0.9933 0.256125 0.923174
392 1 0.179901 0.268825 0.904091
365 1 0.157285 0.00559637 0.828807
414 1 0.264047 0.434105 0.830045
413 1 0.163236 0.335402 0.807124
390 1 0.26305 0.263 0.829831
417 1 0.337375 0.34858 0.833854
53 1 0.164011 0.339256 0.998316
395 1 0.421498 0.167882 0.903418
394 1 0.404791 0.266787 0.84081
396 1 0.330833 0.257678 0.917102
737 1 0.657241 0.496174 0.67678
254 1 0.580772 0.254569 0.51394
400 1 0.501873 0.253879 0.912827
415 1 0.250572 0.353156 0.908937
404 1 0.657056 0.263419 0.92782
403 1 0.729976 0.174867 0.922938
408 1 0.839367 0.261937 0.923569
427 1 0.748648 0.328507 0.91419
26 1 0.0839975 0.251439 0.993514
385 1 0.001106 0.177188 0.834007
407 1 0.919219 0.168229 0.909958
431 1 0.913545 0.339788 0.925039
409 1 0.0031919 0.334329 0.847241
411 1 0.0849059 0.334456 0.924468
412 1 0.00726193 0.412069 0.912595
65 1 0.671572 0.353411 0.998523
218 1 0.08985 0.0803662 0.501338
795 1 0.0864512 0.495829 0.906035
729 1 0.336072 0.49626 0.680403
381 1 0.82353 0.00944259 0.842078
303 1 0.587769 0.00266832 0.749238
651 1 0.0818025 0.49714 0.580102
238 1 0.920646 0.0929337 0.505316
261 1 0.84155 0.174337 0.506415
58 1 0.427957 0.42288 0.993256
9 1 0.347436 0.00725846 0.998941
373 1 0.507387 0.00129524 0.824017
14 1 0.563059 0.103414 0.997413
282 1 0.743844 0.418156 0.519717
440 1 0.167757 0.587961 0.0797397
436 1 0.00318456 0.589931 0.0827129
444 1 0.341439 0.590947 0.0739006
533 1 0.16953 0.685695 0.153614
636 1 0.335601 0.911011 0.405964
510 1 0.240379 0.601517 0.164935
628 1 0.00487313 0.917714 0.427425
507 1 0.0763591 0.515149 0.233319
448 1 0.520545 0.603954 0.0811499
467 1 0.421524 0.653948 0.0945977
541 1 0.512693 0.68449 0.154009
648 1 0.827617 0.919433 0.42549
81 1 0.331796 0.995102 0.162256
452 1 0.675277 0.572311 0.0645718
518 1 0.580183 0.596231 0.169493
513 1 0.333596 0.503301 0.143031
522 1 0.752744 0.590079 0.166876
475 1 0.760564 0.680933 0.0905711
717 1 0.835655 0.839987 0.499112
445 1 0.509502 0.511452 0.00161466
456 1 0.825615 0.589672 0.0943121
465 1 0.323049 0.670111 0.00225304
155 1 0.410102 0.992289 0.404673
459 1 0.0828846 0.68402 0.0823515
530 1 0.0873173 0.756632 0.159692
460 1 0.994275 0.755199 0.080156
553 1 0.980128 0.837449 0.168968
163 1 0.749633 0.991014 0.429325
464 1 0.172603 0.766709 0.0851283
463 1 0.247655 0.675865 0.0702022
537 1 0.329855 0.669781 0.153809
487 1 0.260833 0.828445 0.0835372
468 1 0.341141 0.755102 0.0676618
472 1 0.490495 0.740045 0.0724183
471 1 0.606309 0.671305 0.0882306
476 1 0.666713 0.76199 0.0895283
495 1 0.605415 0.850984 0.094652
702 1 0.246385 0.917973 0.498628
549 1 0.83606 0.671723 0.169521
662 1 0.574827 0.574891 0.499211
499 1 0.742816 0.835525 0.0853316
573 1 0.835749 0.842684 0.176564
569 1 0.666637 0.829735 0.182246
546 1 0.75529 0.767534 0.174176
710 1 0.573738 0.911479 0.498234
479 1 0.922525 0.663844 0.0847307
480 1 0.828566 0.763454 0.094852
550 1 0.920366 0.754723 0.174714
483 1 0.0644744 0.839231 0.0931871
484 1 0.991735 0.934918 0.0662486
447 1 0.589986 0.504087 0.0903979
632 1 0.142153 0.898188 0.402265
557 1 0.158021 0.837534 0.167237
488 1 0.159432 0.905545 0.0860445
558 1 0.245336 0.9218 0.157165
718 1 0.91613 0.923955 0.499922
492 1 0.329792 0.913523 0.0737884
491 1 0.412622 0.829558 0.0821494
517 1 0.501907 0.507691 0.157297
561 1 0.329494 0.84073 0.165503
161 1 0.66229 0.991802 0.339462
644 1 0.656852 0.913624 0.418089
496 1 0.512173 0.912946 0.0727915
500 1 0.685475 0.924591 0.0967971
566 1 0.582275 0.923179 0.17499
470 1 0.567548 0.778102 0.00532079
79 1 0.229104 0.999184 0.251966
570 1 0.754925 0.905743 0.179109
7 1 0.230066 0.996019 0.0796965
157 1 0.493818 0.993362 0.330338
503 1 0.912218 0.844928 0.0898563
504 1 0.820122 0.914384 0.0753084
574 1 0.906105 0.932303 0.144378
625 1 0.00618574 0.834911 0.337921
506 1 0.0966583 0.584268 0.147576
529 1 0.0115118 0.675483 0.169002
689 1 0.663759 0.673371 0.497371
508 1 0.00390591 0.59632 0.254758
601 1 0.988631 0.665495 0.340581
512 1 0.169707 0.57334 0.240914
582 1 0.249654 0.575205 0.333921
587 1 0.420254 0.502408 0.416555
521 1 0.665632 0.519505 0.168291
514 1 0.407272 0.570473 0.158938
670 1 0.921559 0.570498 0.490625
516 1 0.320486 0.597189 0.254303
685 1 0.504472 0.673815 0.498848
545 1 0.677641 0.670001 0.186186
433 1 0.99763 0.505948 0.00258767
520 1 0.498106 0.589085 0.241623
524 1 0.674432 0.592088 0.261855
647 1 0.925153 0.835515 0.422959
594 1 0.754208 0.58146 0.336517
547 1 0.763691 0.664555 0.241884
617 1 0.656198 0.673134 0.336034
151 1 0.243745 0.996156 0.408259
526 1 0.91433 0.584305 0.170978
528 1 0.833249 0.582259 0.257638
598 1 0.898268 0.589577 0.337141
531 1 0.0974904 0.658918 0.246313
532 1 0.000665147 0.727841 0.254836
534 1 0.249389 0.758026 0.161062
535 1 0.248284 0.674899 0.248276
536 1 0.162213 0.743224 0.250673
540 1 0.332215 0.754592 0.245808
538 1 0.422475 0.7562 0.168409
539 1 0.415311 0.66332 0.234322
610 1 0.410998 0.759006 0.322846
563 1 0.407265 0.851738 0.250595
544 1 0.508581 0.758077 0.248896
543 1 0.583051 0.677821 0.250798
542 1 0.5924 0.753756 0.177724
567 1 0.584419 0.842372 0.255472
614 1 0.568239 0.75884 0.331639
548 1 0.666404 0.748889 0.25893
618 1 0.760932 0.751633 0.329249
552 1 0.833017 0.748012 0.243213
571 1 0.752007 0.828979 0.263305
641 1 0.670542 0.831165 0.338328
551 1 0.910109 0.664292 0.247216
575 1 0.919094 0.833852 0.249535
621 1 0.82697 0.668347 0.339119
622 1 0.911697 0.748876 0.333699
554 1 0.0786116 0.923988 0.152071
555 1 0.0752143 0.827843 0.25081
560 1 0.163734 0.911788 0.23819
556 1 0.993802 0.916727 0.246971
626 1 0.0773006 0.913468 0.321534
635 1 0.418006 0.821626 0.414874
559 1 0.246415 0.83183 0.245974
630 1 0.242831 0.921033 0.324204
457 1 0.0108159 0.672604 0.00627406
562 1 0.417837 0.920644 0.156692
501 1 0.840109 0.837027 0.00899901
564 1 0.318585 0.931044 0.247031
11 1 0.419346 0.99202 0.080654
634 1 0.4258 0.915922 0.330283
565 1 0.510749 0.840318 0.172644
568 1 0.505531 0.920545 0.24878
638 1 0.589219 0.904596 0.334729
637 1 0.493676 0.838501 0.330737
83 1 0.406454 0.990309 0.253235
645 1 0.836238 0.849782 0.327642
572 1 0.671097 0.924687 0.24301
642 1 0.754538 0.916419 0.335571
585 1 0.336321 0.501004 0.341045
646 1 0.918173 0.9189 0.334571
576 1 0.833956 0.927675 0.242217
705 1 0.326716 0.844627 0.486186
694 1 0.926591 0.751361 0.499487
681 1 0.323765 0.680522 0.480347
578 1 0.08154 0.591498 0.341759
580 1 0.00331761 0.582324 0.407349
605 1 0.169177 0.667195 0.327815
609 1 0.322481 0.674406 0.334174
584 1 0.165143 0.579191 0.402352
607 1 0.234185 0.675668 0.418977
650 1 0.0832284 0.578361 0.488019
439 1 0.247132 0.502601 0.0624946
75 1 0.0865471 0.999907 0.236396
588 1 0.327309 0.583102 0.420909
586 1 0.418775 0.589347 0.322212
592 1 0.493806 0.588663 0.416107
478 1 0.919974 0.750537 0.00158298
441 1 0.341282 0.510794 0.0016918
706 1 0.422706 0.918705 0.4887
590 1 0.582161 0.58815 0.331898
596 1 0.664091 0.565817 0.424457
95 1 0.916747 0.995635 0.245278
453 1 0.826574 0.510888 0.00690922
599 1 0.904638 0.501582 0.404181
149 1 0.155001 0.993584 0.333465
639 1 0.569917 0.834655 0.42132
600 1 0.830009 0.588159 0.418349
623 1 0.911206 0.656439 0.429841
443 1 0.421378 0.513762 0.0723414
602 1 0.0843795 0.747082 0.329655
603 1 0.0839441 0.670828 0.411132
523 1 0.747762 0.504187 0.259841
606 1 0.241557 0.755502 0.333848
434 1 0.0848363 0.600761 0.0134118
608 1 0.158471 0.751866 0.412251
631 1 0.231859 0.839512 0.416834
435 1 0.0884024 0.500576 0.0852563
633 1 0.338425 0.832967 0.328503
611 1 0.408414 0.676743 0.40944
612 1 0.328558 0.763319 0.413676
616 1 0.506173 0.741215 0.416033
147 1 0.0837128 0.982698 0.409076
613 1 0.49909 0.674504 0.32871
615 1 0.575612 0.659479 0.422292
145 1 0.999457 0.994698 0.333157
643 1 0.744961 0.841544 0.429057
619 1 0.735956 0.664959 0.417995
620 1 0.637556 0.747771 0.417069
624 1 0.829182 0.747473 0.421688
654 1 0.237823 0.594284 0.489857
454 1 0.922195 0.591897 0.00778085
640 1 0.488016 0.918143 0.41232
604 1 0.991603 0.745641 0.418943
627 1 0.0670047 0.82524 0.42328
509 1 0.186238 0.504592 0.161727
629 1 0.164266 0.828469 0.317897
221 1 0.160914 0.990435 0.497316
481 1 0.991772 0.837094 0.00793031
527 1 0.927908 0.511266 0.266786
446 1 0.587958 0.589504 0.00713794
698 1 0.0860332 0.911624 0.497781
455 1 0.926436 0.511785 0.0838911
85 1 0.497061 0.996157 0.161526
237 1 0.835792 0.998023 0.496937
473 1 0.6645 0.677142 5.45228e-05
482 1 0.0909592 0.910098 0.0103407
153 1 0.322808 0.996652 0.338513
477 1 0.84459 0.660528 0.00072228
690 1 0.737668 0.754145 0.489759
159 1 0.585703 0.999686 0.413412
450 1 0.759875 0.589797 0.00529995
486 1 0.241098 0.913252 0.00638516
722 1 0.0869782 0.570716 0.657778
652 1 0.997615 0.579926 0.577003
749 1 0.165365 0.669733 0.66799
661 1 0.495778 0.501146 0.502406
656 1 0.1627 0.58526 0.571076
859 1 0.762821 0.826319 0.917107
726 1 0.255426 0.57851 0.653447
660 1 0.342834 0.597415 0.584097
730 1 0.409696 0.592633 0.668267
664 1 0.495939 0.579878 0.596761
683 1 0.418044 0.675987 0.593421
233 1 0.662936 0.99396 0.502097
731 1 0.417622 0.510854 0.746988
658 1 0.415405 0.609109 0.500893
734 1 0.584036 0.576086 0.658385
757 1 0.504092 0.668934 0.666606
219 1 0.0666063 0.996115 0.585817
668 1 0.655432 0.582904 0.584267
738 1 0.730251 0.58507 0.682647
371 1 0.428106 0.989675 0.904222
672 1 0.830849 0.578162 0.580903
742 1 0.914499 0.579684 0.665118
675 1 0.0734652 0.65993 0.58523
745 1 0.00318652 0.660391 0.680349
746 1 0.0857168 0.740456 0.666384
769 1 0.979738 0.831883 0.671472
679 1 0.254198 0.666632 0.588895
680 1 0.157983 0.760779 0.586634
684 1 0.330231 0.754199 0.569188
723 1 0.0757291 0.504129 0.749511
754 1 0.409365 0.750016 0.672187
777 1 0.327152 0.845406 0.669321
753 1 0.32798 0.687665 0.667757
442 1 0.417156 0.594361 0.994795
688 1 0.49452 0.755251 0.582911
687 1 0.579068 0.664599 0.589055
863 1 0.921205 0.834896 0.908171
758 1 0.57697 0.753135 0.672315
462 1 0.258843 0.76254 0.990012
692 1 0.658569 0.746377 0.584518
691 1 0.747995 0.647605 0.591969
762 1 0.746044 0.743463 0.648655
715 1 0.753423 0.830914 0.579111
761 1 0.653721 0.666137 0.674791
789 1 0.817085 0.834983 0.661065
231 1 0.577219 0.999273 0.571034
676 1 0.996652 0.751168 0.590628
696 1 0.826175 0.752826 0.568602
695 1 0.920808 0.665326 0.576566
766 1 0.919644 0.731708 0.665688
719 1 0.913658 0.832655 0.585405
699 1 0.0797056 0.848064 0.594507
770 1 0.0822695 0.917151 0.663889
703 1 0.251222 0.838676 0.586746
704 1 0.157726 0.915438 0.581977
773 1 0.149785 0.828329 0.675257
774 1 0.249514 0.920545 0.663937
305 1 0.659186 0.992767 0.654217
707 1 0.406321 0.840089 0.574803
708 1 0.33137 0.929841 0.567779
781 1 0.49135 0.831569 0.671676
674 1 0.0779123 0.754769 0.501858
778 1 0.417784 0.924237 0.669676
857 1 0.682109 0.828885 0.836961
727 1 0.242352 0.500091 0.745737
712 1 0.494621 0.926463 0.576197
711 1 0.583583 0.831347 0.591988
782 1 0.574158 0.926618 0.65932
678 1 0.244099 0.74889 0.503499
682 1 0.412386 0.750012 0.503368
716 1 0.662756 0.913266 0.572515
786 1 0.731237 0.910498 0.662083
720 1 0.830499 0.916804 0.573935
700 1 0.99778 0.922007 0.585349
790 1 0.89713 0.906076 0.659669
659 1 0.420985 0.504891 0.591553
497 1 0.678458 0.826845 0.985842
728 1 0.169444 0.575019 0.747283
701 1 0.171792 0.831925 0.503032
732 1 0.334947 0.584697 0.760362
751 1 0.246577 0.670885 0.743427
821 1 0.178913 0.663496 0.830693
798 1 0.25705 0.583525 0.835626
736 1 0.491432 0.596262 0.743485
755 1 0.411779 0.673026 0.742997
802 1 0.411783 0.58963 0.826964
825 1 0.341614 0.676805 0.833934
829 1 0.495062 0.673114 0.834506
853 1 0.496005 0.843696 0.821176
806 1 0.577942 0.585657 0.826121
437 1 0.16059 0.503175 0.992338
740 1 0.648394 0.585174 0.748523
744 1 0.822055 0.590074 0.74356
810 1 0.747181 0.591503 0.833363
763 1 0.73538 0.665912 0.7446
765 1 0.834098 0.678056 0.643646
724 1 0.997687 0.568673 0.738661
814 1 0.926641 0.59157 0.843176
741 1 0.830095 0.501618 0.672897
747 1 0.0812303 0.655171 0.753263
748 1 0.986901 0.749601 0.75815
771 1 0.0629366 0.834734 0.753844
818 1 0.0748858 0.758783 0.828671
845 1 0.156109 0.831189 0.821012
752 1 0.153311 0.743002 0.755388
750 1 0.254226 0.761952 0.665181
822 1 0.24563 0.753413 0.829053
756 1 0.327849 0.771678 0.747963
779 1 0.416455 0.847402 0.740126
826 1 0.407557 0.759937 0.811855
760 1 0.491512 0.737924 0.755661
759 1 0.579539 0.665084 0.755188
783 1 0.578605 0.829841 0.748453
830 1 0.574818 0.756888 0.814519
764 1 0.655526 0.747142 0.746759
834 1 0.748276 0.744886 0.830225
768 1 0.823574 0.73445 0.737509
785 1 0.666253 0.822734 0.656007
767 1 0.914384 0.663683 0.754372
837 1 0.841586 0.666223 0.840199
817 1 0.00370071 0.660449 0.820656
838 1 0.922646 0.73829 0.842085
791 1 0.90238 0.834164 0.753324
861 1 0.829092 0.819512 0.825245
842 1 0.0732637 0.938479 0.835739
776 1 0.14834 0.929596 0.745057
772 1 0.980781 0.909278 0.74094
775 1 0.236851 0.829157 0.74024
466 1 0.415653 0.748487 0.993346
657 1 0.341263 0.518566 0.507784
780 1 0.333975 0.931364 0.74266
784 1 0.499448 0.921863 0.737565
788 1 0.666703 0.897317 0.753427
787 1 0.748696 0.824003 0.745094
799 1 0.254442 0.503573 0.916565
235 1 0.749614 0.998043 0.587637
449 1 0.673187 0.50175 0.990438
803 1 0.417345 0.500839 0.922242
792 1 0.833914 0.921126 0.749517
862 1 0.917729 0.920188 0.823933
697 1 0.00155065 0.841876 0.509334
794 1 0.0846801 0.588616 0.835015
813 1 0.823381 0.509133 0.829457
800 1 0.169043 0.5777 0.915014
804 1 0.326553 0.584486 0.921346
858 1 0.749182 0.914994 0.839549
474 1 0.765097 0.750743 0.994628
808 1 0.492747 0.591876 0.918285
369 1 0.324548 0.997949 0.830814
812 1 0.66252 0.59382 0.916574
807 1 0.579074 0.505911 0.918223
793 1 0.00704923 0.517773 0.836058
709 1 0.494124 0.827749 0.502066
864 1 0.830659 0.920436 0.914263
663 1 0.581342 0.500792 0.578458
493 1 0.482289 0.85034 0.982482
223 1 0.236357 0.999789 0.588927
796 1 0.0227577 0.593379 0.929498
816 1 0.836516 0.584037 0.910541
839 1 0.932467 0.672546 0.933696
297 1 0.326897 0.99069 0.655281
819 1 0.078861 0.680257 0.910173
823 1 0.267139 0.665838 0.916863
824 1 0.164019 0.761735 0.906655
847 1 0.241002 0.838877 0.90328
828 1 0.330825 0.755429 0.913131
438 1 0.24851 0.590579 0.996109
307 1 0.751006 0.984178 0.740291
713 1 0.664247 0.828764 0.508745
801 1 0.339624 0.505656 0.842281
827 1 0.416794 0.669558 0.924906
832 1 0.491646 0.754469 0.92145
831 1 0.577614 0.688263 0.907985
836 1 0.673175 0.746145 0.908846
833 1 0.671426 0.666935 0.843927
835 1 0.760569 0.662054 0.916487
854 1 0.582858 0.914483 0.815441
820 1 0.996076 0.760773 0.908353
841 1 0.982841 0.824168 0.82392
840 1 0.838883 0.760889 0.918334
844 1 0.998413 0.912348 0.918667
375 1 0.577724 0.99033 0.904662
485 1 0.17621 0.836448 0.996787
848 1 0.157221 0.928139 0.910642
843 1 0.0940578 0.839076 0.922952
295 1 0.254169 0.999979 0.746673
846 1 0.237124 0.926138 0.828746
673 1 0.0036 0.65868 0.50106
811 1 0.759116 0.518376 0.915443
714 1 0.746731 0.919934 0.510032
852 1 0.328362 0.920831 0.907026
498 1 0.756641 0.922311 0.985786
856 1 0.504869 0.911717 0.898736
851 1 0.421463 0.841751 0.893908
849 1 0.327988 0.851966 0.825982
850 1 0.426597 0.925347 0.811545
461 1 0.161817 0.671416 0.978415
855 1 0.579185 0.827963 0.895252
458 1 0.0920647 0.75554 0.99755
860 1 0.661138 0.920489 0.905616
502 1 0.916955 0.917679 0.998351
805 1 0.502196 0.510283 0.838882
494 1 0.585879 0.903071 0.98258
721 1 0.991797 0.501605 0.65017
293 1 0.155856 0.994065 0.663116
469 1 0.51083 0.669405 0.989546
809 1 0.666689 0.510229 0.826598
489 1 0.355352 0.839657 0.984138
666 1 0.746525 0.568801 0.51137
686 1 0.5853 0.748823 0.507857
677 1 0.172742 0.672088 0.508001
815 1 0.926527 0.521662 0.916769
693 1 0.824724 0.661868 0.508532
490 1 0.415871 0.926716 0.999903
377 1 0.672244 0.993848 0.82058
239 1 0.920612 0.997269 0.581047
363 1 0.0729599 0.993259 0.934021
