ITEM: TIMESTEP
7250
ITEM: NUMBER OF ATOMS
864
ITEM: BOX BOUNDS pp pp pp
0.0000000000000000e+00 3.1559999999999999e+01
0.0000000000000000e+00 3.1559999999999999e+01
0.0000000000000000e+00 3.1559999999999999e+01
ITEM: ATOMS id type xs ys zs
4 1 1.00514 0.102296 0.0949538
29 1 0.171049 0.178455 -0.00308285
146 1 0.0856782 0.0881125 0.175745
145 1 0.00429033 0.991015 0.161691
2 1 0.0806891 0.0771579 -7.55104e-06
8 1 0.164935 0.0893683 0.0888071
31 1 0.248452 0.172902 0.0828561
177 1 0.333686 0.163983 0.162169
173 1 0.164193 0.157145 0.16713
12 1 0.344749 0.0892256 0.0802707
35 1 0.423574 0.171747 0.0813117
154 1 0.40609 0.0819364 0.171202
181 1 0.497557 0.164909 0.158866
9 1 0.322151 1.00015 1.01093
10 1 0.407017 0.0672019 -0.000346614
16 1 0.492853 0.0632753 0.0753265
14 1 0.595391 0.0845931 -0.00441113
39 1 0.578176 0.157965 0.0884764
157 1 0.489817 0.983153 0.169964
158 1 0.572222 0.0720975 0.17656
185 1 0.664227 0.16357 0.162548
20 1 0.671699 0.0861091 0.0808324
18 1 0.748146 0.0928278 0.998484
162 1 0.755798 0.0937053 0.156004
24 1 0.842257 0.0915588 0.0964667
41 1 0.678906 0.175167 -0.00211539
43 1 0.760082 0.177203 0.0790347
166 1 0.929271 0.0859721 0.168898
47 1 0.919502 0.18748 0.0850874
189 1 0.842777 0.182359 0.176509
45 1 0.840761 0.160463 0.995974
27 1 0.0801607 0.175838 0.0746163
28 1 0.00848043 0.251771 0.0920792
26 1 0.0746799 0.251925 -0.00912433
32 1 0.16526 0.261995 0.0750829
51 1 0.0869954 0.340378 0.0778856
49 1 1.00359 0.330183 0.991422
30 1 0.247197 0.251477 1.00209
53 1 0.156527 0.335579 0.993831
174 1 0.259136 0.241924 0.173282
201 1 0.335836 0.343588 0.180263
36 1 0.349332 0.272045 0.099426
40 1 0.504695 0.251039 0.09685
34 1 0.413583 0.254028 0.00826771
57 1 0.328071 0.320592 0.992417
59 1 0.440973 0.335323 0.0984584
63 1 0.591038 0.329006 0.107339
182 1 0.576998 0.243572 0.180858
44 1 0.681223 0.253529 0.0915185
67 1 0.756305 0.338593 0.0844719
186 1 0.751188 0.251722 0.173781
209 1 0.680042 0.320203 0.181978
42 1 0.764368 0.258861 0.00375091
48 1 0.833347 0.265367 0.0901108
71 1 0.927361 0.324155 0.0994216
190 1 0.922649 0.245854 0.181634
69 1 0.834538 0.344053 0.987233
56 1 0.166807 0.405995 0.0788852
75 1 0.0898795 0.491089 0.0906618
52 1 1.0042 0.408191 0.09271
193 1 0.00349002 0.323216 0.176861
55 1 0.252823 0.328536 0.0900879
79 1 0.260835 0.481252 0.0909827
54 1 0.255215 0.408626 0.989218
60 1 0.33397 0.406693 0.0674747
202 1 0.43057 0.406452 0.178849
205 1 0.504158 0.318535 0.182139
64 1 0.513803 0.411296 0.0867502
68 1 0.674743 0.417487 0.0761422
87 1 0.58448 0.499272 0.0903427
72 1 0.850228 0.398399 0.0917917
66 1 0.743765 0.428455 -0.00406669
210 1 0.737251 0.420885 0.177101
213 1 0.834818 0.325895 0.18355
95 1 0.924218 0.482435 0.101096
80 1 0.164838 0.587311 0.0898746
99 1 0.086677 0.673678 0.0820877
74 1 0.0972396 0.579312 0.00162206
76 1 0.99645 0.584981 0.0848723
77 1 0.176146 0.499495 -0.000140541
222 1 0.25531 0.573699 0.171421
78 1 0.255977 0.578661 0.0108206
105 1 0.352855 0.65391 0.0101724
84 1 0.333768 0.575889 0.0933887
83 1 0.417639 0.492977 0.0913071
88 1 0.507654 0.585913 0.10346
253 1 0.498506 0.66919 0.176083
111 1 0.583844 0.661613 0.0894374
230 1 0.582524 0.591649 0.184552
109 1 0.493046 0.669056 1.00048
92 1 0.65973 0.582473 0.0953264
91 1 0.753044 0.489318 0.0801559
115 1 0.74315 0.669782 0.0803368
90 1 0.741517 0.573769 -0.00536576
113 1 0.663194 0.660066 0.000565767
117 1 0.825602 0.66091 -0.0048355
93 1 0.824379 0.500428 0.00951143
96 1 0.822154 0.590499 0.0845603
119 1 0.915071 0.664045 0.0904417
97 1 0.00863163 0.668435 -0.00411648
123 1 0.0881127 0.835417 0.0759412
101 1 0.179606 0.655555 1.00437
242 1 0.0889999 0.753285 0.150138
104 1 0.175933 0.739451 0.0738334
103 1 0.257913 0.658392 0.0831734
129 1 0.330822 0.832228 1.00311
107 1 0.428163 0.669491 0.0853781
108 1 0.332667 0.748988 0.078022
112 1 0.510361 0.753035 0.0807182
131 1 0.414908 0.829652 0.0805113
116 1 0.666886 0.747737 0.0905349
135 1 0.589475 0.836139 0.0868493
254 1 0.588935 0.756416 0.163528
133 1 0.511592 0.830373 1.0001
120 1 0.822696 0.742089 0.0779801
139 1 0.750976 0.837198 0.0821758
258 1 0.743877 0.750155 0.169718
281 1 0.672909 0.839092 0.173111
100 1 0.010386 0.751707 0.0752173
143 1 0.917696 0.837652 0.0735189
285 1 0.831508 0.835885 0.16119
3 1 0.0833037 1.00757 0.0842548
128 1 0.16725 0.922074 0.0710266
124 1 0.998657 0.918212 0.0800358
7 1 0.251386 0.990976 0.0813294
149 1 0.168835 -0.000735591 0.151357
127 1 0.256145 0.829972 0.0825314
270 1 0.246726 0.907792 0.162624
126 1 0.259533 0.908406 -0.00142458
11 1 0.410033 0.989992 0.0888069
132 1 0.342027 0.902758 0.0854629
136 1 0.496104 0.906152 0.0773106
273 1 0.330747 0.826396 0.162474
130 1 0.411655 0.898937 -0.00762524
15 1 0.594253 0.0146086 0.0886839
278 1 0.602518 0.925194 0.170223
13 1 0.488423 -0.0241644 0.999682
134 1 0.579889 0.909671 0.00211922
140 1 0.672112 0.928458 0.0944767
19 1 0.747589 0.00443236 0.0882604
282 1 0.758637 0.925939 0.176808
161 1 0.672363 0.0168863 0.165249
17 1 0.671733 1.00941 0.00874696
23 1 0.921218 0.00128161 0.0839883
165 1 0.848257 0.00474283 0.166795
144 1 0.828687 0.924585 0.0841183
142 1 0.912394 0.925341 0.99743
290 1 0.10096 0.0827288 0.315928
152 1 0.182161 0.07439 0.244257
148 1 0.000201372 0.0981275 0.258698
147 1 0.0865634 -0.0015366 0.25977
293 1 0.173548 -0.00399358 0.3327
153 1 0.327461 0.985446 0.15872
150 1 0.255332 0.0794721 0.165224
175 1 0.250666 0.161656 0.242756
321 1 0.335615 0.180925 0.323496
317 1 0.16924 0.160615 0.329211
294 1 0.250556 0.0853703 0.324563
156 1 0.330073 0.0890758 0.250894
325 1 0.514004 0.159461 0.342957
298 1 0.406828 0.0938571 0.331598
160 1 0.479164 0.0813833 0.239724
302 1 0.581457 0.0745878 0.327335
183 1 0.592773 0.158157 0.255733
159 1 0.572843 -0.00946071 0.246967
301 1 0.487415 1.00462 0.32358
305 1 0.679687 0.997677 0.331541
164 1 0.664988 0.0787075 0.254636
187 1 0.741002 0.163837 0.252184
306 1 0.756993 0.0759537 0.335915
333 1 0.851292 0.165234 0.343934
168 1 0.8375 0.100082 0.256192
310 1 0.924823 0.0864442 0.335422
170 1 0.0939105 0.249167 0.158932
171 1 0.0855319 0.1761 0.252907
172 1 1.00342 0.24605 0.265791
314 1 0.0865477 0.25217 0.337276
197 1 0.175287 0.340861 0.16752
176 1 0.166175 0.259629 0.242845
180 1 0.348701 0.259895 0.244432
199 1 0.246023 0.330491 0.249921
341 1 0.168426 0.328497 0.325334
318 1 0.247054 0.24614 0.320963
345 1 0.324872 0.333806 0.332573
178 1 0.419893 0.242364 0.169594
179 1 0.413685 0.166754 0.249455
203 1 0.427106 0.336943 0.260286
322 1 0.421163 0.249318 0.330706
184 1 0.504805 0.242939 0.269317
349 1 0.511568 0.325823 0.34776
188 1 0.660924 0.248097 0.247383
326 1 0.58845 0.256107 0.334546
211 1 0.742807 0.336305 0.257659
330 1 0.743385 0.255539 0.347768
169 1 0.992821 0.172549 0.172941
191 1 0.92053 0.164414 0.263828
192 1 0.828982 0.251098 0.273535
215 1 0.920131 0.327592 0.251212
334 1 0.929168 0.244564 0.349777
195 1 0.0938419 0.336567 0.247521
194 1 0.0863143 0.409746 0.168524
196 1 1.00003 0.403543 0.251096
200 1 0.170866 0.415802 0.24225
217 1 0.00593202 0.492362 0.168356
198 1 0.246761 0.411829 0.172272
342 1 0.251263 0.409403 0.322986
204 1 0.347131 0.414277 0.247628
223 1 0.249119 0.501514 0.243678
365 1 0.17727 0.484462 0.333447
227 1 0.421653 0.497204 0.249484
346 1 0.406819 0.40551 0.338588
208 1 0.508672 0.407202 0.25835
206 1 0.606154 0.415323 0.181256
207 1 0.588609 0.336869 0.259883
212 1 0.664712 0.413302 0.268688
231 1 0.588015 0.50211 0.251439
353 1 0.672231 0.33404 0.356367
237 1 0.833388 0.501482 0.169562
216 1 0.841517 0.410848 0.266936
214 1 0.917559 0.418092 0.182362
239 1 0.918518 0.49092 0.254732
221 1 0.169235 0.497633 0.163762
219 1 0.0907544 0.50469 0.249403
218 1 0.0773095 0.577183 0.156894
241 1 0.00731799 0.658519 0.162382
243 1 0.078993 0.664555 0.235517
224 1 0.166274 0.586789 0.223026
245 1 0.172197 0.67196 0.163185
366 1 0.25126 0.580425 0.330341
228 1 0.338141 0.589647 0.251239
225 1 0.335627 0.50532 0.171944
226 1 0.418421 0.588929 0.168107
251 1 0.419635 0.662612 0.253449
370 1 0.41832 0.583486 0.331485
232 1 0.495267 0.578887 0.237926
229 1 0.511166 0.49191 0.172517
236 1 0.692994 0.578133 0.254594
255 1 0.594177 0.675997 0.244769
373 1 0.501283 0.494609 0.325715
233 1 0.666738 0.510132 0.175455
234 1 0.750696 0.585003 0.157378
235 1 0.757625 0.494824 0.256822
378 1 0.757977 0.578799 0.33908
405 1 0.840683 0.664556 0.326971
238 1 0.931061 0.577167 0.176194
385 1 1.00771 0.661238 0.312822
240 1 0.835231 0.584336 0.23837
220 1 0.00615555 0.577211 0.252279
382 1 0.910415 0.588341 0.320018
244 1 0.0145905 0.750236 0.23892
249 1 0.32862 0.662579 0.159338
247 1 0.244461 0.668917 0.239442
389 1 0.163694 0.649838 0.316828
246 1 0.24922 0.754775 0.154682
248 1 0.156254 0.741641 0.235094
252 1 0.329604 0.746358 0.255613
271 1 0.233807 0.825207 0.247877
250 1 0.420027 0.744641 0.165452
277 1 0.507021 0.828803 0.163569
256 1 0.493682 0.758754 0.253179
279 1 0.582264 0.83905 0.24978
398 1 0.577565 0.753493 0.321156
259 1 0.751648 0.667008 0.246665
257 1 0.677662 0.657635 0.163805
260 1 0.662117 0.754539 0.253813
283 1 0.749764 0.839077 0.257226
264 1 0.837524 0.761847 0.243099
261 1 0.834851 0.674673 0.169334
262 1 0.936273 0.744968 0.160214
263 1 0.920321 0.66795 0.236643
266 1 0.0921173 0.913748 0.153705
269 1 0.161614 0.835782 0.161725
265 1 0.997636 0.837305 0.157454
267 1 0.0856719 0.843216 0.24087
268 1 0.00131128 0.92833 0.242411
151 1 0.264521 0.99728 0.239068
272 1 0.170922 0.933359 0.238196
276 1 0.3236 0.903684 0.250919
297 1 0.32359 0.997216 0.339891
275 1 0.414356 0.8304 0.246244
274 1 0.414207 0.908756 0.169609
155 1 0.407242 -0.00608152 0.248709
418 1 0.41269 0.925712 0.329248
280 1 0.503919 0.914253 0.24662
421 1 0.508148 0.827149 0.343329
284 1 0.67705 0.928223 0.242636
422 1 0.575041 0.921582 0.334988
163 1 0.755281 0.0118904 0.239029
426 1 0.759146 0.920782 0.332656
286 1 0.912469 0.916196 0.163668
287 1 0.926603 0.832127 0.246731
309 1 0.835734 0.995238 0.325198
167 1 0.92164 1.01425 0.240014
288 1 0.843794 0.913625 0.243591
315 1 0.0891778 0.151344 0.414319
296 1 0.174106 0.0815184 0.423265
289 1 0.0136065 -0.000429566 0.332677
438 1 0.246588 0.0738946 0.504116
295 1 0.24558 -0.00354337 0.412491
300 1 0.331799 0.0683963 0.410947
323 1 0.402794 0.165034 0.409944
299 1 0.410978 -0.00566979 0.412518
304 1 0.494102 0.080499 0.409197
442 1 0.414928 0.096751 0.492788
441 1 0.33268 0.991766 0.498291
303 1 0.592963 1.00583 0.427126
327 1 0.59754 0.162467 0.420528
446 1 0.584688 0.0812859 0.504079
329 1 0.666118 0.172983 0.336333
308 1 0.673542 0.078651 0.415423
312 1 0.856982 0.0676644 0.420639
292 1 0.0137299 0.080606 0.419708
335 1 0.931132 0.161934 0.433811
313 1 0.0093163 0.157027 0.345304
311 1 0.929339 0.994201 0.400593
461 1 0.16077 0.180431 0.510212
320 1 0.173347 0.253154 0.425879
316 1 0.0151603 0.239069 0.426437
339 1 0.0918924 0.320519 0.421892
458 1 0.080119 0.241405 0.518991
485 1 0.160257 0.331187 0.503966
319 1 0.262352 0.16862 0.408615
343 1 0.25152 0.339669 0.414641
324 1 0.331122 0.263429 0.425011
462 1 0.247877 0.249035 0.500119
347 1 0.435002 0.331035 0.416003
465 1 0.326882 0.169794 0.506031
466 1 0.42182 0.238547 0.484924
493 1 0.502917 0.341302 0.496497
328 1 0.509457 0.233537 0.41954
351 1 0.590925 0.318954 0.42067
332 1 0.686071 0.235958 0.437059
331 1 0.767209 0.157086 0.413408
474 1 0.766917 0.224385 0.50533
355 1 0.760914 0.319556 0.437656
336 1 0.846633 0.229905 0.427077
359 1 0.925829 0.323826 0.428673
478 1 0.932514 0.243238 0.511974
338 1 0.090184 0.414809 0.335695
482 1 0.0925375 0.421427 0.496594
340 1 0.0113246 0.406006 0.416239
344 1 0.157819 0.405211 0.42091
509 1 0.165532 0.499192 0.498364
369 1 0.339199 0.487038 0.336172
367 1 0.248357 0.493981 0.418943
486 1 0.237478 0.407487 0.488611
348 1 0.325083 0.42321 0.424747
371 1 0.43186 0.49681 0.415566
352 1 0.517771 0.424917 0.422139
513 1 0.339736 0.511378 0.491616
377 1 0.669045 0.499435 0.330688
350 1 0.587985 0.408437 0.334397
494 1 0.589645 0.413724 0.506137
356 1 0.661985 0.415982 0.415028
354 1 0.763026 0.412544 0.346991
379 1 0.759964 0.496464 0.421469
360 1 0.83871 0.413194 0.428092
381 1 0.839819 0.498945 0.326531
337 1 1.01078 0.33103 0.337724
358 1 0.91741 0.395049 0.354104
357 1 0.841931 0.309249 0.357074
502 1 0.921905 0.403133 0.503904
361 1 1.00482 0.499168 0.322022
362 1 0.0869062 0.575052 0.332342
363 1 0.084132 0.503231 0.41856
505 1 0.00533298 0.486977 0.499107
364 1 -0.0103498 0.575784 0.396442
506 1 0.078767 0.585561 0.503638
529 1 1.00547 0.660413 0.49328
368 1 0.172666 0.573651 0.410889
391 1 0.244958 0.655536 0.414263
533 1 0.16008 0.668116 0.49925
372 1 0.328821 0.583085 0.409604
537 1 0.325925 0.666033 0.501081
514 1 0.415193 0.584775 0.493304
395 1 0.40207 0.665103 0.418031
376 1 0.495058 0.583795 0.42408
517 1 0.516674 0.502448 0.496577
401 1 0.674527 0.668154 0.327356
374 1 0.589154 0.593159 0.316345
375 1 0.579039 0.499729 0.404587
518 1 0.579268 0.592516 0.499539
380 1 0.667524 0.572244 0.408851
403 1 0.75977 0.666955 0.421676
384 1 0.844422 0.582772 0.421031
522 1 0.756422 0.577977 0.496614
383 1 0.931221 0.490997 0.423694
407 1 0.914607 0.672133 0.407849
387 1 0.0769222 0.668548 0.408363
386 1 0.0925566 0.725722 0.322125
392 1 0.162733 0.732811 0.411055
411 1 0.0808867 0.828501 0.418863
393 1 0.327193 0.672442 0.332312
390 1 0.24262 0.73705 0.3293
396 1 0.325015 0.742672 0.406491
394 1 0.412384 0.745588 0.338758
397 1 0.507891 0.665142 0.339059
419 1 0.415809 0.832944 0.414243
400 1 0.492882 0.734809 0.421408
417 1 0.34638 0.836897 0.326889
541 1 0.505161 0.662917 0.500136
399 1 0.590498 0.673263 0.406652
542 1 0.597744 0.743087 0.504125
402 1 0.754758 0.745582 0.324922
404 1 0.670576 0.747705 0.405595
425 1 0.660031 0.841352 0.3233
388 1 0.000470169 0.73678 0.397045
409 1 0.0119295 0.834898 0.316856
408 1 0.833428 0.745926 0.409829
406 1 0.927688 0.73993 0.3162
431 1 0.918424 0.82564 0.396279
550 1 0.924966 0.747891 0.481247
553 1 0.000874849 0.833069 0.496244
413 1 0.151494 0.829724 0.328651
410 1 0.0923139 0.9178 0.326804
291 1 0.0888642 0.984326 0.414717
433 1 0.00249004 0.977631 0.490319
415 1 0.247469 0.830058 0.406685
414 1 0.246773 0.904123 0.329189
416 1 0.171759 0.911286 0.404496
420 1 0.323181 0.905589 0.409157
561 1 0.32871 0.822965 0.494799
562 1 0.41837 0.914277 0.484168
424 1 0.495912 0.920828 0.400303
423 1 0.585705 0.809138 0.421569
566 1 0.593312 0.925983 0.507101
565 1 0.506866 0.831964 0.487136
427 1 0.763658 0.830496 0.414527
428 1 0.655962 0.911036 0.411546
307 1 0.768388 1.00087 0.419635
569 1 0.677689 0.847192 0.499133
449 1 0.678176 0.00932198 0.501326
430 1 0.917004 0.908741 0.323439
429 1 0.838555 0.8183 0.328661
412 1 0.992162 0.900045 0.404154
432 1 0.845316 0.908956 0.414959
573 1 0.851123 0.825742 0.478826
434 1 0.0864027 0.0596739 0.49596
578 1 0.0917465 0.0789797 0.675185
436 1 0.0169696 0.0728426 0.585893
435 1 0.0936409 0.997736 0.593994
437 1 0.169493 0.991348 0.50047
440 1 0.160383 0.0951614 0.585993
444 1 0.341618 0.0631629 0.573203
439 1 0.26162 1.00209 0.568861
445 1 0.493886 0.992035 0.499225
469 1 0.510674 0.154787 0.494416
448 1 0.505959 0.0872745 0.595395
467 1 0.423785 0.168383 0.586193
443 1 0.412595 0.971808 0.576357
452 1 0.665658 0.0718284 0.585166
447 1 0.583115 0.99512 0.587792
450 1 0.761499 0.094201 0.50358
594 1 0.761106 0.0664595 0.668813
453 1 0.843349 -0.0106863 0.499019
473 1 0.661402 0.165206 0.506655
454 1 0.936403 0.0666292 0.506451
457 1 0.00610745 0.158916 0.500944
456 1 0.857001 0.0772446 0.586449
455 1 0.927616 0.986278 0.577933
598 1 0.934248 0.0838931 0.670268
459 1 0.0763498 0.150954 0.57659
481 1 0.0108808 0.336563 0.49572
483 1 0.0839904 0.332862 0.595029
605 1 0.172569 0.15693 0.677892
463 1 0.239081 0.164837 0.584919
464 1 0.168753 0.258122 0.59458
487 1 0.249201 0.335839 0.57576
606 1 0.252027 0.241555 0.671226
629 1 0.170012 0.333962 0.66869
468 1 0.342608 0.249966 0.577176
472 1 0.491493 0.25689 0.580118
491 1 0.422583 0.339971 0.590328
470 1 0.566596 0.248448 0.507212
497 1 0.663574 0.336428 0.506558
471 1 0.569843 0.166288 0.589577
476 1 0.657787 0.25224 0.56912
495 1 0.576212 0.323463 0.588341
641 1 0.669871 0.337981 0.653193
621 1 0.858105 0.165968 0.670147
475 1 0.768545 0.161532 0.616792
499 1 0.764131 0.332221 0.580742
480 1 0.853362 0.243441 0.586694
477 1 0.849558 0.150166 0.508342
479 1 0.925589 0.15664 0.59684
460 1 0.00200446 0.237208 0.597462
503 1 0.941453 0.330855 0.577469
626 1 0.0811642 0.408299 0.661726
507 1 0.0679526 0.502951 0.581528
484 1 -0.00100099 0.42452 0.587677
625 1 0.0128726 0.321494 0.677408
649 1 0.992492 0.506727 0.674686
489 1 0.336109 0.345572 0.505689
488 1 0.163943 0.401641 0.586747
511 1 0.239442 0.496974 0.572617
653 1 0.154151 0.494497 0.657927
490 1 0.414674 0.40958 0.492618
633 1 0.326669 0.323835 0.650508
492 1 0.330605 0.420291 0.58259
657 1 0.330838 0.499379 0.660439
515 1 0.420179 0.487923 0.566474
496 1 0.497406 0.414607 0.584257
500 1 0.673703 0.413415 0.582895
519 1 0.588753 0.505201 0.58816
665 1 0.665427 0.525886 0.670871
498 1 0.757658 0.410752 0.504911
642 1 0.748501 0.42015 0.66116
501 1 0.839992 0.317475 0.504505
504 1 0.831175 0.420943 0.580749
527 1 0.92882 0.51192 0.576014
646 1 0.913666 0.42703 0.661644
669 1 0.82929 0.507854 0.666456
508 1 0.00238306 0.588007 0.572778
531 1 0.0706613 0.667958 0.583901
650 1 0.0668615 0.593304 0.677888
510 1 0.244956 0.57464 0.497917
512 1 0.141695 0.590279 0.593918
516 1 0.333848 0.58012 0.575584
658 1 0.4186 0.571883 0.655844
685 1 0.501754 0.654378 0.643415
521 1 0.66846 0.490906 0.500119
520 1 0.512022 0.578914 0.574446
662 1 0.581677 0.580925 0.653538
543 1 0.582212 0.671285 0.578271
523 1 0.765415 0.504979 0.574886
545 1 0.672945 0.661327 0.503137
524 1 0.665512 0.582023 0.569873
547 1 0.764379 0.659034 0.564537
528 1 0.84662 0.584008 0.578268
526 1 0.920522 0.577036 0.490672
525 1 0.850559 0.494857 0.496654
551 1 0.916134 0.662436 0.567267
670 1 0.915617 0.581388 0.666772
530 1 0.0845675 0.739179 0.49401
557 1 0.166703 0.836683 0.49999
532 1 0.980218 0.755619 0.56796
555 1 0.0888629 0.829849 0.588112
535 1 0.248259 0.668329 0.57874
536 1 0.161062 0.741415 0.590704
534 1 0.246322 0.738435 0.492977
540 1 0.326776 0.739817 0.571317
538 1 0.414191 0.740112 0.497039
539 1 0.42105 0.6581 0.572778
544 1 0.491891 0.749784 0.562181
682 1 0.421544 0.726307 0.663807
689 1 0.664749 0.651372 0.663914
548 1 0.671464 0.745024 0.585956
549 1 0.845047 0.669121 0.490247
546 1 0.757818 0.751652 0.492462
552 1 0.841244 0.745692 0.564035
575 1 0.908342 0.841863 0.577142
717 1 0.83275 0.839901 0.663023
554 1 0.0879447 0.90944 0.49681
698 1 0.0702521 0.918369 0.677193
558 1 0.253301 0.913284 0.497441
581 1 0.202005 -0.00119915 0.658754
560 1 0.170113 0.912065 0.589296
559 1 0.25133 0.829119 0.577263
564 1 0.327596 0.905472 0.570206
585 1 0.333815 -0.00630962 0.652956
563 1 0.411272 0.837933 0.556865
568 1 0.489181 0.901406 0.584238
589 1 0.478471 0.993482 0.657217
706 1 0.397831 0.905564 0.672627
567 1 0.580222 0.825604 0.583008
713 1 0.685219 0.833562 0.647327
710 1 0.581908 0.923556 0.657793
572 1 0.677741 0.926365 0.588671
593 1 0.670361 1.008 0.668135
451 1 0.773717 0.00900355 0.571322
571 1 0.763797 0.833109 0.564387
570 1 0.761627 0.923057 0.493798
714 1 0.763556 0.922449 0.660881
556 1 0.00752859 0.921268 0.582504
576 1 0.827779 0.917422 0.583411
574 1 0.92011 0.90875 0.500821
722 1 0.0925161 0.0848713 0.852086
584 1 0.175907 0.0802469 0.76309
721 1 0.0132294 1.0104 0.834682
725 1 0.167213 0.00644191 0.838518
609 1 0.334324 0.167768 0.66481
582 1 0.255508 0.0922272 0.663518
583 1 0.257133 -0.000269362 0.755294
613 1 0.464353 0.174063 0.679632
588 1 0.345009 0.0739259 0.760905
586 1 0.41127 0.0796683 0.651656
611 1 0.412215 0.175529 0.767054
590 1 0.574318 0.0624985 0.675808
592 1 0.4754 0.0678517 0.745886
615 1 0.56627 0.163846 0.750608
596 1 0.665166 0.0811536 0.749137
761 1 0.655824 0.165971 0.825902
595 1 0.769506 0.995938 0.743578
600 1 0.853309 0.0789225 0.735505
597 1 0.859249 0.989287 0.661808
577 1 -0.0130238 0.995135 0.669513
580 1 -0.00645166 0.0788309 0.748065
599 1 0.926614 0.988262 0.766097
603 1 0.0923599 0.161842 0.769371
602 1 0.0919976 0.240988 0.662023
627 1 0.0899345 0.341773 0.755156
745 1 0.00637064 0.161413 0.831539
608 1 0.174018 0.24864 0.762871
607 1 0.253615 0.150975 0.764976
612 1 0.329146 0.250854 0.752923
631 1 0.262985 0.332109 0.738247
610 1 0.411623 0.260459 0.66544
616 1 0.483434 0.247691 0.751391
637 1 0.505407 0.345617 0.666422
617 1 0.660523 0.165192 0.644412
614 1 0.550347 0.244602 0.676475
620 1 0.661721 0.242539 0.725058
639 1 0.598519 0.325796 0.729142
618 1 0.765399 0.259583 0.655385
619 1 0.750232 0.162358 0.743489
624 1 0.837936 0.256587 0.73781
643 1 0.738661 0.334475 0.743271
762 1 0.75643 0.23562 0.811832
601 1 0.0256022 0.160319 0.677002
623 1 0.923297 0.182167 0.744431
622 1 0.918018 0.249069 0.668974
604 1 0.00921976 0.250219 0.755214
769 1 1.00048 0.337222 0.81619
766 1 0.923435 0.258256 0.833872
632 1 0.169866 0.440546 0.749952
628 1 0.00840886 0.42797 0.748887
651 1 0.0766775 0.503203 0.777502
770 1 0.101993 0.409375 0.846143
797 1 0.164643 0.499995 0.84438
630 1 0.239517 0.428132 0.653579
635 1 0.411864 0.335989 0.756599
636 1 0.32653 0.426419 0.739303
634 1 0.406492 0.409825 0.666226
661 1 0.5066 0.499573 0.658527
640 1 0.499225 0.422097 0.740955
638 1 0.59269 0.41315 0.650281
782 1 0.582857 0.430422 0.831465
663 1 0.590163 0.495608 0.757621
785 1 0.677609 0.306119 0.822748
645 1 0.841069 0.333522 0.660073
644 1 0.658433 0.412324 0.739776
667 1 0.744354 0.498333 0.750811
648 1 0.831129 0.405826 0.736481
786 1 0.753591 0.410279 0.818374
647 1 0.922439 0.329735 0.73521
671 1 0.906623 0.486599 0.763358
793 1 0.989106 0.504385 0.834211
790 1 0.90147 0.397901 0.822187
673 1 0.978061 0.672437 0.667959
656 1 0.161067 0.582988 0.741242
675 1 0.0981217 0.667807 0.76676
794 1 0.0949182 0.58776 0.847601
677 1 0.158316 0.668586 0.667787
654 1 0.24763 0.591306 0.662668
655 1 0.250481 0.510081 0.733626
798 1 0.262247 0.569327 0.826965
679 1 0.234392 0.656241 0.740151
659 1 0.427288 0.500537 0.745928
660 1 0.321957 0.579699 0.736737
664 1 0.515901 0.573079 0.739338
805 1 0.513069 0.508204 0.826432
687 1 0.59641 0.66625 0.740948
666 1 0.757671 0.590574 0.666083
693 1 0.844644 0.669537 0.647889
813 1 0.824043 0.510339 0.832155
668 1 0.671643 0.587537 0.753463
810 1 0.758887 0.593658 0.841429
833 1 0.678097 0.665069 0.829294
652 1 0.996061 0.587759 0.749331
672 1 0.855625 0.584722 0.763362
695 1 0.916236 0.680951 0.757165
817 1 0.000977667 0.664219 0.838957
814 1 0.910183 0.586833 0.851355
674 1 0.0863009 0.751104 0.678426
818 1 0.0863188 0.74613 0.84452
676 1 0.011589 0.739816 0.760567
841 1 0.0210561 0.8325 0.846416
681 1 0.342326 0.646878 0.666141
680 1 0.184843 0.752125 0.751769
678 1 0.265798 0.739675 0.656582
703 1 0.267084 0.836388 0.744535
684 1 0.333091 0.734774 0.735093
701 1 0.165431 0.839224 0.65855
683 1 0.404376 0.661065 0.749123
705 1 0.348353 0.810007 0.651724
707 1 0.408844 0.823606 0.745808
686 1 0.58536 0.749613 0.666263
688 1 0.487288 0.746101 0.74305
692 1 0.67677 0.75804 0.752943
829 1 0.507238 0.662701 0.831458
830 1 0.576161 0.745977 0.82323
691 1 0.758287 0.664938 0.751444
690 1 0.754173 0.735813 0.662857
834 1 0.764579 0.7558 0.828493
696 1 0.833552 0.746804 0.736522
837 1 0.831557 0.675627 0.834048
861 1 0.844883 0.826705 0.847664
694 1 0.917611 0.754233 0.662566
719 1 0.940992 0.825787 0.758281
838 1 0.925736 0.74789 0.838299
697 1 0.00226015 0.821139 0.654797
579 1 0.0897974 -0.00686371 0.751449
699 1 0.079232 0.82389 0.749824
704 1 0.164038 0.91775 0.728586
702 1 0.265887 0.91657 0.665686
846 1 0.253582 0.932051 0.836524
708 1 0.329898 0.917113 0.754778
709 1 0.500952 0.832486 0.668632
587 1 0.413211 0.994883 0.752417
850 1 0.425743 0.922606 0.841807
591 1 0.591969 0.983177 0.752495
711 1 0.587942 0.848743 0.740481
712 1 0.503004 0.918819 0.757213
854 1 0.574488 0.918205 0.839594
715 1 0.759968 0.830399 0.755561
716 1 0.673554 0.912816 0.742599
858 1 0.748935 0.904103 0.832862
700 1 1.01375 0.922206 0.76591
718 1 0.931652 0.900709 0.657587
720 1 0.849719 0.890564 0.753489
862 1 0.918171 0.912881 0.842589
724 1 0.00133337 0.0823681 0.911533
728 1 0.171246 0.0938804 0.937343
25 1 1.00151 0.164641 -0.0126847
723 1 0.0966709 0.999469 0.917412
6 1 0.26425 0.0866387 0.00865816
33 1 0.334062 0.17982 0.00278938
749 1 0.172779 0.163656 0.845883
726 1 0.239989 0.080792 0.847112
732 1 0.333314 0.0893554 0.931813
751 1 0.260055 0.159137 0.930174
753 1 0.331549 0.155664 0.843936
730 1 0.408911 0.0777363 0.83544
757 1 0.48926 0.159939 0.838299
37 1 0.502601 0.16919 1.00284
734 1 0.581178 0.0776834 0.819309
736 1 0.483787 0.0655287 0.912589
759 1 0.580866 0.15256 0.912662
765 1 0.839019 0.162211 0.815826
738 1 0.747126 0.0730243 0.823598
740 1 0.664159 0.0710383 0.909916
763 1 0.760968 0.162472 0.894995
1 1 -0.000178141 -0.00188691 -0.00642077
744 1 0.837321 0.0784303 0.895334
742 1 0.927075 0.0731057 0.837956
22 1 0.916539 0.0777379 -0.0075407
741 1 0.824799 0.982872 0.829594
743 1 0.909747 -0.00458316 0.912906
747 1 0.0906341 0.179869 0.913399
746 1 0.0856799 0.248565 0.821494
748 1 0.00162205 0.244824 0.897252
773 1 0.18095 0.33518 0.832007
750 1 0.252328 0.251391 0.838957
752 1 0.167514 0.257704 0.902068
756 1 0.330952 0.237669 0.911591
755 1 0.421225 0.152089 0.915856
754 1 0.408616 0.257608 0.842345
779 1 0.409381 0.352819 0.91769
781 1 0.503462 0.323805 0.847556
38 1 0.590924 0.236452 -0.00901302
758 1 0.58288 0.243448 0.823672
61 1 0.514285 0.31696 0.00837491
760 1 0.481021 0.235981 0.917511
783 1 0.585884 0.321469 0.913549
764 1 0.662602 0.230621 0.915616
65 1 0.659896 0.319014 0.0109118
46 1 0.918129 0.26037 1.00013
789 1 0.829762 0.328242 0.821859
768 1 0.828792 0.239272 0.900303
767 1 0.923376 0.162077 0.908267
50 1 0.0750866 0.419108 0.996105
73 1 1.00761 0.507653 1.01444
771 1 0.0760173 0.323881 0.901459
795 1 0.0661427 0.491697 0.90987
772 1 0.990973 0.413287 0.894696
777 1 0.325288 0.343662 0.822009
775 1 0.245411 0.331907 0.922073
776 1 0.171025 0.415209 0.921942
774 1 0.252047 0.414289 0.851976
778 1 0.426307 0.412049 0.82877
58 1 0.425232 0.416334 0.00113496
780 1 0.333693 0.426623 0.920209
803 1 0.438394 0.485834 0.914016
784 1 0.508699 0.395516 0.936907
62 1 0.591301 0.41393 0.0084756
807 1 0.578309 0.509385 0.922354
85 1 0.509711 0.496043 0.00890002
89 1 0.66057 0.498855 -0.00369211
788 1 0.665123 0.402232 0.934263
787 1 0.751617 0.318562 0.911263
811 1 0.763306 0.499315 0.912396
70 1 0.919515 0.422264 0.00927889
791 1 0.914357 0.336855 0.912122
792 1 0.834016 0.423277 0.904446
815 1 0.916004 0.507456 0.925807
819 1 0.0963325 0.682433 0.92468
800 1 0.172192 0.579888 0.933157
796 1 1.00429 0.586631 0.912932
799 1 0.259724 0.50982 0.919819
821 1 0.173849 0.662188 0.85557
823 1 0.262219 0.647792 0.91847
801 1 0.347037 0.488909 0.833105
81 1 0.336617 0.497088 0.0120968
804 1 0.359859 0.585448 0.931229
82 1 0.439199 0.570102 0.011315
802 1 0.426333 0.584974 0.822426
825 1 0.323472 0.666904 0.824965
827 1 0.429344 0.683527 0.913462
806 1 0.590892 0.581411 0.832923
86 1 0.576218 0.577782 1.00865
808 1 0.488921 0.583616 0.920394
812 1 0.665523 0.575356 0.915108
809 1 0.67894 0.495417 0.838501
816 1 0.835633 0.585432 0.923912
94 1 0.912297 0.583346 1.00012
839 1 0.922313 0.665425 0.916724
98 1 0.0901765 0.757101 1.00217
820 1 -0.00225995 0.748584 0.916665
843 1 0.0991024 0.834852 0.925112
824 1 0.184337 0.748376 0.933698
102 1 0.260682 0.729934 0.00939525
822 1 0.260599 0.753414 0.830222
849 1 0.348029 0.826112 0.838092
847 1 0.236353 0.834642 0.905986
106 1 0.4031 0.748189 -0.00245786
826 1 0.414071 0.742699 0.832506
828 1 0.330803 0.747331 0.919515
851 1 0.422521 0.819734 0.915815
831 1 0.588537 0.659393 0.921092
832 1 0.524763 0.743103 0.917024
110 1 0.593114 0.754084 1.0194
855 1 0.595415 0.826403 0.921997
853 1 0.493924 0.828324 0.830698
114 1 0.728845 0.756253 -0.0144691
836 1 0.667142 0.744561 0.904368
137 1 0.667239 0.837642 0.00904546
835 1 0.749964 0.659468 0.91613
859 1 0.74383 0.830164 0.913219
121 1 0.00734611 0.827282 1.0024
118 1 0.925303 0.74915 0.00549511
840 1 0.835677 0.752186 0.915071
141 1 0.827167 0.831495 0.998045
863 1 0.923629 0.835401 0.932575
125 1 0.172527 0.834479 1.01335
122 1 0.0785965 0.920695 1.0077
842 1 0.101921 0.916775 0.840547
845 1 0.174455 0.82554 0.828638
844 1 0.00932573 0.916647 0.919483
5 1 0.161375 1.01021 0.00798386
848 1 0.170723 0.920443 0.920249
727 1 0.247764 0.000125819 0.93435
733 1 0.495066 1.0031 0.824611
729 1 0.330631 0.00660905 0.846924
731 1 0.404074 0.985123 0.929708
852 1 0.321299 0.903932 0.916055
856 1 0.495908 0.905847 0.914177
857 1 0.651899 0.83934 0.827319
735 1 0.570655 1.00802 0.914648
737 1 0.672825 0.989257 0.827124
138 1 0.759421 0.921989 1.00542
739 1 0.755104 0.991565 0.922263
860 1 0.660383 0.920827 0.922031
21 1 0.842288 0.0115499 0.00107892
864 1 0.836705 0.915789 0.905515
