ITEM: TIMESTEP
6250
ITEM: NUMBER OF ATOMS
864
ITEM: BOX BOUNDS pp pp pp
0.0000000000000000e+00 3.1559999999999999e+01
0.0000000000000000e+00 3.1559999999999999e+01
0.0000000000000000e+00 3.1559999999999999e+01
ITEM: ATOMS id type xs ys zs
8 1 0.17966 0.0797465 0.0859491
157 1 0.498221 0.0103854 0.317199
74 1 0.0948735 0.081256 0.159999
278 1 0.576441 0.431149 0.497028
31 1 0.240699 0.184803 0.0827291
521 1 0.673859 0.490227 0.158575
101 1 0.163851 0.161993 0.169306
12 1 0.329 0.0780186 0.0923927
35 1 0.425219 0.162461 0.0690937
82 1 0.429695 0.0858173 0.17087
16 1 0.496066 0.0774915 0.0924109
86 1 0.578018 0.0846157 0.163287
113 1 0.663979 0.173947 0.150844
39 1 0.574836 0.165535 0.0874638
20 1 0.669123 0.091823 0.0832235
90 1 0.747048 0.0761056 0.159158
24 1 0.836837 0.0935325 0.0860517
443 1 0.402907 0.498856 0.092966
215 1 0.917759 0.338019 0.413325
4 1 0.994958 0.0718429 0.0832849
47 1 0.914845 0.185075 0.083313
94 1 0.912458 0.090008 0.165531
286 1 0.925597 0.410213 0.493043
27 1 0.0720727 0.159291 0.0843656
97 1 0.996733 0.164908 0.154429
51 1 0.0815524 0.339686 0.0865253
98 1 0.0871626 0.242674 0.159629
11 1 0.419578 0.00187596 0.0732235
32 1 0.164447 0.248669 0.0858734
129 1 0.332356 0.322566 0.162811
125 1 0.165516 0.324826 0.171839
55 1 0.252286 0.322355 0.0775077
25 1 0.000849686 0.171118 0.00328403
36 1 0.353277 0.252903 0.0766909
105 1 0.344476 0.157148 0.163447
59 1 0.429292 0.345905 0.0917003
40 1 0.4947 0.259585 0.0776287
44 1 0.660392 0.249417 0.0747442
43 1 0.75335 0.168195 0.0765105
117 1 0.826792 0.167811 0.162682
114 1 0.739615 0.248587 0.158991
67 1 0.742919 0.32814 0.070808
48 1 0.818573 0.251814 0.0768305
28 1 0.994967 0.262875 0.0837285
433 1 0.995157 0.492477 0.008196
93 1 0.842004 0.00643547 0.157101
56 1 0.173151 0.405907 0.0774681
61 1 0.499555 0.338668 0.0104534
126 1 0.245438 0.412229 0.161479
653 1 0.170322 0.495364 0.48067
66 1 0.744925 0.431162 0.0114039
60 1 0.337804 0.414401 0.0854156
64 1 0.501241 0.428227 0.0770789
130 1 0.416765 0.422636 0.162896
63 1 0.578348 0.335052 0.074583
137 1 0.65144 0.349691 0.154815
68 1 0.649989 0.421324 0.0674926
226 1 0.417118 0.0903035 0.494891
455 1 0.904654 0.488075 0.0840284
72 1 0.828635 0.420723 0.0796939
141 1 0.821113 0.332542 0.154641
581 1 0.16065 0.499507 0.338895
138 1 0.755709 0.412628 0.165641
34 1 0.419498 0.261265 0.000699998
71 1 0.908038 0.325019 0.0770223
52 1 0.991179 0.407084 0.084263
142 1 0.918633 0.414094 0.171525
70 1 0.919989 0.418351 0.00228831
265 1 0.00318177 0.316721 0.49561
146 1 0.0651142 0.0875999 0.334382
173 1 0.164063 0.153597 0.324585
149 1 0.149058 0.0196033 0.334948
78 1 0.252909 0.0795844 0.170159
80 1 0.171284 0.086473 0.2423
103 1 0.266417 0.162006 0.239571
150 1 0.238626 0.0807361 0.329413
84 1 0.350553 0.0876682 0.243662
107 1 0.425242 0.166211 0.256093
154 1 0.424271 0.0847648 0.335664
88 1 0.511138 0.0978629 0.240254
111 1 0.587475 0.173525 0.231993
92 1 0.66501 0.0804786 0.243267
109 1 0.49873 0.171357 0.163313
158 1 0.584187 0.0749739 0.327683
269 1 0.170271 0.315187 0.480681
85 1 0.508021 0.0014735 0.167571
115 1 0.724308 0.181759 0.249383
96 1 0.828049 0.089682 0.235068
185 1 0.655436 0.168889 0.327055
162 1 0.743239 0.0874126 0.314519
274 1 0.421379 0.414521 0.495512
76 1 0.999843 0.0810481 0.239122
89 1 0.676164 0.00256712 0.153105
166 1 0.907396 0.0856481 0.318067
119 1 0.917859 0.168174 0.237922
591 1 0.558868 0.484882 0.412305
99 1 0.0838397 0.147757 0.247104
170 1 0.0872834 0.236354 0.325264
104 1 0.170058 0.241929 0.244184
123 1 0.0865678 0.330682 0.248619
197 1 0.169698 0.333403 0.324357
102 1 0.247529 0.252808 0.16266
108 1 0.339037 0.240037 0.245693
127 1 0.249211 0.32495 0.250229
174 1 0.248169 0.246912 0.321668
106 1 0.421237 0.246912 0.163778
131 1 0.416962 0.326874 0.240245
112 1 0.504835 0.250865 0.256115
110 1 0.587527 0.255801 0.146738
205 1 0.495997 0.341854 0.319443
182 1 0.598772 0.256147 0.335383
189 1 0.825858 0.172547 0.32803
116 1 0.647496 0.270997 0.244336
139 1 0.742622 0.335105 0.250824
186 1 0.734045 0.260901 0.329125
118 1 0.914188 0.253591 0.170564
120 1 0.816845 0.250667 0.222207
100 1 0.997687 0.248797 0.23159
193 1 0.998646 0.331503 0.328092
122 1 0.0857043 0.42452 0.149421
194 1 0.0884731 0.415091 0.339022
33 1 0.329021 0.164 0.00298735
505 1 0.996528 0.488254 0.164823
281 1 0.673509 0.335784 0.493567
128 1 0.161083 0.417446 0.249417
201 1 0.335553 0.337526 0.318924
132 1 0.334495 0.411214 0.22814
198 1 0.24627 0.414901 0.325532
133 1 0.501275 0.346121 0.163998
136 1 0.498007 0.418392 0.242087
134 1 0.577302 0.427621 0.164865
135 1 0.577899 0.345756 0.250353
250 1 0.40791 0.247449 0.495877
140 1 0.657052 0.428921 0.254429
209 1 0.665552 0.344236 0.339334
144 1 0.833248 0.419279 0.243232
527 1 0.925685 0.490511 0.256715
143 1 0.920162 0.337025 0.257696
121 1 0.00262359 0.340005 0.175361
214 1 0.913969 0.41629 0.32858
124 1 0.00729041 0.425421 0.257432
213 1 0.825842 0.309314 0.317819
597 1 0.827817 0.496092 0.319723
511 1 0.243847 0.49944 0.24259
171 1 0.0786629 0.167718 0.409695
14 1 0.590776 0.085901 0.0132193
26 1 0.0822322 0.257426 0.00704552
152 1 0.169694 0.0897112 0.411019
175 1 0.243447 0.163902 0.403112
145 1 0.999366 0.00342574 0.334839
147 1 0.0783715 0.0269195 0.419239
153 1 0.324799 0.0118156 0.326152
155 1 0.413951 0.00581525 0.405683
156 1 0.323379 0.0817766 0.418016
179 1 0.40193 0.161696 0.404492
181 1 0.503756 0.165045 0.331173
177 1 0.327048 0.16839 0.328621
599 1 0.92084 0.482928 0.410659
160 1 0.503053 0.0784672 0.417199
164 1 0.666133 0.0832952 0.414884
523 1 0.748958 0.499692 0.252913
163 1 0.749877 0.013239 0.409065
151 1 0.244376 0.000633663 0.423176
77 1 0.159502 0.000764157 0.174837
168 1 0.842431 0.0817522 0.409296
148 1 0.9736 0.103236 0.414679
262 1 0.911215 0.245208 0.492311
91 1 0.749671 0.00025777 0.24953
583 1 0.25396 0.496777 0.414587
176 1 0.17255 0.240602 0.404348
195 1 0.0904418 0.324852 0.407365
249 1 0.332063 0.160125 0.494964
3 1 0.0864522 0.00153803 0.0837914
180 1 0.319835 0.238725 0.417065
199 1 0.254305 0.32977 0.400911
95 1 0.909964 0.00443532 0.242094
178 1 0.416325 0.251315 0.326216
184 1 0.49441 0.249096 0.408393
75 1 0.0810596 0.00145424 0.249459
183 1 0.584452 0.167846 0.417555
188 1 0.672245 0.248604 0.417682
187 1 0.749036 0.171994 0.416741
253 1 0.497406 0.16269 0.482785
192 1 0.832344 0.257266 0.418277
169 1 0.993555 0.171406 0.313763
191 1 0.907432 0.183769 0.399637
172 1 0.00111131 0.242231 0.416866
190 1 0.920416 0.252363 0.307911
266 1 0.095678 0.399576 0.497751
577 1 0.994106 0.492596 0.338781
196 1 0.0109738 0.405383 0.423068
83 1 0.415613 0.00519299 0.249192
19 1 0.765562 0.00210122 0.0785564
200 1 0.165011 0.408037 0.406391
204 1 0.319483 0.408422 0.40815
208 1 0.491542 0.406253 0.407694
587 1 0.402702 0.476096 0.417921
661 1 0.487549 0.498215 0.493564
203 1 0.403955 0.32042 0.41718
202 1 0.406957 0.422534 0.311402
212 1 0.657112 0.422593 0.416025
273 1 0.322743 0.340855 0.485807
206 1 0.574247 0.429781 0.323685
2 1 0.0863386 0.0772591 0.00103386
207 1 0.578681 0.332873 0.413913
211 1 0.752724 0.330956 0.418887
216 1 0.828687 0.417937 0.418983
282 1 0.7503 0.42191 0.490187
210 1 0.741317 0.425394 0.326598
277 1 0.481868 0.323347 0.497883
233 1 0.670572 0.00549002 0.484176
245 1 0.160213 0.154882 0.496242
161 1 0.678385 0.00719548 0.335332
58 1 0.4181 0.419259 0.00592836
165 1 0.830265 0.000150051 0.328051
15 1 0.58749 8.75616e-05 0.0776563
21 1 0.848092 0.0101248 0.011657
224 1 0.170905 0.078378 0.591449
219 1 0.0871571 0.01191 0.591335
220 1 0.990657 0.0983468 0.57933
290 1 0.0937699 0.0954725 0.677177
294 1 0.259283 0.0833187 0.652799
285 1 0.828071 0.341092 0.502908
725 1 0.162844 0.49215 0.666392
228 1 0.334128 0.0921198 0.571451
232 1 0.508832 0.0736456 0.574622
62 1 0.575078 0.422965 0.986577
307 1 0.744552 0.0015467 0.74166
302 1 0.575177 0.0899384 0.66201
255 1 0.587607 0.159002 0.57232
236 1 0.661724 0.0806212 0.583868
259 1 0.748384 0.18251 0.597062
295 1 0.249824 0.021759 0.752038
241 1 0.998844 0.172596 0.504485
240 1 0.82332 0.0878638 0.580564
217 1 0.997393 0.0120073 0.507386
258 1 0.749823 0.246028 0.502394
243 1 0.0861766 0.161657 0.582551
248 1 0.166862 0.250431 0.590231
221 1 0.157744 0.0218681 0.505793
313 1 0.998234 0.174638 0.682834
247 1 0.241517 0.168045 0.589489
49 1 0.00898236 0.335929 0.996985
271 1 0.237291 0.331145 0.566051
252 1 0.334638 0.25298 0.572776
321 1 0.32941 0.175671 0.66424
251 1 0.408872 0.176004 0.577686
322 1 0.407977 0.247024 0.660152
325 1 0.489749 0.169394 0.647773
256 1 0.488344 0.248136 0.576199
326 1 0.581151 0.248555 0.657708
260 1 0.654997 0.268593 0.575571
257 1 0.67053 0.169729 0.507797
329 1 0.664312 0.162063 0.662902
283 1 0.754945 0.323864 0.591113
264 1 0.856755 0.26001 0.581173
353 1 0.667146 0.329703 0.666745
65 1 0.667285 0.318761 0.993884
6 1 0.260022 0.078562 0.993369
263 1 0.907052 0.166472 0.599809
244 1 0.994034 0.24398 0.598058
663 1 0.581257 0.480951 0.588375
267 1 0.0737351 0.339229 0.577864
337 1 0.999995 0.332303 0.66277
272 1 0.163507 0.417295 0.591754
809 1 0.660239 0.4952 0.815968
222 1 0.240799 0.0859224 0.506402
345 1 0.316973 0.334533 0.655011
276 1 0.324414 0.413923 0.583297
297 1 0.325816 0.00663256 0.67665
311 1 0.924792 0.00633801 0.745783
659 1 0.406458 0.491034 0.572734
275 1 0.407071 0.330413 0.573808
426 1 0.757614 0.421103 0.827916
346 1 0.407448 0.411675 0.664824
270 1 0.247288 0.41939 0.50169
349 1 0.504364 0.335826 0.659717
279 1 0.582693 0.347195 0.570081
280 1 0.483214 0.407139 0.588896
350 1 0.579252 0.411951 0.665287
284 1 0.669829 0.415943 0.600209
22 1 0.926949 0.0871366 0.997736
354 1 0.75787 0.4199 0.661613
288 1 0.839805 0.433276 0.571459
234 1 0.741588 0.0829346 0.500068
287 1 0.924995 0.337224 0.570182
268 1 0.993249 0.418667 0.584058
238 1 0.915151 0.0883313 0.509083
358 1 0.91961 0.431699 0.671594
727 1 0.248355 0.495183 0.746652
296 1 0.174671 0.10231 0.757637
292 1 0.99747 0.0795511 0.750601
362 1 0.0806551 0.0907072 0.830747
1 1 0.00884803 0.00142444 0.989465
731 1 0.414743 0.483374 0.74372
366 1 0.252691 0.0897438 0.843155
298 1 0.413216 0.0829042 0.667375
300 1 0.325549 0.101907 0.754423
370 1 0.423701 0.0875818 0.840259
230 1 0.586007 0.0775519 0.501703
428 1 0.662843 0.426335 0.914508
304 1 0.491517 0.0899299 0.739214
397 1 0.488867 0.168658 0.82265
308 1 0.654418 0.0840658 0.741255
374 1 0.58082 0.0938088 0.83217
306 1 0.75263 0.0702132 0.661106
423 1 0.574341 0.345414 0.91367
331 1 0.752848 0.164467 0.756927
333 1 0.817346 0.174018 0.6752
310 1 0.908881 0.0832365 0.665401
312 1 0.841171 0.084615 0.750455
335 1 0.921721 0.158315 0.742523
382 1 0.917326 0.0974035 0.834396
405 1 0.827855 0.162605 0.827171
317 1 0.174917 0.167362 0.675599
315 1 0.0811687 0.176716 0.753306
314 1 0.0834605 0.252212 0.666077
339 1 0.0903075 0.335191 0.749324
320 1 0.159317 0.248172 0.749538
316 1 0.0063559 0.264063 0.744774
319 1 0.251065 0.176578 0.749984
318 1 0.253229 0.24589 0.653752
343 1 0.233286 0.326567 0.754654
389 1 0.167451 0.178652 0.833594
393 1 0.328141 0.179743 0.84172
323 1 0.411463 0.181779 0.744531
324 1 0.334245 0.265265 0.742522
347 1 0.4161 0.338367 0.739575
327 1 0.582923 0.160008 0.745928
328 1 0.495728 0.245407 0.728459
332 1 0.66131 0.254794 0.744312
425 1 0.649079 0.334028 0.839286
401 1 0.661309 0.162321 0.822495
398 1 0.582449 0.247146 0.821559
421 1 0.497512 0.332923 0.829946
330 1 0.752423 0.254305 0.685304
336 1 0.845631 0.262452 0.765883
402 1 0.754659 0.243151 0.841098
334 1 0.91791 0.24832 0.684376
357 1 0.841674 0.344113 0.673784
406 1 0.937177 0.260743 0.837142
338 1 0.0818042 0.411148 0.674346
410 1 0.080921 0.415559 0.837792
341 1 0.170486 0.332011 0.66303
344 1 0.163983 0.418782 0.760836
342 1 0.248197 0.416659 0.665117
348 1 0.33284 0.420852 0.745547
18 1 0.742322 0.0824175 0.994152
418 1 0.404504 0.424844 0.830075
254 1 0.583301 0.248179 0.502823
261 1 0.842573 0.172906 0.50575
352 1 0.490646 0.41072 0.749812
351 1 0.578089 0.331389 0.736981
356 1 0.654398 0.408854 0.73837
246 1 0.234672 0.235531 0.50786
225 1 0.322748 0.00909833 0.501436
422 1 0.566036 0.419021 0.829634
355 1 0.754333 0.336111 0.764965
735 1 0.580123 0.498391 0.7477
359 1 0.915262 0.344661 0.750807
340 1 0.000618975 0.417216 0.755796
424 1 0.483917 0.427661 0.915047
429 1 0.836895 0.337575 0.845815
360 1 0.842373 0.429707 0.743604
430 1 0.91572 0.42101 0.829187
373 1 0.503859 0.0125537 0.837877
368 1 0.161598 0.0906968 0.919526
364 1 0.995002 0.0740598 0.90305
387 1 0.0760509 0.170933 0.905147
10 1 0.41249 0.0896327 0.999779
363 1 0.0924459 0.00629677 0.915772
45 1 0.832572 0.146058 0.98786
372 1 0.338149 0.0840312 0.913972
391 1 0.23452 0.17601 0.926928
29 1 0.142771 0.173023 0.997877
369 1 0.340493 0.0125795 0.830775
437 1 0.166686 0.488991 0.994407
419 1 0.424003 0.34036 0.913196
371 1 0.41628 0.0170812 0.923712
376 1 0.509627 0.0880351 0.921313
399 1 0.573464 0.182505 0.911327
380 1 0.667854 0.0849847 0.909295
651 1 0.0790883 0.485225 0.561666
375 1 0.586456 0.00528452 0.918573
242 1 0.0843649 0.256484 0.509144
378 1 0.733329 0.0783338 0.817298
57 1 0.340419 0.338582 0.990603
383 1 0.909926 0.0110536 0.921431
384 1 0.816757 0.0807573 0.897253
432 1 0.84991 0.421593 0.921239
386 1 0.0751347 0.25449 0.831739
388 1 0.00329602 0.252535 0.921818
392 1 0.161671 0.254233 0.916387
365 1 0.149379 0.0109101 0.818753
797 1 0.165159 0.494913 0.8491
413 1 0.157637 0.336879 0.84091
390 1 0.247074 0.248091 0.836645
417 1 0.336886 0.330828 0.824758
377 1 0.658464 0.00161501 0.837003
395 1 0.406781 0.170655 0.932251
394 1 0.413232 0.258556 0.8132
396 1 0.337017 0.259623 0.915719
38 1 0.569608 0.252796 0.991058
367 1 0.243387 0.000653947 0.904703
400 1 0.48897 0.253351 0.908312
37 1 0.507229 0.165448 0.996054
404 1 0.663945 0.244028 0.906558
403 1 0.751186 0.153398 0.917881
408 1 0.842512 0.240126 0.915037
427 1 0.749791 0.355532 0.921089
42 1 0.744925 0.241433 0.982912
385 1 6.97201e-05 0.166409 0.820463
407 1 0.929098 0.168063 0.911847
431 1 0.933144 0.327035 0.915146
409 1 0.00566898 0.342516 0.834251
411 1 0.0810979 0.335583 0.908051
412 1 0.99349 0.417526 0.921498
721 1 0.0123865 0.490634 0.670877
414 1 0.264136 0.412507 0.827077
415 1 0.255799 0.330446 0.90207
416 1 0.188194 0.406268 0.91188
420 1 0.340506 0.421478 0.911523
665 1 0.654975 0.49411 0.506252
218 1 0.0756334 0.0871391 0.507705
9 1 0.337972 0.000637418 0.989444
41 1 0.659025 0.163807 0.983712
733 1 0.504094 0.493178 0.676926
289 1 0.997964 0.0121058 0.6535
13 1 0.505839 0.0103894 0.994073
54 1 0.248193 0.409824 0.997771
293 1 0.178455 0.0122838 0.671989
667 1 0.755815 0.492637 0.570202
5 1 0.165254 0.00605102 0.99531
227 1 0.41656 0.0120743 0.580647
811 1 0.75898 0.4968 0.909998
805 1 0.505405 0.499243 0.822555
239 1 0.910529 0.000222206 0.577648
46 1 0.908078 0.238783 0.986221
53 1 0.163071 0.331916 0.99838
381 1 0.854761 0.00363248 0.830876
30 1 0.246642 0.249948 0.998739
50 1 0.0882948 0.406917 0.982359
303 1 0.58093 0.000757911 0.753853
69 1 0.835611 0.329229 0.999799
440 1 0.169923 0.593546 0.075623
436 1 0.0128695 0.594061 0.0860025
444 1 0.336438 0.585581 0.0721059
533 1 0.169594 0.670436 0.181424
473 1 0.663046 0.668884 0.00600667
510 1 0.248518 0.602902 0.1464
628 1 0.00949917 0.9254 0.413498
717 1 0.822547 0.847484 0.493073
448 1 0.498147 0.563212 0.077978
467 1 0.412773 0.666168 0.0722171
541 1 0.489164 0.652212 0.153048
525 1 0.826242 0.501359 0.163036
469 1 0.497086 0.663523 0.000300044
452 1 0.665096 0.586035 0.0947927
518 1 0.567525 0.574725 0.171288
693 1 0.82489 0.671264 0.497281
522 1 0.753102 0.576225 0.170063
475 1 0.766795 0.651545 0.0961853
450 1 0.742231 0.586822 0.0034764
451 1 0.754446 0.513072 0.0775788
456 1 0.857508 0.580851 0.0852923
477 1 0.841439 0.659047 0.00451903
493 1 0.512321 0.842669 0.00292802
459 1 0.0772574 0.687161 0.0782408
530 1 0.0813844 0.766519 0.162533
460 1 0.991316 0.759772 0.0884734
553 1 0.0188201 0.844071 0.167209
17 1 0.671905 0.998974 0.00448468
464 1 0.171362 0.748846 0.0774345
463 1 0.253714 0.672008 0.0669646
537 1 0.323401 0.676872 0.158179
487 1 0.251597 0.854055 0.0605055
468 1 0.345064 0.762171 0.0573362
472 1 0.501431 0.742013 0.0818394
471 1 0.582232 0.659033 0.0818026
476 1 0.658798 0.738405 0.0864082
495 1 0.571477 0.835591 0.0884496
470 1 0.585997 0.745044 0.00437524
549 1 0.845206 0.679488 0.169645
497 1 0.653951 0.841783 0.0117087
499 1 0.75932 0.841771 0.09141
573 1 0.83312 0.835693 0.167417
569 1 0.670631 0.829418 0.158705
546 1 0.754301 0.74685 0.172631
434 1 0.0938994 0.607027 0.00406269
479 1 0.92123 0.675191 0.0742799
480 1 0.844391 0.760988 0.0754957
550 1 0.918156 0.773 0.159413
483 1 0.0999679 0.840852 0.0774418
484 1 0.00859751 0.912711 0.080053
447 1 0.590765 0.507578 0.0784649
167 1 0.921928 0.996151 0.430297
557 1 0.175562 0.82224 0.163905
488 1 0.173299 0.927831 0.0762566
558 1 0.241558 0.905308 0.167086
649 1 0.00448578 0.500355 0.491795
492 1 0.342015 0.929707 0.0696737
491 1 0.429913 0.83474 0.0686149
517 1 0.490946 0.505036 0.167371
561 1 0.326575 0.829119 0.154319
702 1 0.239869 0.914297 0.492894
685 1 0.511078 0.659276 0.494136
496 1 0.490788 0.915108 0.0834974
500 1 0.662584 0.91384 0.0811705
566 1 0.572977 0.915239 0.158
159 1 0.587195 0.998953 0.398035
589 1 0.485257 0.502686 0.323929
570 1 0.746906 0.915743 0.171894
498 1 0.747176 0.918013 0.00338488
670 1 0.928608 0.568675 0.496633
503 1 0.923423 0.835735 0.0717975
504 1 0.839324 0.91665 0.0840834
574 1 0.919324 0.90363 0.16412
625 1 0.0106649 0.843747 0.336984
506 1 0.0821954 0.582794 0.178987
529 1 0.00362772 0.664582 0.161484
585 1 0.331194 0.503758 0.323294
508 1 0.998274 0.574249 0.247946
601 1 0.991744 0.652702 0.32262
512 1 0.180247 0.583452 0.255213
582 1 0.256539 0.586411 0.336144
579 1 0.0824386 0.505804 0.409619
513 1 0.323227 0.503157 0.153889
514 1 0.400206 0.597817 0.16786
515 1 0.409173 0.503288 0.235333
516 1 0.332924 0.584378 0.243813
87 1 0.577969 0.999226 0.240962
545 1 0.666551 0.672688 0.166611
519 1 0.567993 0.510037 0.251214
520 1 0.486996 0.586594 0.24247
524 1 0.669703 0.576056 0.253582
647 1 0.926166 0.850444 0.407337
594 1 0.755893 0.583111 0.336702
547 1 0.753404 0.669323 0.246555
617 1 0.669307 0.667954 0.309917
673 1 0.991797 0.662858 0.492902
526 1 0.925007 0.581463 0.170584
528 1 0.836583 0.584546 0.24696
598 1 0.921798 0.564078 0.328941
531 1 0.0772106 0.667182 0.262033
532 1 0.998359 0.75762 0.239085
534 1 0.249276 0.759548 0.144013
535 1 0.253499 0.681551 0.24132
536 1 0.16164 0.754477 0.257669
540 1 0.334297 0.758474 0.242474
538 1 0.406563 0.749224 0.151682
539 1 0.413412 0.680624 0.236768
610 1 0.425927 0.758666 0.330294
563 1 0.416615 0.824675 0.244227
544 1 0.508871 0.742642 0.248892
543 1 0.578096 0.651537 0.240536
542 1 0.583267 0.74194 0.169678
567 1 0.576842 0.824245 0.24304
614 1 0.586105 0.753502 0.328874
548 1 0.668158 0.758215 0.245507
618 1 0.753451 0.74617 0.333463
552 1 0.84072 0.748758 0.249153
571 1 0.758283 0.830647 0.247666
641 1 0.661935 0.832021 0.330773
551 1 0.913116 0.659657 0.249573
575 1 0.930353 0.835453 0.259676
621 1 0.833158 0.658039 0.32185
622 1 0.921561 0.75265 0.331098
554 1 0.0888633 0.916558 0.15767
555 1 0.0939963 0.845692 0.256925
560 1 0.170315 0.92363 0.263341
556 1 0.00650167 0.921698 0.243995
626 1 0.0817359 0.925315 0.330589
435 1 0.0819909 0.508306 0.0859279
559 1 0.245107 0.847236 0.272638
630 1 0.253961 0.933344 0.341101
79 1 0.257631 0.995826 0.245024
562 1 0.422949 0.902672 0.169136
81 1 0.339512 0.991242 0.167916
564 1 0.330534 0.904604 0.232672
509 1 0.172373 0.515237 0.147823
634 1 0.415994 0.918946 0.317664
565 1 0.493114 0.818766 0.163193
568 1 0.498882 0.920947 0.251609
638 1 0.58457 0.927474 0.321795
637 1 0.496881 0.832792 0.32228
682 1 0.433501 0.754327 0.491613
645 1 0.830972 0.831751 0.335428
572 1 0.665037 0.923832 0.243973
642 1 0.752967 0.918759 0.340301
674 1 0.0716547 0.744921 0.48722
646 1 0.920904 0.93529 0.324535
576 1 0.83196 0.910298 0.251906
714 1 0.727631 0.915125 0.490085
458 1 0.0898575 0.756123 0.00146619
681 1 0.352236 0.674921 0.485644
578 1 0.077629 0.585884 0.348354
580 1 0.999037 0.57552 0.412125
605 1 0.164527 0.665868 0.336501
609 1 0.349049 0.66713 0.322961
584 1 0.169477 0.581015 0.408802
607 1 0.250926 0.667656 0.411492
650 1 0.0829199 0.576348 0.497058
439 1 0.241728 0.509937 0.0740228
658 1 0.412903 0.587608 0.491685
588 1 0.328742 0.583384 0.414513
586 1 0.406403 0.576391 0.339098
592 1 0.498742 0.579942 0.403412
478 1 0.929028 0.757277 0.00297086
73 1 0.00579559 0.990691 0.163466
7 1 0.263644 0.99515 0.0854056
590 1 0.583563 0.591295 0.327343
596 1 0.656543 0.603418 0.421299
595 1 0.74662 0.502474 0.414383
474 1 0.737146 0.753831 0.0141551
666 1 0.744922 0.598094 0.498279
507 1 0.085086 0.502056 0.255898
662 1 0.578905 0.579144 0.484163
600 1 0.848601 0.596857 0.419463
623 1 0.913345 0.672882 0.408292
229 1 0.498109 0.994571 0.488953
602 1 0.0701521 0.749331 0.33813
603 1 0.0721404 0.666581 0.418694
701 1 0.162934 0.834697 0.482043
606 1 0.256151 0.747917 0.327285
669 1 0.839351 0.505006 0.49588
608 1 0.172669 0.752764 0.41478
631 1 0.254827 0.825013 0.419729
677 1 0.164175 0.65706 0.490689
633 1 0.343015 0.844857 0.329905
611 1 0.43581 0.667434 0.412779
612 1 0.337683 0.75255 0.40312
616 1 0.501287 0.760289 0.410217
593 1 0.657988 0.514057 0.350143
613 1 0.49336 0.676592 0.326911
615 1 0.579136 0.677763 0.402121
690 1 0.741059 0.753006 0.485892
643 1 0.741152 0.828292 0.408588
619 1 0.747387 0.663197 0.410185
620 1 0.667391 0.751892 0.407634
624 1 0.84341 0.770634 0.418958
654 1 0.246657 0.582161 0.491744
697 1 0.993222 0.848369 0.494012
694 1 0.921969 0.759682 0.478526
604 1 0.994291 0.735064 0.412129
627 1 0.0808727 0.837483 0.42093
698 1 0.0741976 0.937499 0.498806
629 1 0.157482 0.840926 0.347571
453 1 0.833914 0.509395 0.00944233
632 1 0.159062 0.94039 0.421516
635 1 0.410343 0.847157 0.416165
636 1 0.341188 0.927277 0.40693
709 1 0.511112 0.846659 0.493172
710 1 0.598205 0.918307 0.491454
640 1 0.499822 0.925256 0.404393
639 1 0.585022 0.844936 0.398042
713 1 0.656858 0.830813 0.486589
648 1 0.829264 0.914574 0.408002
644 1 0.669673 0.918073 0.401464
706 1 0.413533 0.929389 0.490343
23 1 0.922874 0.983675 0.0875342
722 1 0.0854464 0.589204 0.664453
652 1 0.995757 0.587344 0.579435
749 1 0.159041 0.667712 0.667874
678 1 0.248088 0.74164 0.504302
656 1 0.163912 0.571763 0.573156
859 1 0.745679 0.828592 0.921046
726 1 0.237093 0.581257 0.66151
660 1 0.338441 0.581981 0.570074
730 1 0.420236 0.57317 0.663766
664 1 0.506778 0.559246 0.589547
683 1 0.417551 0.656791 0.588156
309 1 0.84606 0.993447 0.664724
657 1 0.329958 0.501317 0.501479
689 1 0.656695 0.674115 0.514701
734 1 0.584179 0.568716 0.671134
757 1 0.494795 0.65631 0.658226
442 1 0.415997 0.587322 0.996194
668 1 0.658817 0.577239 0.587378
738 1 0.743748 0.577819 0.665075
741 1 0.825065 0.503578 0.654791
672 1 0.838887 0.580751 0.56852
742 1 0.905932 0.57327 0.660856
675 1 0.0891219 0.657774 0.575295
745 1 0.00611665 0.662754 0.670505
746 1 0.0809915 0.743272 0.643667
769 1 0.996359 0.835865 0.647184
679 1 0.247013 0.662945 0.5843
680 1 0.177487 0.750839 0.588522
684 1 0.34266 0.75182 0.588073
301 1 0.50689 0.998347 0.665748
754 1 0.422697 0.764543 0.666174
777 1 0.313146 0.826431 0.658427
753 1 0.327325 0.649925 0.659604
705 1 0.343435 0.835047 0.500223
688 1 0.500592 0.756232 0.5931
687 1 0.573396 0.664045 0.583791
863 1 0.909665 0.842189 0.928373
758 1 0.589882 0.761774 0.659411
462 1 0.265154 0.772946 0.983901
692 1 0.66994 0.761564 0.576479
691 1 0.742768 0.6717 0.584093
762 1 0.752389 0.740281 0.664043
715 1 0.755029 0.835458 0.5776
761 1 0.662727 0.677722 0.654758
789 1 0.835973 0.830167 0.657783
446 1 0.585029 0.583674 0.999772
676 1 0.000805487 0.736965 0.583073
696 1 0.828692 0.747979 0.57867
695 1 0.905859 0.658757 0.593291
766 1 0.915049 0.731712 0.665302
719 1 0.907656 0.828571 0.569034
699 1 0.0826466 0.826174 0.570956
770 1 0.108401 0.921591 0.650125
703 1 0.251046 0.835656 0.569614
704 1 0.155653 0.911584 0.562044
773 1 0.1724 0.842392 0.652243
774 1 0.251541 0.918689 0.660232
457 1 0.00665683 0.663976 0.992249
707 1 0.425917 0.843892 0.570337
708 1 0.32577 0.91998 0.564549
781 1 0.506313 0.850899 0.664796
305 1 0.662261 0.990728 0.67505
778 1 0.402733 0.901796 0.663312
857 1 0.676384 0.831501 0.839708
815 1 0.925786 0.507596 0.912698
712 1 0.505413 0.927551 0.579319
711 1 0.57286 0.838481 0.585725
782 1 0.585445 0.915543 0.677311
231 1 0.60146 0.989169 0.583904
291 1 0.078553 0.977548 0.733846
716 1 0.665357 0.907979 0.577001
786 1 0.751774 0.901944 0.665942
720 1 0.830915 0.913798 0.585072
700 1 0.00913149 0.921736 0.586769
790 1 0.91639 0.911432 0.661552
718 1 0.910727 0.915201 0.504556
729 1 0.325971 0.508652 0.649178
728 1 0.163349 0.593515 0.747037
441 1 0.32599 0.503522 0.999161
732 1 0.339084 0.572395 0.744433
751 1 0.245659 0.650196 0.738641
821 1 0.15884 0.686341 0.823419
798 1 0.23452 0.602114 0.836014
736 1 0.508278 0.584431 0.757536
755 1 0.408179 0.6747 0.726274
802 1 0.413923 0.592329 0.829349
825 1 0.321674 0.672524 0.807605
829 1 0.504853 0.677708 0.831381
853 1 0.48466 0.835245 0.83965
806 1 0.598675 0.596707 0.828157
223 1 0.240481 0.994698 0.57685
740 1 0.664086 0.593188 0.744074
744 1 0.842468 0.573634 0.750978
810 1 0.742977 0.5849 0.830422
763 1 0.737811 0.67346 0.758312
765 1 0.828759 0.662754 0.670479
724 1 0.00502275 0.585519 0.740603
814 1 0.927401 0.58628 0.84022
671 1 0.928243 0.503785 0.589698
747 1 0.0823045 0.686507 0.751158
748 1 0.00844663 0.765561 0.742348
771 1 0.0803433 0.855606 0.734121
818 1 0.0820111 0.750809 0.84903
845 1 0.167319 0.837564 0.832139
752 1 0.152991 0.761296 0.741198
750 1 0.246228 0.731654 0.667938
822 1 0.243361 0.75715 0.826451
756 1 0.319631 0.763154 0.748389
779 1 0.430704 0.838461 0.747943
826 1 0.420914 0.750808 0.829934
760 1 0.50812 0.763482 0.742107
759 1 0.578198 0.669505 0.752967
783 1 0.580762 0.835663 0.75524
830 1 0.59369 0.759683 0.839772
764 1 0.650379 0.746535 0.756638
834 1 0.759096 0.747943 0.845248
768 1 0.843797 0.752671 0.747726
785 1 0.670563 0.827199 0.667563
767 1 0.916971 0.656059 0.7506
837 1 0.826894 0.655252 0.818302
817 1 0.00396278 0.677407 0.831501
838 1 0.90055 0.73298 0.851382
791 1 0.912056 0.828411 0.743633
861 1 0.83187 0.827315 0.840837
842 1 0.0809795 0.913786 0.826546
776 1 0.161519 0.9227 0.736664
772 1 0.980944 0.913847 0.753259
775 1 0.238481 0.83583 0.745181
481 1 0.00798855 0.831322 0.995934
299 1 0.414159 0.99709 0.743654
780 1 0.332978 0.911454 0.744937
784 1 0.510939 0.923 0.755692
788 1 0.678019 0.905315 0.750805
787 1 0.76743 0.839091 0.749339
813 1 0.841141 0.510716 0.835934
235 1 0.752434 0.9973 0.58881
737 1 0.666535 0.501737 0.670371
655 1 0.253685 0.500507 0.574323
792 1 0.839351 0.916862 0.764343
862 1 0.918758 0.91555 0.846887
723 1 0.0911492 0.503561 0.748383
794 1 0.0992212 0.584227 0.831556
795 1 0.0800762 0.501646 0.955776
800 1 0.156423 0.582741 0.922772
804 1 0.331623 0.592367 0.911883
858 1 0.756971 0.907652 0.834255
799 1 0.252276 0.505511 0.90672
808 1 0.507238 0.597614 0.906927
743 1 0.922537 0.50574 0.74552
812 1 0.660006 0.582819 0.917343
807 1 0.577079 0.504752 0.906938
502 1 0.921631 0.927398 0.992343
449 1 0.65588 0.508679 0.987671
864 1 0.820823 0.91726 0.919752
445 1 0.499495 0.506384 0.984636
454 1 0.920868 0.573882 0.998657
739 1 0.754823 0.508601 0.747713
796 1 0.0130776 0.583347 0.910577
816 1 0.836661 0.58959 0.918788
839 1 0.920466 0.664921 0.923763
490 1 0.434711 0.920966 0.985892
819 1 0.091424 0.668445 0.908631
823 1 0.241231 0.680268 0.910656
824 1 0.164663 0.751338 0.912753
847 1 0.253331 0.847448 0.906753
828 1 0.347042 0.756606 0.91115
438 1 0.245627 0.580422 0.982655
466 1 0.428133 0.748034 0.982634
465 1 0.334802 0.669421 0.991313
361 1 0.00106086 0.995778 0.833212
827 1 0.40584 0.663849 0.906762
832 1 0.522655 0.742738 0.922102
831 1 0.588093 0.666351 0.921154
836 1 0.669174 0.751107 0.928699
833 1 0.675573 0.675001 0.848744
835 1 0.755829 0.671076 0.932083
854 1 0.58801 0.910322 0.835432
820 1 0.998224 0.76248 0.908472
841 1 0.999126 0.838257 0.821619
840 1 0.84081 0.749873 0.936212
844 1 0.00834088 0.929128 0.910583
686 1 0.576879 0.75834 0.508858
485 1 0.165469 0.838609 0.983472
848 1 0.166589 0.920439 0.909069
843 1 0.0808884 0.850842 0.899851
793 1 0.00436829 0.505185 0.821498
846 1 0.256301 0.925378 0.816509
803 1 0.412269 0.514684 0.913198
486 1 0.256348 0.918755 0.983441
489 1 0.338598 0.848102 0.978269
852 1 0.331139 0.926827 0.908343
494 1 0.580229 0.930314 0.996625
856 1 0.511485 0.929797 0.915803
851 1 0.427227 0.83864 0.918992
849 1 0.341487 0.825457 0.828884
850 1 0.41191 0.917071 0.834422
461 1 0.174782 0.685623 0.989109
855 1 0.592529 0.835109 0.917685
801 1 0.324164 0.511644 0.826632
860 1 0.673858 0.921691 0.909215
379 1 0.744705 0.999385 0.910538
501 1 0.827953 0.834569 0.997618
482 1 0.0861755 0.922615 0.999851
237 1 0.818873 0.9974 0.512138
