ITEM: TIMESTEP
750
ITEM: NUMBER OF ATOMS
864
ITEM: BOX BOUNDS pp pp pp
0.0000000000000000e+00 3.1559999999999999e+01
0.0000000000000000e+00 3.1559999999999999e+01
0.0000000000000000e+00 3.1559999999999999e+01
ITEM: ATOMS id type xs ys zs
589 1 0.514616 0.49692 0.32255
53 1 0.165032 0.334886 0.0158619
285 1 0.841715 0.335702 0.48306
4 1 0.0217456 0.0902798 0.0885409
46 1 0.914386 0.240064 0.00505509
159 1 0.58641 0.0237135 0.410618
216 1 0.817242 0.418808 0.429326
8 1 0.156853 0.0898325 0.0849761
242 1 0.0735292 0.243528 0.499062
443 1 0.42698 0.489367 0.0819496
215 1 0.9198 0.340743 0.416627
12 1 0.33368 0.0861818 0.0801161
581 1 0.175492 0.49784 0.331901
229 1 0.504458 0.00574133 0.498364
214 1 0.928702 0.417327 0.340116
16 1 0.501877 0.108584 0.0985136
213 1 0.84619 0.343306 0.33384
23 1 0.921864 0.000178066 0.0806854
587 1 0.422812 0.498305 0.414871
20 1 0.662821 0.0968639 0.0899385
212 1 0.676575 0.422699 0.432556
157 1 0.508409 0.00096582 0.315427
211 1 0.74618 0.340891 0.424356
24 1 0.827489 0.0817321 0.100621
274 1 0.392214 0.422753 0.496024
10 1 0.434665 0.0933698 0.00800728
27 1 0.0839474 0.176413 0.0814508
28 1 0.00525797 0.258399 0.0837845
519 1 0.589803 0.492113 0.240663
515 1 0.427012 0.497787 0.249244
31 1 0.242566 0.157744 0.0753023
32 1 0.163632 0.245979 0.0967233
451 1 0.757038 0.491088 0.0601049
447 1 0.591932 0.487256 0.0809248
35 1 0.413733 0.180058 0.080922
36 1 0.328182 0.255638 0.0793638
234 1 0.742451 0.0893106 0.488909
455 1 0.917937 0.497584 0.0845375
39 1 0.586967 0.199202 0.0925819
40 1 0.483156 0.262598 0.0685437
81 1 0.339338 0.0143151 0.176241
49 1 0.00279791 0.340523 0.00434797
43 1 0.750155 0.172205 0.0848536
44 1 0.679761 0.261572 0.0786406
269 1 0.161249 0.347775 0.478428
593 1 0.67179 0.497101 0.334541
47 1 0.908747 0.162365 0.0840692
48 1 0.832975 0.255246 0.0808608
15 1 0.585051 0.0202631 0.0689137
222 1 0.241487 0.0809849 0.497029
51 1 0.0805246 0.334478 0.095664
52 1 0.00237337 0.409487 0.0841051
261 1 0.833 0.154392 0.4908
597 1 0.831119 0.486835 0.345078
55 1 0.245922 0.326594 0.0935105
56 1 0.183382 0.425935 0.0832866
161 1 0.668349 0.0256642 0.336474
199 1 0.254426 0.342912 0.415046
59 1 0.403581 0.341034 0.0686025
60 1 0.323117 0.423995 0.0881914
198 1 0.254486 0.421368 0.329589
197 1 0.157474 0.345048 0.33795
63 1 0.561464 0.327817 0.0721944
64 1 0.508929 0.429902 0.0704214
22 1 0.930606 0.083383 0.00193966
196 1 0.0141332 0.420255 0.430895
67 1 0.758235 0.334524 0.0593517
68 1 0.673069 0.407901 0.0746612
6 1 0.243171 0.0687292 0.00841321
195 1 0.0755887 0.323983 0.421001
71 1 0.91805 0.338922 0.0894188
72 1 0.839568 0.414924 0.0778166
210 1 0.75312 0.416268 0.332405
74 1 0.090963 0.0776885 0.175246
11 1 0.428812 0.00472853 0.0727449
76 1 0.0107004 0.0862778 0.245036
249 1 0.334038 0.160965 0.473067
78 1 0.25816 0.103705 0.164555
233 1 0.662016 0.00795667 0.493768
80 1 0.171815 0.0692975 0.244512
209 1 0.676181 0.351854 0.347127
82 1 0.417026 0.0919733 0.163327
208 1 0.491384 0.417521 0.412924
84 1 0.328164 0.0885686 0.256872
3 1 0.0955883 0.00104161 0.0787776
86 1 0.583787 0.0992718 0.158971
277 1 0.488335 0.325727 0.479245
88 1 0.499774 0.0824485 0.242197
207 1 0.601718 0.335008 0.422268
90 1 0.739323 0.0926692 0.164318
206 1 0.585909 0.427586 0.339398
92 1 0.659958 0.0885655 0.244504
26 1 0.0807997 0.255188 0.00130679
94 1 0.932108 0.0781713 0.159486
205 1 0.506174 0.338378 0.327154
96 1 0.853374 0.072731 0.235572
97 1 0.993016 0.167549 0.166427
98 1 0.0839418 0.231989 0.181932
99 1 0.080243 0.163537 0.278033
100 1 0.995788 0.24147 0.261666
101 1 0.167904 0.164219 0.180583
102 1 0.256715 0.24245 0.173541
103 1 0.239337 0.1625 0.257002
104 1 0.163899 0.257042 0.251923
105 1 0.342974 0.179999 0.159904
106 1 0.414536 0.263666 0.15108
107 1 0.422681 0.169172 0.248767
108 1 0.330667 0.25868 0.241967
109 1 0.500842 0.183745 0.171894
110 1 0.590893 0.269782 0.175905
111 1 0.584105 0.169854 0.250835
112 1 0.499791 0.274939 0.241017
113 1 0.68108 0.176035 0.175408
114 1 0.757175 0.252989 0.161396
115 1 0.768265 0.173972 0.24962
116 1 0.674159 0.250401 0.265111
117 1 0.834267 0.16763 0.171921
118 1 0.911798 0.255471 0.170191
119 1 0.921341 0.147738 0.262273
120 1 0.832055 0.265437 0.241405
121 1 0.0125934 0.322883 0.171641
122 1 0.0845244 0.417983 0.164713
123 1 0.0906456 0.328611 0.256414
124 1 0.0145066 0.434132 0.256138
125 1 0.16499 0.33029 0.170611
126 1 0.252025 0.414267 0.171741
127 1 0.239792 0.332787 0.248651
128 1 0.175182 0.412253 0.252019
129 1 0.333003 0.340102 0.171525
130 1 0.410053 0.412606 0.160845
131 1 0.424266 0.343321 0.23747
132 1 0.330534 0.4208 0.251382
133 1 0.495374 0.352297 0.150445
134 1 0.603135 0.408943 0.169927
135 1 0.604932 0.349199 0.268226
136 1 0.508069 0.416744 0.251482
137 1 0.684626 0.347912 0.157938
138 1 0.761326 0.429218 0.153116
139 1 0.755803 0.337607 0.236562
140 1 0.689947 0.430009 0.234444
141 1 0.837495 0.347714 0.163642
142 1 0.928976 0.408968 0.173567
143 1 0.918788 0.335535 0.253641
144 1 0.828877 0.417317 0.250687
204 1 0.334013 0.427337 0.401718
146 1 0.0800361 0.0630141 0.327581
509 1 0.175091 0.493985 0.171772
148 1 0.00853967 0.0784859 0.422608
203 1 0.398374 0.342346 0.396744
150 1 0.239814 0.0824336 0.327073
265 1 0.0104889 0.33634 0.499464
152 1 0.164023 0.084253 0.411943
453 1 0.851005 0.48222 0.000458954
154 1 0.40971 0.0804913 0.324688
25 1 0.997605 0.171298 0.00612749
156 1 0.32575 0.07684 0.392776
202 1 0.421959 0.421942 0.330778
158 1 0.577354 0.0975152 0.342441
253 1 0.504288 0.167287 0.487177
160 1 0.492877 0.0900942 0.410852
241 1 0.994463 0.156982 0.488353
162 1 0.752885 0.0914998 0.328611
201 1 0.31957 0.325732 0.321438
164 1 0.668429 0.0974541 0.413774
200 1 0.170014 0.427272 0.413677
166 1 0.907141 0.0704567 0.328148
226 1 0.415442 0.0917188 0.495318
168 1 0.837969 0.0606991 0.427071
169 1 0.996097 0.158524 0.353011
170 1 0.0756146 0.243266 0.34969
171 1 0.0826762 0.16401 0.413943
172 1 0.982624 0.247543 0.423072
173 1 0.165086 0.16465 0.334859
174 1 0.24946 0.23843 0.326624
175 1 0.245471 0.165076 0.412081
176 1 0.164088 0.251106 0.418723
177 1 0.337069 0.174784 0.334317
178 1 0.432103 0.252605 0.327496
179 1 0.418446 0.183837 0.409767
180 1 0.320619 0.251611 0.414285
181 1 0.507788 0.170546 0.32107
182 1 0.587735 0.251702 0.323343
183 1 0.594993 0.182303 0.408136
184 1 0.511697 0.240546 0.406349
185 1 0.666657 0.163071 0.338453
186 1 0.767352 0.270162 0.348893
187 1 0.765575 0.176406 0.411245
188 1 0.674339 0.262529 0.421055
189 1 0.850552 0.1686 0.324842
190 1 0.918926 0.256862 0.330198
191 1 0.911481 0.134627 0.416644
192 1 0.84779 0.243471 0.410291
193 1 0.0136785 0.335279 0.336361
194 1 0.0805585 0.425874 0.34118
250 1 0.403507 0.258631 0.483354
87 1 0.586843 0.000446869 0.256887
435 1 0.087449 0.491347 0.0912129
527 1 0.916029 0.490751 0.254579
525 1 0.844733 0.492578 0.168517
37 1 0.508885 0.170459 0.00502315
238 1 0.926504 0.0600781 0.495034
246 1 0.242645 0.249778 0.494068
505 1 0.991511 0.498069 0.164695
270 1 0.253694 0.428448 0.487783
245 1 0.159106 0.159741 0.498702
254 1 0.579542 0.254031 0.497586
218 1 0.0854209 0.0688386 0.487709
432 1 0.852375 0.401847 0.906956
297 1 0.336533 0.00200173 0.674655
303 1 0.584736 0.00198368 0.742073
220 1 0.00841567 0.0810032 0.591445
431 1 0.944777 0.338343 0.914157
14 1 0.58243 0.0809238 0.98264
61 1 0.492009 0.346448 0.99253
224 1 0.171573 0.0818444 0.571996
428 1 0.694408 0.416265 0.894326
381 1 0.843779 0.00478508 0.833768
227 1 0.391639 0.0155404 0.574216
228 1 0.304241 0.0882341 0.579079
62 1 0.585628 0.402241 0.993421
262 1 0.916946 0.243399 0.50929
375 1 0.583874 0.00677922 0.898311
232 1 0.493616 0.0824723 0.574884
295 1 0.245816 0.00111566 0.753621
807 1 0.590692 0.490673 0.916061
427 1 0.774505 0.338179 0.914966
236 1 0.672816 0.0818965 0.580282
809 1 0.680708 0.499511 0.818827
311 1 0.915959 0.00198323 0.755715
424 1 0.507879 0.411853 0.916741
240 1 0.837318 0.0869214 0.577362
361 1 0.0127724 0.00844662 0.839265
9 1 0.333059 0.00607741 0.997476
243 1 0.0702561 0.15573 0.561773
244 1 0.00821842 0.246662 0.575627
66 1 0.768181 0.418389 0.985044
18 1 0.743097 0.0818036 0.99159
247 1 0.244194 0.176311 0.569233
248 1 0.156726 0.248438 0.583289
813 1 0.85233 0.486984 0.841742
301 1 0.491416 0.000367215 0.668759
251 1 0.383083 0.177441 0.569735
252 1 0.30887 0.259765 0.585932
365 1 0.166434 0.00431207 0.838903
369 1 0.316469 0.0124617 0.84471
255 1 0.573191 0.171163 0.583385
256 1 0.502686 0.260076 0.574611
257 1 0.665225 0.182088 0.503756
41 1 0.672386 0.168603 0.999467
259 1 0.759532 0.178623 0.569293
260 1 0.655468 0.242853 0.594399
50 1 0.097414 0.422235 0.990138
54 1 0.270934 0.429205 0.998056
263 1 0.925217 0.163954 0.584441
264 1 0.837369 0.261106 0.587729
299 1 0.416175 0.00433297 0.751907
396 1 0.318106 0.242828 0.903976
267 1 0.101025 0.33454 0.561509
268 1 0.0230149 0.4064 0.574293
395 1 0.408686 0.164766 0.908837
449 1 0.669236 0.468978 0.990838
271 1 0.239441 0.334448 0.575787
272 1 0.167105 0.417304 0.576879
392 1 0.158768 0.262787 0.927416
17 1 0.665034 0.00282601 0.999413
275 1 0.401741 0.309453 0.578043
276 1 0.343221 0.437695 0.586267
391 1 0.227436 0.168642 0.901363
371 1 0.413065 0.00850207 0.920744
279 1 0.586178 0.32264 0.581392
280 1 0.495663 0.398479 0.595222
388 1 0.00404864 0.24756 0.927843
387 1 0.0797822 0.170171 0.907899
283 1 0.749423 0.329498 0.586644
284 1 0.664313 0.417884 0.587934
384 1 0.823574 0.0852253 0.90558
29 1 0.168071 0.168611 0.991596
287 1 0.929342 0.330243 0.581437
288 1 0.837591 0.400462 0.582614
266 1 0.100808 0.432712 0.502771
290 1 0.0858721 0.0706401 0.676337
423 1 0.611861 0.342669 0.902693
292 1 0.990877 0.0833128 0.750235
420 1 0.32628 0.415513 0.900603
362 1 0.0842951 0.0827663 0.842198
419 1 0.408683 0.332886 0.918819
294 1 0.249391 0.0724563 0.674957
735 1 0.580646 0.49826 0.748004
296 1 0.152471 0.0820751 0.756304
286 1 0.929569 0.420264 0.500863
366 1 0.241585 0.0840623 0.824112
416 1 0.177481 0.433157 0.909759
298 1 0.395445 0.0935122 0.65025
42 1 0.747103 0.244844 0.978451
300 1 0.330888 0.0789409 0.753832
415 1 0.240034 0.331684 0.916658
370 1 0.4076 0.086829 0.829801
412 1 0.00749034 0.425632 0.91092
302 1 0.576618 0.0762848 0.663536
2 1 0.0825856 0.0961482 0.9939
304 1 0.492309 0.08952 0.746631
411 1 0.0853062 0.33928 0.919387
374 1 0.576265 0.0856377 0.834648
309 1 0.838524 0.00152873 0.653227
306 1 0.757324 0.080454 0.655871
408 1 0.856998 0.253846 0.915939
308 1 0.667027 0.0753732 0.74673
407 1 0.911089 0.156522 0.898721
378 1 0.742469 0.0845028 0.818224
404 1 0.665539 0.244418 0.904174
310 1 0.919856 0.0815885 0.654378
731 1 0.425325 0.495896 0.74814
312 1 0.845338 0.0741805 0.742804
403 1 0.752125 0.162457 0.904949
382 1 0.932541 0.0777836 0.837407
313 1 0.00484736 0.162793 0.666212
314 1 0.0887503 0.234722 0.667903
315 1 0.0725273 0.151128 0.75636
316 1 0.00416301 0.241069 0.737471
385 1 0.998056 0.168629 0.834169
386 1 0.0823937 0.246804 0.827916
317 1 0.17755 0.151259 0.656155
318 1 0.234509 0.252394 0.666193
319 1 0.243563 0.164438 0.742425
320 1 0.158309 0.254687 0.752325
389 1 0.160724 0.16064 0.82459
390 1 0.238262 0.244188 0.822021
321 1 0.30876 0.175948 0.651715
322 1 0.411461 0.237013 0.659605
323 1 0.408823 0.169146 0.750755
324 1 0.333435 0.253017 0.738496
393 1 0.316496 0.159896 0.830835
394 1 0.400854 0.238905 0.837736
325 1 0.490034 0.163085 0.665571
326 1 0.573687 0.259115 0.674733
327 1 0.563597 0.174204 0.747573
328 1 0.491745 0.248639 0.759769
397 1 0.486384 0.16992 0.828208
398 1 0.577575 0.237581 0.841313
329 1 0.654712 0.154431 0.662922
330 1 0.747808 0.236011 0.660433
331 1 0.764454 0.157961 0.747937
332 1 0.655244 0.241656 0.746277
401 1 0.668726 0.168805 0.825839
402 1 0.762403 0.247192 0.833266
333 1 0.841847 0.169924 0.659879
334 1 0.926499 0.249125 0.657327
335 1 0.922543 0.165449 0.732534
336 1 0.839183 0.242453 0.742635
405 1 0.846532 0.177669 0.819706
406 1 0.930668 0.251639 0.82818
337 1 0.00443251 0.32913 0.66035
338 1 0.0978112 0.43141 0.663777
339 1 0.0775166 0.3221 0.753127
340 1 0.00579463 0.41204 0.731233
409 1 0.0140423 0.343291 0.833401
410 1 0.0902858 0.420723 0.82896
341 1 0.159424 0.336587 0.665351
342 1 0.243931 0.420022 0.650203
343 1 0.254338 0.323475 0.750435
344 1 0.177056 0.424964 0.751842
413 1 0.171695 0.342503 0.833203
414 1 0.251404 0.42012 0.820608
345 1 0.331414 0.344923 0.658402
346 1 0.419662 0.395123 0.672666
347 1 0.41969 0.325324 0.755942
348 1 0.341569 0.415479 0.760349
417 1 0.321738 0.327156 0.845651
418 1 0.419189 0.416873 0.835309
349 1 0.494395 0.32113 0.68131
350 1 0.574069 0.393777 0.667788
351 1 0.593079 0.321697 0.767742
352 1 0.497588 0.402695 0.752905
421 1 0.503689 0.317672 0.850034
422 1 0.591009 0.426276 0.828692
353 1 0.664495 0.328462 0.666702
354 1 0.747892 0.412145 0.658875
355 1 0.757964 0.331166 0.739335
356 1 0.657079 0.419255 0.728217
425 1 0.691169 0.332611 0.823165
426 1 0.756832 0.422239 0.801536
357 1 0.850496 0.325317 0.670247
358 1 0.926535 0.410228 0.656202
359 1 0.931206 0.325946 0.747868
360 1 0.853055 0.417167 0.73517
429 1 0.846196 0.320259 0.810374
430 1 0.933153 0.40692 0.810038
400 1 0.475607 0.25122 0.934522
364 1 0.0127087 0.0894358 0.923171
399 1 0.581361 0.164236 0.922066
368 1 0.156833 0.0797158 0.925074
739 1 0.744382 0.494259 0.725461
372 1 0.30643 0.0892301 0.914357
38 1 0.579781 0.265075 0.975427
376 1 0.491916 0.0863749 0.906311
721 1 0.00227098 0.48348 0.653555
380 1 0.662388 0.0838466 0.90672
45 1 0.8312 0.165146 0.988869
33 1 0.299051 0.172783 0.988236
663 1 0.567529 0.482867 0.590529
273 1 0.327246 0.339606 0.510016
58 1 0.413773 0.423252 0.984032
667 1 0.75563 0.494429 0.598325
282 1 0.749106 0.410074 0.513833
57 1 0.319395 0.333407 0.999836
793 1 0.00818293 0.493488 0.838488
65 1 0.685783 0.330165 0.985594
70 1 0.930814 0.425693 0.998315
278 1 0.565426 0.401777 0.509799
659 1 0.43102 0.487564 0.591998
729 1 0.334643 0.494056 0.671503
281 1 0.668021 0.328284 0.511896
367 1 0.244767 0.0114873 0.919624
258 1 0.765088 0.257036 0.504433
373 1 0.497266 0.00938267 0.832184
69 1 0.85191 0.347272 0.997171
34 1 0.391729 0.248895 0.996239
815 1 0.925305 0.495889 0.922243
230 1 0.581611 0.0935806 0.506695
289 1 0.995877 0.00666019 0.669964
30 1 0.237307 0.258923 0.995442
648 1 0.824307 0.913603 0.412096
85 1 0.500439 0.995707 0.161995
646 1 0.903598 0.922685 0.329012
436 1 0.00533382 0.578622 0.0834135
442 1 0.432729 0.569898 0.0159703
225 1 0.314404 0.996326 0.492847
591 1 0.579511 0.519873 0.42167
440 1 0.166811 0.588125 0.0814015
644 1 0.666675 0.915794 0.42469
705 1 0.334447 0.846994 0.484684
666 1 0.745452 0.58273 0.496452
444 1 0.343569 0.597076 0.0809156
657 1 0.328493 0.510006 0.497452
454 1 0.914228 0.579257 0.00192486
583 1 0.259978 0.513364 0.42117
448 1 0.511603 0.581142 0.0948028
642 1 0.728328 0.917592 0.332717
507 1 0.094303 0.507689 0.240351
640 1 0.507516 0.919345 0.41065
452 1 0.675297 0.572143 0.0657791
638 1 0.59307 0.914061 0.334087
77 1 0.160914 0.978519 0.172983
636 1 0.33769 0.922096 0.409045
456 1 0.841843 0.575212 0.0935722
521 1 0.681017 0.505215 0.148959
682 1 0.436889 0.759457 0.484029
459 1 0.0763397 0.673611 0.081336
460 1 0.990053 0.746437 0.0769194
513 1 0.342895 0.506172 0.173535
483 1 0.0858061 0.821222 0.0843481
523 1 0.760186 0.50055 0.245594
654 1 0.255609 0.590056 0.499306
463 1 0.25479 0.664944 0.0904832
464 1 0.163096 0.746395 0.0663338
681 1 0.350581 0.670358 0.488273
487 1 0.248627 0.822074 0.092041
73 1 0.00836209 0.995937 0.146952
709 1 0.519844 0.823794 0.496014
467 1 0.431364 0.662982 0.0636977
468 1 0.33794 0.757788 0.0661389
153 1 0.349024 0.997287 0.323072
491 1 0.420865 0.834721 0.0768547
79 1 0.254708 0.993428 0.247795
670 1 0.932666 0.587671 0.494833
471 1 0.60241 0.659303 0.0834323
472 1 0.515396 0.730625 0.082042
585 1 0.351522 0.511597 0.322649
495 1 0.605765 0.810258 0.0746918
167 1 0.909426 0.977602 0.418393
7 1 0.253857 0.996767 0.0838219
475 1 0.751839 0.647505 0.087539
476 1 0.688634 0.739764 0.0796432
511 1 0.256957 0.500237 0.247663
499 1 0.752914 0.837777 0.0694674
75 1 0.0631796 0.994162 0.250299
145 1 0.99574 0.999785 0.347033
479 1 0.916261 0.667803 0.0868047
480 1 0.828622 0.747415 0.0908886
599 1 0.916814 0.502755 0.425115
503 1 0.92418 0.832933 0.0719259
89 1 0.655415 0.99922 0.155595
484 1 0.999975 0.916076 0.0721949
437 1 0.178625 0.502736 0.00979051
488 1 0.176574 0.91595 0.0810437
498 1 0.74225 0.920947 0.00294941
492 1 0.340653 0.927496 0.0827354
494 1 0.589242 0.912055 0.0012709
496 1 0.510962 0.904015 0.0816502
149 1 0.170044 0.99328 0.324704
500 1 0.653895 0.921908 0.0808984
457 1 0.99829 0.6614 0.00213452
504 1 0.833698 0.89969 0.062708
595 1 0.753771 0.501894 0.419511
506 1 0.0747764 0.603838 0.169354
473 1 0.675952 0.655609 0.000590143
508 1 0.0112054 0.575803 0.257954
702 1 0.243159 0.915811 0.496715
510 1 0.241686 0.580985 0.185318
95 1 0.915207 0.994397 0.240102
512 1 0.148545 0.600768 0.263843
634 1 0.419205 0.902228 0.319542
514 1 0.412144 0.587664 0.153923
632 1 0.168189 0.907142 0.41279
516 1 0.339581 0.59151 0.248683
217 1 0.0115028 0.984692 0.489051
518 1 0.598679 0.573239 0.15624
630 1 0.244587 0.918505 0.332808
520 1 0.495591 0.580542 0.239113
147 1 0.0793518 0.989186 0.412401
522 1 0.753211 0.579825 0.173749
718 1 0.908532 0.904954 0.497396
524 1 0.669345 0.563513 0.244592
628 1 0.999072 0.9009 0.428491
526 1 0.921473 0.583466 0.16888
626 1 0.0892735 0.915559 0.341773
528 1 0.847903 0.572179 0.25494
529 1 0.00203834 0.677344 0.169341
530 1 0.0803495 0.75472 0.169021
531 1 0.0589297 0.667826 0.263775
532 1 0.973425 0.745528 0.249554
553 1 0.00237959 0.827082 0.165338
555 1 0.0784168 0.827475 0.251679
533 1 0.160124 0.670479 0.166732
534 1 0.230666 0.751822 0.167291
535 1 0.248785 0.674674 0.247914
536 1 0.1626 0.760373 0.25858
557 1 0.160357 0.8446 0.162788
559 1 0.251907 0.832489 0.244753
537 1 0.333659 0.666127 0.174404
538 1 0.420254 0.752682 0.15488
539 1 0.419663 0.66232 0.241904
540 1 0.338872 0.75527 0.247016
561 1 0.338427 0.840075 0.159241
563 1 0.43673 0.831234 0.2324
541 1 0.504914 0.662471 0.160851
542 1 0.601785 0.737093 0.161847
543 1 0.581393 0.657067 0.240735
544 1 0.507845 0.747882 0.238627
565 1 0.515031 0.817858 0.143468
567 1 0.582794 0.817913 0.2331
545 1 0.679568 0.656425 0.166144
546 1 0.757774 0.73202 0.166187
547 1 0.756564 0.657139 0.256217
548 1 0.661558 0.740954 0.240199
569 1 0.678779 0.805943 0.155167
571 1 0.747377 0.812911 0.242238
549 1 0.842277 0.650902 0.174727
550 1 0.907677 0.756431 0.163701
551 1 0.913884 0.656433 0.257261
552 1 0.852402 0.745829 0.250608
573 1 0.832129 0.837808 0.158064
575 1 0.909982 0.835969 0.255339
554 1 0.0766033 0.906653 0.16933
556 1 0.981788 0.908978 0.251396
558 1 0.258765 0.913017 0.151831
560 1 0.167263 0.91166 0.248755
562 1 0.423404 0.912421 0.164288
564 1 0.333283 0.912187 0.232869
566 1 0.577453 0.914962 0.167067
568 1 0.513583 0.910709 0.257158
570 1 0.725538 0.908111 0.160778
572 1 0.653574 0.910376 0.239278
574 1 0.915468 0.911305 0.164316
576 1 0.811419 0.906717 0.247042
93 1 0.832191 0.98405 0.162341
578 1 0.0882168 0.58317 0.347707
579 1 0.090558 0.51492 0.419978
580 1 0.0140744 0.583884 0.413445
155 1 0.418858 0.998606 0.399781
582 1 0.251152 0.587738 0.354052
647 1 0.908182 0.832641 0.42189
584 1 0.174078 0.58438 0.424941
91 1 0.732511 0.993838 0.240196
586 1 0.423673 0.589992 0.32049
439 1 0.255841 0.518841 0.0924448
588 1 0.360917 0.58722 0.41015
645 1 0.819459 0.825577 0.343244
590 1 0.589263 0.585941 0.340823
577 1 0.00694681 0.503809 0.350189
592 1 0.48997 0.581376 0.400336
165 1 0.816588 0.999048 0.323539
594 1 0.765744 0.58289 0.342086
624 1 0.836834 0.74611 0.428912
596 1 0.668257 0.591804 0.415526
623 1 0.917583 0.672117 0.423788
598 1 0.921188 0.582363 0.345752
678 1 0.245933 0.75154 0.487818
600 1 0.83211 0.57106 0.42512
601 1 0.984739 0.671228 0.338397
602 1 0.0739435 0.75452 0.321308
603 1 0.0730434 0.69177 0.4038
604 1 0.983809 0.75594 0.439234
625 1 0.994199 0.834737 0.330782
627 1 0.0712985 0.820054 0.406304
605 1 0.15138 0.678223 0.346772
606 1 0.248289 0.753402 0.331611
607 1 0.248076 0.675173 0.410699
608 1 0.159155 0.75749 0.416853
629 1 0.168506 0.833257 0.323304
631 1 0.244061 0.827401 0.403972
609 1 0.327677 0.672 0.329073
610 1 0.422724 0.763576 0.33521
611 1 0.424025 0.676893 0.397427
612 1 0.328983 0.757065 0.418459
633 1 0.346088 0.83474 0.321084
635 1 0.440289 0.839835 0.421581
613 1 0.506388 0.674916 0.32389
614 1 0.593315 0.740531 0.333731
615 1 0.57807 0.660168 0.417381
616 1 0.517092 0.749608 0.413453
637 1 0.511367 0.836802 0.33336
639 1 0.600442 0.824332 0.415716
617 1 0.670989 0.654556 0.323572
618 1 0.741307 0.745545 0.33538
619 1 0.754617 0.667149 0.413856
620 1 0.678488 0.749351 0.424335
641 1 0.657192 0.826245 0.312823
643 1 0.745234 0.829881 0.428838
621 1 0.838911 0.671559 0.342289
622 1 0.904491 0.762842 0.337371
446 1 0.588228 0.59203 0.00286707
163 1 0.746761 0.994472 0.424114
485 1 0.166815 0.836526 0.00855635
83 1 0.427707 0.994456 0.246216
517 1 0.50092 0.506092 0.166919
477 1 0.833875 0.655692 0.00648069
685 1 0.49296 0.663668 0.497484
677 1 0.168215 0.680155 0.495409
151 1 0.245244 0.992283 0.407835
19 1 0.755331 0.995088 0.086106
864 1 0.843687 0.912412 0.914387
727 1 0.257522 0.504487 0.740825
698 1 0.0856207 0.908271 0.517743
652 1 0.00947979 0.599792 0.590852
649 1 0.00408474 0.50561 0.525551
474 1 0.753116 0.738412 0.995495
860 1 0.664198 0.926573 0.928121
656 1 0.194089 0.602588 0.584402
856 1 0.508699 0.912225 0.918474
502 1 0.926019 0.905056 0.992583
291 1 0.0889855 0.987315 0.752207
660 1 0.346139 0.568357 0.59295
852 1 0.330792 0.926536 0.918895
743 1 0.916052 0.505328 0.743353
848 1 0.168702 0.912957 0.9119
664 1 0.490385 0.592458 0.594936
844 1 0.00942749 0.925531 0.91646
231 1 0.591953 0.999675 0.567489
811 1 0.762321 0.504954 0.922507
668 1 0.675157 0.585893 0.591849
293 1 0.169194 0.992459 0.656369
655 1 0.25835 0.502989 0.576636
863 1 0.919653 0.830674 0.90608
672 1 0.836726 0.57467 0.58841
379 1 0.752438 0.987652 0.920316
733 1 0.500894 0.519323 0.677998
675 1 0.102068 0.671445 0.590286
676 1 0.00353713 0.747427 0.584346
377 1 0.669808 0.999172 0.847389
699 1 0.0950241 0.823531 0.606414
805 1 0.49143 0.502553 0.823505
741 1 0.836056 0.502154 0.668075
679 1 0.266558 0.683815 0.57399
680 1 0.180339 0.750846 0.592135
803 1 0.416441 0.505527 0.913219
703 1 0.25591 0.835467 0.568486
690 1 0.753045 0.75056 0.509564
665 1 0.674462 0.506878 0.504346
683 1 0.406149 0.688605 0.575813
684 1 0.332992 0.765723 0.548392
438 1 0.253657 0.575423 0.997226
707 1 0.436448 0.836866 0.576737
21 1 0.833062 0.991162 0.999417
469 1 0.517395 0.66766 0.986765
687 1 0.588346 0.671051 0.592126
688 1 0.496994 0.750406 0.588845
223 1 0.245483 0.998049 0.588964
711 1 0.581947 0.838076 0.581184
689 1 0.685244 0.666293 0.510588
383 1 0.911718 0.993561 0.933397
691 1 0.74835 0.667879 0.595681
692 1 0.667412 0.750846 0.598138
653 1 0.169281 0.51135 0.513213
715 1 0.739352 0.836019 0.573269
697 1 0.997168 0.832544 0.510134
13 1 0.497847 0.999185 0.985805
695 1 0.931851 0.665383 0.585211
696 1 0.838836 0.75224 0.587054
713 1 0.655791 0.837987 0.501818
719 1 0.924316 0.822769 0.607318
466 1 0.424225 0.739105 0.995658
700 1 0.998119 0.903176 0.59648
305 1 0.656564 0.99467 0.659077
704 1 0.179282 0.907979 0.584551
441 1 0.343245 0.507048 0.998377
708 1 0.329912 0.918877 0.583174
801 1 0.33447 0.506598 0.833726
712 1 0.496983 0.922813 0.584374
669 1 0.838398 0.50254 0.509908
716 1 0.658183 0.907265 0.580194
710 1 0.578262 0.92092 0.506405
720 1 0.830809 0.91636 0.588878
725 1 0.191414 0.517678 0.658888
722 1 0.0949746 0.599609 0.673066
840 1 0.845447 0.749605 0.904609
724 1 0.00404991 0.562589 0.748649
239 1 0.926445 0.997202 0.581685
794 1 0.0816448 0.580913 0.83019
737 1 0.655423 0.502159 0.664745
726 1 0.280921 0.584203 0.674447
797 1 0.169051 0.504891 0.829868
728 1 0.17698 0.580992 0.761036
465 1 0.338533 0.66637 0.995882
798 1 0.260597 0.593134 0.835636
686 1 0.588747 0.743632 0.509118
730 1 0.408492 0.588562 0.671154
445 1 0.517372 0.508114 0.995916
732 1 0.344481 0.580568 0.761158
839 1 0.923544 0.664815 0.915362
802 1 0.41303 0.595093 0.846013
673 1 0.0186444 0.67534 0.509135
734 1 0.579605 0.588179 0.675318
859 1 0.740632 0.819704 0.914162
736 1 0.485371 0.588596 0.756357
717 1 0.831239 0.824942 0.502785
806 1 0.602688 0.570585 0.831023
836 1 0.661939 0.745289 0.914731
738 1 0.763618 0.593593 0.667663
650 1 0.0892536 0.593803 0.510049
740 1 0.677499 0.576859 0.741012
799 1 0.271453 0.501803 0.914934
810 1 0.762926 0.581459 0.82464
461 1 0.156842 0.66905 0.996919
742 1 0.923678 0.582746 0.665274
835 1 0.754881 0.652927 0.913363
744 1 0.84859 0.585633 0.756494
855 1 0.580904 0.823359 0.92087
814 1 0.940289 0.568161 0.82974
745 1 0.999879 0.667616 0.675753
746 1 0.0833447 0.732837 0.677313
747 1 0.100815 0.658064 0.75923
748 1 0.00673134 0.744224 0.753147
769 1 0.00559207 0.818584 0.673843
771 1 0.089529 0.81693 0.754898
817 1 0.00886141 0.668479 0.82295
818 1 0.0883998 0.741511 0.836862
841 1 0.0126762 0.828203 0.839959
749 1 0.200668 0.663471 0.677134
750 1 0.267033 0.768388 0.653752
751 1 0.276863 0.682718 0.746995
752 1 0.182632 0.737227 0.747892
773 1 0.171352 0.828806 0.675585
775 1 0.23995 0.83762 0.76771
821 1 0.175682 0.657398 0.846946
822 1 0.242643 0.749847 0.833709
845 1 0.166094 0.832124 0.836757
753 1 0.332438 0.674553 0.659648
754 1 0.409971 0.759748 0.682476
755 1 0.405885 0.663321 0.75582
756 1 0.321553 0.776606 0.768402
777 1 0.3504 0.840685 0.657397
779 1 0.41623 0.842868 0.758555
825 1 0.33871 0.680884 0.85747
826 1 0.414421 0.755425 0.837321
849 1 0.348039 0.850266 0.838225
757 1 0.484937 0.67248 0.673596
758 1 0.579137 0.745182 0.666899
759 1 0.581947 0.674949 0.752792
760 1 0.489403 0.755467 0.749337
781 1 0.513294 0.843074 0.665126
783 1 0.573185 0.836406 0.758676
829 1 0.508471 0.65722 0.836048
830 1 0.577434 0.748561 0.840153
853 1 0.491594 0.837417 0.834865
761 1 0.664263 0.672794 0.67325
762 1 0.742212 0.756607 0.668664
763 1 0.756665 0.670834 0.745326
764 1 0.659862 0.757621 0.74935
785 1 0.637354 0.839286 0.665124
787 1 0.740049 0.840017 0.749537
833 1 0.678633 0.668505 0.830014
834 1 0.762897 0.744332 0.839333
857 1 0.669026 0.824389 0.833239
765 1 0.841685 0.662816 0.65642
766 1 0.923237 0.737333 0.670163
767 1 0.93251 0.650893 0.747733
768 1 0.825722 0.746924 0.743464
789 1 0.827824 0.827757 0.650949
791 1 0.914524 0.833998 0.752991
837 1 0.846557 0.654463 0.838634
838 1 0.919877 0.748331 0.81765
861 1 0.826353 0.826199 0.823564
770 1 0.0814938 0.914327 0.674033
772 1 0.998408 0.901449 0.743172
842 1 0.0772677 0.910118 0.830905
774 1 0.253811 0.910178 0.66695
776 1 0.166921 0.912428 0.756907
846 1 0.254708 0.921467 0.829647
778 1 0.438491 0.904065 0.671256
780 1 0.337055 0.915793 0.746336
850 1 0.426164 0.933145 0.840602
782 1 0.577506 0.930332 0.657604
784 1 0.500047 0.933343 0.763084
854 1 0.592862 0.90975 0.842276
786 1 0.728239 0.906103 0.658972
788 1 0.65583 0.925439 0.759316
858 1 0.743121 0.910766 0.825623
790 1 0.922227 0.914381 0.673808
792 1 0.837226 0.915575 0.740514
862 1 0.929664 0.925149 0.832842
832 1 0.498755 0.756915 0.919605
796 1 0.0125616 0.589498 0.918358
219 1 0.092716 0.989022 0.588
800 1 0.168375 0.572559 0.917506
363 1 0.0871967 0.995326 0.915592
804 1 0.333914 0.583607 0.924817
470 1 0.59361 0.747473 0.996875
808 1 0.505218 0.584866 0.915735
674 1 0.081727 0.769382 0.506238
812 1 0.668795 0.588321 0.904684
706 1 0.402526 0.923691 0.502665
816 1 0.848283 0.56903 0.911016
819 1 0.0848792 0.659838 0.904842
820 1 0.00311533 0.738003 0.91411
843 1 0.0921133 0.83546 0.918192
823 1 0.249737 0.656816 0.928093
824 1 0.173677 0.763051 0.921132
847 1 0.253383 0.84161 0.922895
827 1 0.426236 0.664013 0.918263
828 1 0.33754 0.746177 0.936157
851 1 0.414614 0.83243 0.918111
831 1 0.588836 0.661225 0.911092
490 1 0.402391 0.915424 0.994705
501 1 0.823347 0.833201 0.984429
651 1 0.0900943 0.519233 0.592369
694 1 0.905257 0.730974 0.508864
497 1 0.666538 0.835562 0.995585
478 1 0.901626 0.760709 0.999277
671 1 0.912624 0.500325 0.586038
5 1 0.166729 0.987504 0.998258
235 1 0.737586 0.994382 0.580277
307 1 0.760589 0.999027 0.751855
450 1 0.759702 0.58153 0.99842
658 1 0.41655 0.581521 0.506755
493 1 0.495996 0.836322 0.992111
723 1 0.103126 0.508795 0.740342
458 1 0.0849791 0.742348 0.987372
481 1 0.00114186 0.823526 0.983758
661 1 0.497834 0.506978 0.504234
434 1 0.0922085 0.587366 0.999661
795 1 0.085599 0.502783 0.917154
1 1 0.00143446 0.99929 0.998916
433 1 0.00287755 0.507916 0.999429
714 1 0.755803 0.914552 0.501328
486 1 0.26054 0.918395 0.994317
462 1 0.249837 0.740821 0.999216
237 1 0.827993 0.996226 0.508965
701 1 0.170434 0.82534 0.500385
693 1 0.826733 0.660808 0.523514
221 1 0.168338 0.995679 0.510931
489 1 0.32633 0.836047 0.994003
662 1 0.588916 0.585477 0.523329
482 1 0.0899042 0.917404 0.994016
