ITEM: TIMESTEP
5250
ITEM: NUMBER OF ATOMS
864
ITEM: BOX BOUNDS pp pp pp
0.0000000000000000e+00 3.1559999999999999e+01
0.0000000000000000e+00 3.1559999999999999e+01
0.0000000000000000e+00 3.1559999999999999e+01
ITEM: ATOMS id type xs ys zs
4 1 0.00719737 0.0946369 0.0901217
8 1 0.159735 0.0772905 0.0825342
7 1 0.25112 -0.000868599 0.0968149
149 1 0.16791 0.994644 0.174051
6 1 0.247686 0.0874925 1.00894
12 1 0.351689 0.0831887 0.0615426
29 1 0.160734 0.164214 0.998601
11 1 0.418065 -0.00373811 0.0880195
154 1 0.424448 0.0834344 0.16274
16 1 0.512021 0.0885475 0.0978823
157 1 0.500142 0.0142009 0.174077
153 1 0.347544 0.00729715 0.163539
15 1 0.577728 0.992956 0.087884
158 1 0.590388 0.0799053 0.164755
20 1 0.660774 0.0762203 0.085013
18 1 0.746994 0.0819574 -0.00267029
162 1 0.745877 0.0891056 0.175463
43 1 0.749892 0.166074 0.0785412
45 1 0.830933 0.16625 0.999903
24 1 0.827738 0.0866689 0.0826304
166 1 0.917993 0.0847682 0.17138
47 1 0.915437 0.155741 0.07002
189 1 0.84123 0.160518 0.157262
27 1 0.0847672 0.161611 0.0896673
169 1 0.00186118 0.172602 0.177206
28 1 0.98681 0.242647 0.0782696
26 1 0.0735462 0.237551 1.00507
31 1 0.261043 0.162004 0.0900665
32 1 0.163051 0.241856 0.0949082
55 1 0.26118 0.33234 0.0753083
30 1 0.257884 0.246624 0.020221
53 1 0.170943 0.322379 1.0076
35 1 0.417027 0.158144 0.089675
36 1 0.344729 0.250971 0.0788123
40 1 0.502306 0.261506 0.0854721
59 1 0.412499 0.332999 0.0858327
205 1 0.515593 0.324047 0.172093
39 1 0.579903 0.168467 0.0952857
44 1 0.669301 0.249086 0.0852078
63 1 0.58229 0.330973 0.0792524
67 1 0.733136 0.336453 0.0785993
48 1 0.825368 0.261983 0.0908726
209 1 0.659689 0.336081 0.159774
213 1 0.815159 0.338356 0.173178
69 1 0.822428 0.330358 0.00425582
71 1 0.907109 0.325683 0.0739251
193 1 0.992839 0.320653 0.16507
49 1 -0.00432988 0.324073 0.0131922
51 1 0.0855656 0.315726 0.0819587
50 1 0.0740716 0.400749 0.00433143
56 1 0.17187 0.413161 0.0934782
217 1 0.0161416 0.516074 0.160793
77 1 0.171837 0.501457 -0.00510921
60 1 0.341027 0.414377 0.0703351
198 1 0.260956 0.410148 0.165045
57 1 0.340182 0.324647 1.0028
64 1 0.511409 0.425794 0.0818817
201 1 0.338903 0.334376 0.164889
58 1 0.424507 0.411276 0.990352
68 1 0.665268 0.418745 0.0789219
233 1 0.6695 0.495071 0.154668
206 1 0.586041 0.418379 0.163891
89 1 0.679025 0.496508 0.998608
210 1 0.730358 0.408319 0.16423
72 1 0.830326 0.403271 0.0813845
52 1 0.996597 0.403751 0.0857416
95 1 0.931075 0.496611 0.0915166
214 1 0.919641 0.405202 0.165279
70 1 0.920762 0.420935 0.991911
75 1 0.0886444 0.49754 0.088511
76 1 0.00448565 0.584402 0.0655793
241 1 0.00522868 0.67308 0.17909
225 1 0.347542 0.482962 0.159884
79 1 0.251391 0.494482 0.0783665
80 1 0.162594 0.592956 0.084091
84 1 0.337939 0.573531 0.0826699
221 1 0.173276 0.502035 0.156314
222 1 0.250012 0.585065 0.167994
83 1 0.421937 0.498189 0.0694293
82 1 0.410503 0.581228 0.998604
88 1 0.492428 0.585003 0.0815618
107 1 0.412979 0.656534 0.0811325
226 1 0.414919 0.583893 0.156783
105 1 0.330903 0.651681 1.00672
229 1 0.493997 0.502534 0.153245
87 1 0.583191 0.505856 0.0862395
86 1 0.582451 0.579657 0.00479703
92 1 0.686531 0.581137 0.0712286
85 1 0.504608 0.50766 0.98404
91 1 0.759213 0.499002 0.099147
90 1 0.767208 0.577129 -0.00161327
234 1 0.758381 0.589626 0.160325
93 1 0.83993 0.50017 0.00387387
117 1 0.843436 0.664352 0.982484
96 1 0.843938 0.5769 0.0984956
119 1 0.933856 0.656025 0.0830276
73 1 0.0164833 0.493546 1.00376
99 1 0.0843906 0.670724 0.0922085
242 1 0.0905858 0.759171 0.176923
100 1 0.00550213 0.754737 0.0866793
123 1 0.0935586 0.841568 0.0874654
103 1 0.242007 0.671434 0.0983846
104 1 0.170259 0.751072 0.0741831
108 1 0.33761 0.73912 0.0869607
249 1 0.334893 0.653572 0.174544
131 1 0.41679 0.844827 0.0913887
277 1 0.502828 0.828247 0.170234
112 1 0.500191 0.742472 0.0940284
111 1 0.588369 0.647196 0.100085
135 1 0.592899 0.816509 0.0957363
115 1 0.758231 0.668306 0.0568979
116 1 0.662708 0.731905 0.0754858
139 1 0.752088 0.820988 0.0773623
114 1 0.761767 0.74391 0.988911
137 1 0.678609 0.821362 -0.00426839
120 1 0.848279 0.753198 0.0879144
118 1 0.915485 0.752324 0.00328553
143 1 0.909085 0.840128 0.0804086
262 1 0.935315 0.755317 0.168863
3 1 0.0959534 0.987727 0.0843307
124 1 0.00773636 0.914881 0.0753441
266 1 0.0818199 0.922317 0.185393
122 1 0.0879572 0.926594 0.991437
269 1 0.179359 0.832467 0.171643
127 1 0.25697 0.832636 0.0955464
128 1 0.182378 0.91293 0.0949413
126 1 0.256497 0.90252 0.00477653
132 1 0.328258 0.913229 0.0919569
274 1 0.411871 0.920046 0.178075
133 1 0.516724 0.818094 -0.0035923
136 1 0.504231 0.912164 0.0855308
140 1 0.669273 0.898646 0.0739468
134 1 0.582102 0.901404 0.00606855
19 1 0.749999 0.0137391 0.0832629
138 1 0.760827 0.903104 0.000248668
282 1 0.757669 0.916044 0.152222
165 1 0.834661 0.0100325 0.158916
265 1 0.0117943 0.840956 0.164661
144 1 0.842384 0.926276 0.082029
23 1 0.911971 0.0182592 0.076896
286 1 0.926817 0.913127 0.173152
146 1 0.0656508 0.0767794 0.176285
145 1 1.00512 0.995494 0.1618
290 1 0.0688356 0.0844486 0.338068
150 1 0.267225 0.08329 0.168957
177 1 0.339541 0.180058 0.171589
152 1 0.15871 0.0839486 0.250717
175 1 0.248106 0.157444 0.241289
151 1 0.244133 0.0012536 0.248774
156 1 0.340674 0.0857426 0.259232
160 1 0.519088 0.0957241 0.25057
155 1 0.423788 -0.00515068 0.254864
321 1 0.350787 0.154726 0.345976
298 1 0.428964 0.0829124 0.324237
181 1 0.505946 0.163735 0.172812
161 1 0.674586 1.00002 0.169897
302 1 0.581875 0.0964271 0.3309
305 1 0.661133 0.99983 0.341725
164 1 0.664357 0.0723017 0.245009
163 1 0.7477 1.0006 0.243227
187 1 0.745302 0.164693 0.262855
306 1 0.746251 0.0700762 0.330826
148 1 0.992976 0.075505 0.256031
168 1 0.840541 0.0831518 0.248204
309 1 0.834615 0.98414 0.321875
310 1 0.907687 0.101458 0.321966
191 1 0.91461 0.186788 0.241542
289 1 1.00318 -0.00305816 0.340445
170 1 0.0829888 0.240141 0.172441
197 1 0.173655 0.33076 0.152742
171 1 0.0838841 0.154638 0.237745
172 1 0.00347134 0.265192 0.255416
173 1 0.165522 0.16846 0.172165
174 1 0.247561 0.253879 0.17324
176 1 0.16711 0.248698 0.258711
178 1 0.426787 0.250515 0.166656
179 1 0.404166 0.163225 0.252444
180 1 0.336529 0.257105 0.259916
184 1 0.493953 0.235428 0.258515
185 1 0.660234 0.168367 0.175261
183 1 0.583861 0.171087 0.252219
182 1 0.57817 0.243712 0.171807
188 1 0.668021 0.238585 0.265786
186 1 0.741487 0.230838 0.174985
353 1 0.662221 0.332539 0.337742
329 1 0.660948 0.165557 0.339639
330 1 0.747159 0.259344 0.345298
333 1 0.845363 0.179747 0.328188
190 1 0.902332 0.264934 0.175216
192 1 0.817308 0.25385 0.253774
215 1 0.918412 0.326566 0.262438
194 1 0.0784724 0.404963 0.157301
195 1 0.0933853 0.329961 0.234828
196 1 0.0153535 0.412628 0.239252
338 1 0.0939338 0.409602 0.328474
361 1 0.00242675 0.497167 0.309954
200 1 0.175867 0.420872 0.234241
199 1 0.250675 0.336792 0.240148
223 1 0.255513 0.508085 0.237261
345 1 0.331125 0.337635 0.339856
341 1 0.159909 0.314099 0.336943
342 1 0.26676 0.429039 0.312954
203 1 0.426448 0.347558 0.252836
204 1 0.33762 0.405977 0.236732
202 1 0.426712 0.41501 0.168128
208 1 0.513542 0.427837 0.249838
207 1 0.584183 0.325456 0.250888
212 1 0.656451 0.409752 0.249381
231 1 0.596558 0.496243 0.265216
350 1 0.578278 0.423736 0.336482
357 1 0.825966 0.333785 0.335948
211 1 0.732582 0.326451 0.24056
235 1 0.753058 0.480289 0.240744
354 1 0.747849 0.402467 0.330095
216 1 0.837691 0.418029 0.247601
239 1 0.921801 0.491445 0.235685
219 1 0.0918899 0.493933 0.241846
218 1 0.0860037 0.59759 0.173251
220 1 0.988647 0.600425 0.266819
224 1 0.162817 0.578051 0.249254
228 1 0.344662 0.568652 0.235427
247 1 0.249948 0.660449 0.252206
365 1 0.158149 0.495974 0.331507
253 1 0.49511 0.670441 0.173894
227 1 0.424729 0.485616 0.243783
232 1 0.511281 0.568794 0.244472
251 1 0.412564 0.657376 0.242881
370 1 0.424457 0.58139 0.320002
230 1 0.598417 0.56962 0.171465
237 1 0.835246 0.493384 0.178801
377 1 0.68028 0.486778 0.333698
236 1 0.675893 0.571819 0.242104
261 1 0.851789 0.662311 0.163296
238 1 0.934354 0.580122 0.171863
240 1 0.860246 0.590117 0.256392
382 1 0.917708 0.574487 0.346187
263 1 0.91163 0.683377 0.254426
243 1 0.0728504 0.667038 0.254849
386 1 0.0880404 0.749587 0.340611
267 1 0.0946253 0.835238 0.264052
409 1 1.00337 0.832149 0.346566
246 1 0.248938 0.747351 0.168831
245 1 0.163338 0.668403 0.178188
248 1 0.175447 0.753834 0.248139
390 1 0.249953 0.746472 0.326927
250 1 0.408423 0.73705 0.17099
252 1 0.328979 0.746503 0.254707
256 1 0.505785 0.736444 0.248339
394 1 0.422639 0.734814 0.317824
417 1 0.329885 0.826169 0.333668
255 1 0.592249 0.65776 0.244958
254 1 0.592327 0.738512 0.169223
279 1 0.585495 0.84179 0.241838
257 1 0.672895 0.649397 0.167462
258 1 0.749048 0.730879 0.161298
259 1 0.756568 0.66488 0.246074
401 1 0.66594 0.652347 0.325096
260 1 0.67402 0.729777 0.254514
402 1 0.740779 0.755103 0.330826
281 1 0.676948 0.824717 0.164107
244 1 -0.00385401 0.759787 0.270925
264 1 0.82251 0.753398 0.245925
147 1 0.076628 1.00612 0.254555
410 1 0.0871687 0.91981 0.340528
268 1 -0.00167702 0.908647 0.25529
273 1 0.338664 0.820575 0.16697
271 1 0.252014 0.836516 0.253423
272 1 0.170516 0.91227 0.25022
270 1 0.2562 0.920471 0.177158
276 1 0.332756 0.906759 0.263448
293 1 0.151983 0.0180689 0.345067
414 1 0.250308 0.925449 0.331304
275 1 0.418631 0.83399 0.244575
159 1 0.571685 0.985505 0.237259
280 1 0.503088 0.907217 0.243263
278 1 0.590641 0.907627 0.167906
422 1 0.596746 0.908236 0.343983
285 1 0.834028 0.83084 0.16939
283 1 0.74187 0.840791 0.252716
284 1 0.661302 0.933128 0.255629
426 1 0.742858 0.911782 0.335778
167 1 0.921288 1.00454 0.251554
287 1 0.923791 0.829066 0.252511
288 1 0.839967 0.914683 0.239027
317 1 0.170396 0.165383 0.326004
434 1 0.0785363 0.0893143 0.505796
291 1 0.0792329 0.999229 0.43869
294 1 0.255505 0.0856618 0.330795
296 1 0.176265 0.0944197 0.427687
319 1 0.246021 0.171317 0.419792
461 1 0.162156 0.170692 0.503508
438 1 0.248892 0.0922301 0.494571
300 1 0.331894 0.0600503 0.418953
323 1 0.41266 0.158285 0.427715
299 1 0.410936 0.992645 0.411831
445 1 0.50317 0.976268 0.499679
297 1 0.323836 1.00182 0.327618
442 1 0.410101 0.0678187 0.486799
301 1 0.517298 0.996262 0.32711
304 1 0.495808 0.0794182 0.426665
303 1 0.579332 0.0106179 0.437285
308 1 0.659382 0.0859695 0.414212
446 1 0.587243 0.0846771 0.507361
449 1 0.66331 0.00394507 0.503293
450 1 0.747298 0.0754558 0.485349
473 1 0.66646 0.161148 0.50853
477 1 0.812617 0.155974 0.496486
292 1 -0.00412908 0.0774794 0.410683
312 1 0.832543 0.0764644 0.411108
454 1 0.914692 0.100359 0.506149
311 1 0.907876 0.00858194 0.40142
335 1 0.924555 0.170316 0.421085
314 1 0.0777227 0.239747 0.338445
313 1 0.993388 0.17554 0.326483
315 1 0.0804985 0.158628 0.420642
458 1 0.0819618 0.243228 0.510979
318 1 0.257316 0.254019 0.332076
320 1 0.179027 0.243608 0.414497
325 1 0.488122 0.160651 0.354664
465 1 0.31961 0.170031 0.491167
324 1 0.328313 0.24848 0.417392
322 1 0.409568 0.243171 0.343544
328 1 0.501956 0.254362 0.415849
326 1 0.586349 0.256155 0.332553
327 1 0.575063 0.166872 0.415921
351 1 0.568976 0.332961 0.404785
332 1 0.655633 0.25234 0.415108
331 1 0.741656 0.16835 0.413034
355 1 0.753962 0.324508 0.417589
336 1 0.837889 0.249446 0.429344
316 1 0.00509203 0.245135 0.42399
334 1 0.923724 0.258611 0.345424
501 1 0.822398 0.338049 0.516384
339 1 0.0867057 0.327835 0.414797
363 1 0.0657197 0.499668 0.403495
343 1 0.255406 0.330854 0.420342
344 1 0.164907 0.389129 0.408693
348 1 0.327257 0.418901 0.426177
486 1 0.234886 0.412923 0.508242
349 1 0.489858 0.316449 0.331363
347 1 0.416244 0.333872 0.421388
346 1 0.397803 0.42718 0.338029
352 1 0.487588 0.412233 0.411649
373 1 0.502849 0.511354 0.343418
494 1 0.56394 0.405449 0.479137
356 1 0.666528 0.411221 0.414757
379 1 0.745143 0.493151 0.419792
360 1 0.833946 0.421882 0.423544
497 1 0.651275 0.328943 0.499821
337 1 0.00520974 0.35428 0.327628
359 1 0.921846 0.337593 0.410707
340 1 0.99812 0.415545 0.426729
358 1 0.922227 0.420022 0.328785
383 1 0.916867 0.508105 0.433814
385 1 0.981579 0.677318 0.340322
362 1 0.0779939 0.582627 0.326534
368 1 0.151038 0.571185 0.408961
364 1 0.989371 0.585832 0.419824
389 1 0.165486 0.665542 0.324305
366 1 0.247584 0.56854 0.326318
367 1 0.254777 0.49172 0.402306
369 1 0.343389 0.506159 0.319128
513 1 0.330258 0.502616 0.501616
510 1 0.235834 0.575051 0.488157
393 1 0.341426 0.644354 0.332994
371 1 0.418804 0.505328 0.418084
372 1 0.33161 0.578408 0.418355
514 1 0.431146 0.592997 0.503137
376 1 0.502819 0.582819 0.408551
517 1 0.517009 0.503071 0.496155
374 1 0.591572 0.580494 0.32675
375 1 0.589647 0.500406 0.411948
380 1 0.661311 0.574328 0.41036
399 1 0.598664 0.666655 0.421065
378 1 0.761554 0.567835 0.315713
522 1 0.777649 0.580711 0.507733
381 1 0.830511 0.489477 0.336163
384 1 0.822226 0.585301 0.411902
526 1 0.890044 0.582088 0.500816
525 1 0.823735 0.480073 0.520661
387 1 0.0908386 0.65611 0.41102
392 1 0.157625 0.744473 0.412351
388 1 0.00315219 0.752614 0.435077
557 1 0.164854 0.840637 0.501984
391 1 0.25452 0.65123 0.416934
415 1 0.261413 0.840374 0.419733
397 1 0.509356 0.661592 0.345688
396 1 0.322277 0.735567 0.414349
395 1 0.408044 0.676422 0.40859
421 1 0.510388 0.83236 0.333101
419 1 0.411336 0.813308 0.400669
398 1 0.584845 0.733443 0.319986
400 1 0.504782 0.751242 0.409021
423 1 0.593189 0.829564 0.405521
542 1 0.581713 0.756013 0.491102
405 1 0.811178 0.671296 0.344361
403 1 0.732602 0.664756 0.429858
549 1 0.830562 0.673652 0.500512
404 1 0.668916 0.756174 0.423198
408 1 0.817133 0.757661 0.415329
546 1 0.746705 0.752176 0.507738
406 1 0.900267 0.752513 0.347759
429 1 0.840098 0.835272 0.327241
407 1 0.894241 0.672248 0.415167
573 1 0.833547 0.82909 0.487613
411 1 0.0813627 0.830995 0.42952
412 1 1.01142 0.911363 0.419617
433 1 0.989652 1.02027 0.514482
554 1 0.089264 0.907298 0.499844
413 1 0.180518 0.843139 0.337237
416 1 0.168229 0.904663 0.421523
295 1 0.239292 -0.00320048 0.405178
420 1 0.346132 0.908859 0.407141
558 1 0.255308 0.91581 0.51148
418 1 0.427584 0.905414 0.331893
441 1 0.32444 1.00015 0.504724
424 1 0.499889 0.909666 0.415289
428 1 0.664463 0.91442 0.422222
569 1 0.65867 0.832186 0.49621
566 1 0.591894 0.917075 0.507097
425 1 0.658217 0.830749 0.317929
307 1 0.73607 -0.0118095 0.415141
427 1 0.748743 0.8409 0.404753
570 1 0.735528 0.927842 0.507084
430 1 0.923471 0.91163 0.325214
431 1 0.909324 0.846684 0.416258
432 1 0.830079 0.921482 0.420823
453 1 0.844876 0.0127558 0.499937
459 1 0.0846189 0.172979 0.590045
440 1 0.1568 0.0852497 0.575052
578 1 0.0764821 0.0790637 0.66792
436 1 1.00456 0.104208 0.591916
581 1 0.155596 0.00270727 0.652873
439 1 0.244671 0.0019296 0.586504
582 1 0.242533 0.0794582 0.674037
585 1 0.35058 0.976766 0.667248
463 1 0.238706 0.158271 0.594151
444 1 0.328375 0.083027 0.585438
448 1 0.502506 0.0915513 0.573452
586 1 0.422834 0.0757187 0.675584
590 1 0.560871 0.0848529 0.66134
452 1 0.660754 0.079036 0.588557
475 1 0.752131 0.161511 0.581379
451 1 0.751 0.00874248 0.572872
594 1 0.744098 0.0876693 0.674288
456 1 0.828082 0.0894091 0.580184
457 1 -0.00244295 0.170133 0.505048
455 1 0.913483 0.00274579 0.585106
598 1 0.915316 0.0798135 0.672465
621 1 0.824123 0.15913 0.669103
483 1 0.0693192 0.33136 0.600698
602 1 0.0851021 0.241825 0.672883
464 1 0.167034 0.252551 0.590937
460 1 0.992248 0.242454 0.584924
625 1 0.988288 0.332273 0.661232
485 1 0.144639 0.327816 0.516971
462 1 0.241323 0.251498 0.504777
468 1 0.32634 0.24504 0.573856
467 1 0.407144 0.158981 0.594348
466 1 0.411877 0.260465 0.495881
493 1 0.499592 0.322419 0.506029
633 1 0.338169 0.345201 0.649309
469 1 0.502477 0.167572 0.503025
471 1 0.578714 0.159515 0.5811
470 1 0.576683 0.255416 0.487276
472 1 0.477211 0.242651 0.580336
495 1 0.573994 0.327889 0.596021
474 1 0.746627 0.250543 0.493113
476 1 0.64881 0.24899 0.574537
480 1 0.822502 0.241395 0.587478
499 1 0.72948 0.33038 0.590113
478 1 0.911899 0.242158 0.509671
481 1 -0.0089505 0.334524 0.51056
479 1 0.907801 0.16863 0.600712
503 1 0.911492 0.344057 0.589655
622 1 0.908612 0.249668 0.679792
482 1 0.0825617 0.415144 0.49891
505 1 1.01093 0.504143 0.498927
626 1 0.0767039 0.41057 0.676608
507 1 0.0865069 0.511232 0.575771
509 1 0.16053 0.478515 0.475889
487 1 0.229032 0.334289 0.586209
488 1 0.166858 0.430796 0.59041
511 1 0.244725 0.506378 0.57562
489 1 0.326344 0.340852 0.510963
490 1 0.422035 0.416955 0.494405
492 1 0.324263 0.415497 0.569028
491 1 0.423102 0.351136 0.578724
515 1 0.430319 0.499588 0.570551
521 1 0.649749 0.497883 0.498539
496 1 0.508285 0.425179 0.594868
500 1 0.6607 0.416609 0.594384
519 1 0.594475 0.511437 0.589056
498 1 0.729891 0.411637 0.50574
642 1 0.742324 0.409912 0.667067
502 1 0.926154 0.414771 0.511934
504 1 0.825209 0.411008 0.588444
484 1 0.0048877 0.426678 0.58345
527 1 0.941561 0.523251 0.577992
646 1 0.928615 0.414104 0.679451
506 1 0.0778083 0.586692 0.499373
653 1 0.178813 0.509762 0.668423
512 1 0.172582 0.579073 0.579962
508 1 0.0219945 0.595817 0.592263
654 1 0.25046 0.596584 0.665349
516 1 0.321044 0.586386 0.578861
520 1 0.51126 0.59311 0.584138
518 1 0.593702 0.579752 0.495777
524 1 0.679257 0.566037 0.586135
662 1 0.587909 0.582076 0.667437
665 1 0.645243 0.50099 0.676988
523 1 0.748164 0.49251 0.598481
666 1 0.746031 0.586812 0.679195
689 1 0.659619 0.686423 0.668133
528 1 0.826377 0.577504 0.601839
670 1 0.931281 0.582904 0.66453
531 1 0.101195 0.666925 0.571816
530 1 0.0823284 0.746855 0.498223
532 1 0.999913 0.768194 0.588291
529 1 0.98485 0.654388 0.511039
535 1 0.243397 0.670223 0.579413
533 1 0.169767 0.674078 0.489389
536 1 0.161665 0.751329 0.568824
534 1 0.238198 0.761311 0.486388
678 1 0.258335 0.754932 0.653005
537 1 0.329476 0.651151 0.497727
540 1 0.330806 0.742035 0.566286
538 1 0.424318 0.752002 0.494385
539 1 0.429336 0.662319 0.574967
563 1 0.422364 0.848411 0.583975
682 1 0.404757 0.757919 0.654555
541 1 0.518131 0.660025 0.485113
544 1 0.502103 0.747967 0.583548
543 1 0.589997 0.676319 0.588011
545 1 0.664985 0.667333 0.517728
547 1 0.750033 0.661164 0.589101
548 1 0.675448 0.758452 0.58943
690 1 0.76571 0.759239 0.678864
551 1 0.914031 0.669525 0.599066
552 1 0.835527 0.754073 0.594969
550 1 0.927389 0.752843 0.506361
575 1 0.919238 0.844583 0.5756
717 1 0.840889 0.841107 0.687083
553 1 0.0014447 0.836322 0.507254
435 1 0.0734906 -0.00217794 0.570344
555 1 0.0864468 0.83095 0.580486
556 1 0.999257 0.918538 0.577293
437 1 0.178872 0.00220321 0.495406
560 1 0.171046 0.917707 0.580267
559 1 0.258123 0.829625 0.573689
702 1 0.248451 0.903692 0.66203
564 1 0.327782 0.910421 0.586054
561 1 0.339041 0.827623 0.501839
443 1 0.415054 0.999791 0.567866
562 1 0.42093 0.90767 0.488594
705 1 0.335166 0.84378 0.669108
447 1 0.577583 0.00726396 0.599331
565 1 0.509716 0.843451 0.50904
567 1 0.596504 0.829468 0.594848
568 1 0.513386 0.917936 0.603334
572 1 0.664981 0.917891 0.595959
571 1 0.75676 0.839592 0.585904
714 1 0.761511 0.915066 0.667309
574 1 0.918151 0.938876 0.490534
576 1 0.828489 0.924507 0.56445
718 1 0.924131 0.924648 0.669122
577 1 0.997717 0.00560869 0.656113
584 1 0.166416 0.0791548 0.74942
579 1 0.0853431 1.00268 0.743233
580 1 -0.00535931 0.0809594 0.751125
605 1 0.170769 0.166049 0.678857
607 1 0.256756 0.153918 0.750341
583 1 0.253525 0.986703 0.750918
588 1 0.336442 0.0656773 0.756548
729 1 0.345123 0.00500171 0.84242
749 1 0.169704 0.163161 0.816624
730 1 0.423776 0.0783382 0.849152
592 1 0.500586 0.0838998 0.760153
611 1 0.412919 0.173064 0.758699
757 1 0.499714 0.168023 0.831805
587 1 0.42705 0.00216092 0.758383
615 1 0.574811 0.156699 0.754332
596 1 0.667621 0.0869829 0.749618
734 1 0.585693 0.0792271 0.848663
761 1 0.671384 0.170114 0.845297
619 1 0.742198 0.148266 0.763261
595 1 0.744015 -0.00141304 0.74961
738 1 0.724951 0.0721957 0.843077
601 1 -0.00755105 0.171686 0.675863
600 1 0.828096 0.0722355 0.756033
623 1 0.91921 0.165744 0.7637
742 1 0.915856 0.070438 0.846227
629 1 0.173722 0.345861 0.669683
603 1 0.0793138 0.160019 0.758502
604 1 0.999952 0.245916 0.750256
627 1 0.0875632 0.331021 0.743789
773 1 0.181298 0.328492 0.819286
608 1 0.179017 0.259253 0.742941
606 1 0.249452 0.246158 0.658682
750 1 0.252803 0.239457 0.836706
609 1 0.335956 0.15894 0.667379
753 1 0.345856 0.163982 0.838828
613 1 0.492047 0.169761 0.67384
610 1 0.40125 0.249108 0.673087
612 1 0.326918 0.245479 0.751373
616 1 0.488192 0.252305 0.746223
635 1 0.413442 0.327931 0.744949
637 1 0.495188 0.326366 0.665771
614 1 0.579459 0.24718 0.671671
641 1 0.650714 0.315338 0.667884
617 1 0.660764 0.171968 0.654501
758 1 0.576592 0.239639 0.813485
618 1 0.754014 0.24729 0.682634
645 1 0.840507 0.33079 0.67284
620 1 0.656761 0.23412 0.743543
643 1 0.755482 0.331275 0.764901
789 1 0.837433 0.340926 0.841459
624 1 0.822726 0.23158 0.759557
647 1 0.914079 0.32858 0.751457
649 1 1.01603 0.503083 0.65434
632 1 0.176765 0.414236 0.752246
630 1 0.259121 0.425441 0.664062
631 1 0.262303 0.330793 0.730518
636 1 0.322018 0.41523 0.756812
777 1 0.328759 0.32765 0.821249
797 1 0.182573 0.492616 0.842609
661 1 0.506942 0.49945 0.66832
634 1 0.410945 0.42756 0.665126
778 1 0.415551 0.407644 0.83843
638 1 0.582328 0.40834 0.687924
639 1 0.585651 0.336855 0.76937
640 1 0.498736 0.415841 0.746053
644 1 0.671466 0.402038 0.754115
813 1 0.848532 0.50577 0.825429
669 1 0.845835 0.480348 0.666933
648 1 0.847925 0.420955 0.746204
628 1 0.00412103 0.425524 0.763488
650 1 0.106999 0.597807 0.662358
651 1 0.10988 0.512107 0.74535
677 1 0.170227 0.682308 0.663028
652 1 0.0179651 0.576837 0.722973
673 1 0.00822325 0.675163 0.655692
657 1 0.332343 0.502524 0.656793
655 1 0.255868 0.515036 0.747944
656 1 0.176096 0.59761 0.745087
679 1 0.267631 0.657534 0.755223
658 1 0.41591 0.571912 0.657202
659 1 0.415028 0.489315 0.769002
660 1 0.336782 0.578131 0.727631
664 1 0.489953 0.586116 0.751768
663 1 0.574587 0.509641 0.752959
687 1 0.584299 0.651931 0.744254
667 1 0.767162 0.507686 0.748225
668 1 0.667049 0.581219 0.755211
691 1 0.748381 0.67933 0.752901
810 1 0.751284 0.581743 0.822346
833 1 0.654746 0.650235 0.846488
672 1 0.835724 0.590627 0.739281
693 1 0.836847 0.678115 0.668065
671 1 0.924183 0.506082 0.748186
695 1 0.929135 0.661532 0.728611
814 1 0.91411 0.594214 0.827364
817 1 0.0108252 0.662199 0.831746
674 1 0.087585 0.752616 0.655961
697 1 0.0133937 0.841536 0.680322
675 1 0.0811618 0.670773 0.741908
699 1 0.0904825 0.798595 0.754804
680 1 0.18977 0.764745 0.737103
703 1 0.263786 0.84275 0.765805
681 1 0.337188 0.670869 0.651341
684 1 0.320143 0.738415 0.737665
683 1 0.411287 0.674359 0.738501
707 1 0.423652 0.823242 0.749364
685 1 0.503444 0.6636 0.670019
688 1 0.501877 0.747387 0.760656
686 1 0.582387 0.752883 0.67201
711 1 0.58341 0.825865 0.760172
713 1 0.672728 0.829393 0.671591
692 1 0.662881 0.74963 0.759768
715 1 0.747983 0.846727 0.753876
694 1 0.925752 0.763605 0.668894
676 1 1.00837 0.744431 0.739978
696 1 0.842982 0.761315 0.768332
719 1 0.925325 0.835449 0.746274
698 1 0.0843125 0.929338 0.661275
700 1 0.997905 0.932192 0.741405
701 1 0.174121 0.821888 0.659482
704 1 0.162437 0.900283 0.74316
846 1 0.261298 0.930741 0.849356
708 1 0.346912 0.933271 0.768486
725 1 0.171986 0.981121 0.826419
589 1 0.500029 -0.00989571 0.675317
706 1 0.429592 0.898471 0.686956
850 1 0.430379 0.920717 0.826428
712 1 0.509228 0.899848 0.7591
849 1 0.339446 0.834558 0.839967
709 1 0.494283 0.816311 0.666124
710 1 0.590318 0.919586 0.678978
591 1 0.58466 1.00381 0.752784
733 1 0.508149 1.00261 0.840272
853 1 0.503558 0.817462 0.84067
854 1 0.584271 0.91353 0.835519
593 1 0.664627 1.00767 0.666926
716 1 0.672207 0.920105 0.75145
858 1 0.746154 0.923503 0.836553
737 1 0.657985 0.991993 0.836937
599 1 0.904627 -0.00933911 0.74805
597 1 0.839866 1.0008 0.661464
720 1 0.821082 0.92007 0.75764
741 1 0.835954 -0.00223828 0.832663
862 1 0.928322 0.910184 0.830981
722 1 0.0987201 0.0666322 0.833282
745 1 1.00172 0.13631 0.858567
2 1 0.0715276 0.0720555 0.00631306
724 1 0.996274 0.0663142 0.928047
747 1 0.0835213 0.150393 0.923073
726 1 0.263848 0.070207 0.839401
728 1 0.171943 0.0955366 0.904348
751 1 0.255906 0.161211 0.911893
732 1 0.32522 0.0795132 0.928836
9 1 0.338842 0.995062 1.01141
33 1 0.335392 0.17398 1.00062
10 1 0.427089 0.0638714 1.00058
755 1 0.423015 0.165277 0.921299
731 1 0.418606 0.987349 0.922743
13 1 0.505023 0.979178 -0.00138451
17 1 0.66964 0.979715 0.00589247
736 1 0.503809 0.0692336 0.92676
14 1 0.568837 0.0781503 0.00685986
735 1 0.586344 0.996334 0.92958
759 1 0.581887 0.160679 0.92496
740 1 0.661279 0.0888951 0.925833
765 1 0.823092 0.147365 0.831584
763 1 0.745027 0.165778 0.928224
739 1 0.740125 -0.00393416 0.922695
22 1 0.901313 0.080448 0.990596
21 1 0.81651 1.00757 0.00332674
744 1 0.823277 0.0843214 0.920858
767 1 0.912738 0.163454 0.929669
746 1 0.085326 0.251264 0.826741
769 1 0.00845654 0.33381 0.82982
25 1 -0.0043292 0.170524 0.996945
771 1 0.0861989 0.339768 0.914846
752 1 0.170696 0.238801 0.909604
775 1 0.257722 0.308139 0.938577
754 1 0.411534 0.256391 0.825638
756 1 0.34384 0.242916 0.917278
34 1 0.428702 0.252982 1.00729
779 1 0.412923 0.332667 0.914523
760 1 0.492428 0.248558 0.913204
37 1 0.504821 0.16612 0.00662819
38 1 0.575676 0.254401 1.00296
61 1 0.495933 0.342806 1.00689
783 1 0.582354 0.341819 0.921665
42 1 0.748762 0.248262 -0.00208719
65 1 0.670263 0.340669 0.993066
41 1 0.660681 0.168685 0.00981671
764 1 0.654384 0.239905 0.913947
762 1 0.739664 0.250933 0.847469
787 1 0.748307 0.334285 0.912189
768 1 0.826961 0.252339 0.907229
766 1 0.91596 0.261231 0.856027
748 1 0.0150525 0.251802 0.912817
46 1 0.904565 0.252102 0.981823
791 1 0.944833 0.348824 0.920191
770 1 0.0862625 0.408873 0.825302
795 1 0.0874525 0.497019 0.905104
776 1 0.176529 0.404457 0.900638
772 1 0.00981968 0.42301 0.904808
793 1 0.011536 0.514059 0.816759
54 1 0.249953 0.412947 0.997433
774 1 0.254922 0.402296 0.835402
799 1 0.258886 0.493992 0.92635
780 1 0.34884 0.404635 0.918699
784 1 0.510218 0.411878 0.918191
781 1 0.505996 0.327876 0.833874
785 1 0.66719 0.331945 0.841276
62 1 0.590983 0.443024 -0.00203729
782 1 0.590536 0.427476 0.832003
788 1 0.671065 0.41897 0.921133
807 1 0.59298 0.5046 0.925596
66 1 0.753463 0.415267 0.995678
786 1 0.752706 0.430877 0.833689
792 1 0.850228 0.434688 0.918569
790 1 0.926813 0.424711 0.839558
815 1 0.927702 0.512123 0.906709
74 1 0.0997907 0.5771 0.998567
794 1 0.0900343 0.584467 0.825826
819 1 0.0987753 0.660191 0.902101
101 1 0.171423 0.675838 -0.00538726
821 1 0.165067 0.684595 0.811708
798 1 0.257491 0.577428 0.827202
801 1 0.330936 0.502229 0.840001
81 1 0.328893 0.501065 0.00739917
800 1 0.178265 0.593442 0.899037
78 1 0.24567 0.59867 0.0161431
804 1 0.310571 0.588093 0.923022
802 1 0.401541 0.585031 0.81267
803 1 0.413163 0.512551 0.917301
805 1 0.502941 0.490367 0.848284
808 1 0.502026 0.584929 0.917346
829 1 0.4866 0.650293 0.834156
827 1 0.408648 0.6593 0.925216
113 1 0.670965 0.667326 0.988184
806 1 0.588309 0.581686 0.828759
812 1 0.683497 0.585289 0.929783
809 1 0.667734 0.517284 0.839214
837 1 0.834251 0.658052 0.825705
811 1 0.756796 0.503662 0.913361
835 1 0.764234 0.667579 0.902321
94 1 0.922343 0.581481 1.00187
796 1 0.0133481 0.58715 0.899976
816 1 0.834438 0.581293 0.914899
839 1 0.924528 0.678892 0.908079
97 1 0.0163788 0.673228 0.988282
98 1 0.079111 0.77772 0.00764886
121 1 0.992251 0.840202 0.00594332
125 1 0.176017 0.827523 1.00067
818 1 0.0787558 0.742672 0.845671
824 1 0.161562 0.753314 0.923963
845 1 0.174315 0.827752 0.837077
823 1 0.250128 0.674416 0.917132
822 1 0.255293 0.752018 0.834092
102 1 0.258751 0.759404 0.0139531
847 1 0.257751 0.831958 0.920077
106 1 0.425974 0.735226 0.0162598
109 1 0.503902 0.66166 0.99362
825 1 0.33 0.672061 0.851566
826 1 0.418619 0.75435 0.832696
828 1 0.32639 0.746133 0.936705
830 1 0.582383 0.728859 0.837385
831 1 0.575803 0.652913 0.91731
832 1 0.50406 0.728138 0.908999
110 1 0.585427 0.750128 0.985421
855 1 0.594532 0.824796 0.905608
857 1 0.663498 0.831111 0.825464
836 1 0.689237 0.756071 0.907772
834 1 0.756079 0.766032 0.830217
840 1 0.83995 0.751307 0.906477
141 1 0.834039 0.831331 1.0042
838 1 0.930438 0.751013 0.824749
820 1 0.998325 0.763466 0.910955
841 1 1.0092 0.835577 0.829308
863 1 0.920066 0.842779 0.924142
861 1 0.847768 0.835797 0.837621
842 1 0.0709333 0.913231 0.820256
723 1 0.0924082 1.00976 0.914591
843 1 0.0980397 0.850558 0.911416
844 1 0.00316439 0.929766 0.914572
721 1 -0.00672264 1.00226 0.827309
5 1 0.171089 0.000380229 1.00103
727 1 0.24994 -0.0021825 0.931094
848 1 0.18266 0.9158 0.929497
852 1 0.339222 0.920762 0.909636
129 1 0.342578 0.826675 0.00800703
851 1 0.425894 0.819281 0.929644
130 1 0.418898 0.901771 0.00252783
856 1 0.509763 0.901194 0.929846
860 1 0.656609 0.912012 0.91895
859 1 0.755225 0.841924 0.914832
142 1 0.910654 0.926704 0.0100763
1 1 0.99807 1.00099 0.004151
743 1 0.915394 -0.00835331 0.928261
864 1 0.828778 0.911712 0.911121
