ITEM: TIMESTEP
1500
ITEM: NUMBER OF ATOMS
864
ITEM: BOX BOUNDS pp pp pp
0.0000000000000000e+00 3.1559999999999999e+01
0.0000000000000000e+00 3.1559999999999999e+01
0.0000000000000000e+00 3.1559999999999999e+01
ITEM: ATOMS id type xs ys zs
4 1 0.992938 0.069891 0.0699979
27 1 0.0776268 0.152181 0.0758134
146 1 0.096646 0.0827496 0.17035
5 1 0.180666 0.992744 0.991416
6 1 0.248606 0.0826008 0.987313
7 1 0.250477 0.00379209 0.0919001
8 1 0.155612 0.0840077 0.0722677
29 1 0.16168 0.155591 0.992351
9 1 0.318024 0.00497196 1.00715
11 1 0.408464 0.993375 0.0673387
12 1 0.336943 0.085011 0.0827541
16 1 0.500243 0.0948377 0.0821977
154 1 0.410081 0.0781036 0.154321
177 1 0.329531 0.158289 0.159612
15 1 0.566064 0.0116219 0.0768681
20 1 0.66718 0.0744762 0.0846084
158 1 0.580922 0.0915834 0.160444
185 1 0.661038 0.154936 0.1667
18 1 0.7383 0.0624486 0.00565205
19 1 0.750339 1.00294 0.0929368
43 1 0.749735 0.156813 0.0902523
161 1 0.655667 0.00897113 0.172628
24 1 0.82931 0.0837928 0.086569
165 1 0.82904 -0.00311602 0.168104
166 1 0.926895 0.0803618 0.152433
28 1 0.990456 0.243905 0.0839891
32 1 0.153647 0.251295 0.0789402
169 1 0.993258 0.166388 0.154188
170 1 0.0857836 0.240806 0.173289
30 1 0.242215 0.234564 0.0130817
31 1 0.24682 0.146678 0.0787318
174 1 0.248945 0.237718 0.157456
35 1 0.418523 0.170279 0.0779401
36 1 0.329744 0.251059 0.0832556
40 1 0.495294 0.252442 0.0871704
181 1 0.495823 0.173464 0.16936
38 1 0.591994 0.241521 1.00575
39 1 0.581432 0.163901 0.0800751
182 1 0.581582 0.252852 0.158197
205 1 0.49919 0.341242 0.170182
41 1 0.67465 0.155075 -0.0058619
42 1 0.7545 0.241281 0.988731
44 1 0.664602 0.23766 0.0761504
186 1 0.746212 0.250606 0.161737
45 1 0.823061 0.142182 0.985763
46 1 0.922928 0.239382 0.997043
47 1 0.907147 0.165112 0.0746959
48 1 0.82037 0.228765 0.0763251
213 1 0.813829 0.332934 0.17043
51 1 0.0696765 0.321179 0.0841798
52 1 0.991652 0.417479 0.0864517
53 1 0.162607 0.335624 0.000648567
56 1 0.162506 0.404434 0.0875268
54 1 0.240102 0.422896 0.00621591
55 1 0.246956 0.326645 0.0767507
57 1 0.337776 0.329951 0.0145543
197 1 0.15563 0.324248 0.166373
198 1 0.249891 0.405945 0.161178
201 1 0.333037 0.329437 0.16313
59 1 0.412971 0.336408 0.0873018
60 1 0.348537 0.425278 0.0864066
64 1 0.516528 0.412307 0.0857089
202 1 0.438466 0.426415 0.158315
61 1 0.491191 0.337566 1.00332
62 1 0.576427 0.429906 -0.011759
63 1 0.590262 0.324463 0.0816827
206 1 0.578309 0.409976 0.166867
233 1 0.675952 0.521268 0.165812
65 1 0.661306 0.339813 1.00535
67 1 0.742278 0.33844 0.0849736
68 1 0.662771 0.422113 0.0836784
72 1 0.825846 0.423221 0.0918238
91 1 0.753827 0.503129 0.0895211
209 1 0.671424 0.329825 0.162159
210 1 0.74129 0.423147 0.15729
49 1 0.999382 0.326462 1.00312
71 1 0.916817 0.327529 0.0904318
193 1 -0.000854495 0.339709 0.169958
74 1 0.0908639 0.587155 0.996054
75 1 0.0698282 0.495513 0.0853764
80 1 0.168638 0.571379 0.0950789
221 1 0.166786 0.492208 0.170888
77 1 0.161396 0.496077 0.0126273
79 1 0.252831 0.493039 0.0890274
84 1 0.337644 0.586496 0.0847123
222 1 0.259332 0.568734 0.161677
81 1 0.334633 0.504124 1.00909
83 1 0.42724 0.510129 0.0821356
85 1 0.508888 0.507928 0.999693
107 1 0.415273 0.668908 0.0800596
87 1 0.592089 0.508753 0.0780189
88 1 0.507422 0.593597 0.0753198
92 1 0.675036 0.59001 0.0774999
111 1 0.582103 0.673482 0.0847299
230 1 0.58913 0.592654 0.170339
253 1 0.503549 0.668065 0.165194
257 1 0.675943 0.668741 0.153762
90 1 0.756876 0.590899 0.00510777
96 1 0.855432 0.579274 0.0836988
234 1 0.763382 0.588111 0.170761
261 1 0.834152 0.681348 0.169247
73 1 0.992579 0.505797 0.00473832
76 1 1.00163 0.585193 0.0770086
94 1 0.92272 0.584006 1.00386
95 1 0.917101 0.492931 0.0906318
237 1 0.827521 0.499806 0.171788
238 1 0.914585 0.590924 0.17309
97 1 0.00948003 0.673084 -0.000921848
99 1 0.0886092 0.668453 0.0889361
104 1 0.164194 0.745978 0.0860463
242 1 0.0782949 0.754802 0.171606
101 1 0.16005 0.676032 -0.0113132
102 1 0.251593 0.749646 0.00729074
103 1 0.243088 0.659634 0.0878883
127 1 0.251809 0.81959 0.0845546
249 1 0.343204 0.671109 0.166644
106 1 0.411181 0.744225 0.991594
108 1 0.343405 0.741609 0.0857333
112 1 0.500335 0.747036 0.0726155
250 1 0.426829 0.753838 0.16859
110 1 0.582516 0.753938 1.00125
116 1 0.675743 0.760359 0.0819901
135 1 0.573823 0.825827 0.0796091
254 1 0.584796 0.742407 0.166613
281 1 0.660981 0.840173 0.169199
115 1 0.763519 0.667821 0.0825426
117 1 0.844041 0.671452 0.00101845
120 1 0.834616 0.749211 0.0754823
137 1 0.672861 0.840397 0.00580757
141 1 0.836628 0.830344 0.995134
100 1 0.0114268 0.757393 0.0830693
118 1 0.925262 0.747147 0.00336838
119 1 0.922608 0.658742 0.0843865
1 1 0.00233848 0.983222 0.99576
3 1 0.0971089 1.00032 0.0721955
121 1 0.000583852 0.833417 1.00469
123 1 0.0954796 0.826439 0.0834008
125 1 0.172754 0.82997 0.00179219
145 1 0.0210021 0.000596753 0.172388
266 1 0.0869795 0.913888 0.167919
128 1 0.167098 0.916821 0.0806229
269 1 0.169724 0.816924 0.161591
270 1 0.258262 0.909006 0.165848
273 1 0.337094 0.823551 0.16596
131 1 0.417482 0.825669 0.0767615
132 1 0.334658 0.900566 0.08816
157 1 0.488303 1.00887 0.162447
134 1 0.573831 0.919528 0.0027576
136 1 0.48952 0.916876 0.0851794
140 1 0.643351 0.92161 0.0837473
277 1 0.52483 0.838516 0.176873
17 1 0.665072 0.997097 0.00478524
138 1 0.754259 0.920549 0.00572642
139 1 0.747778 0.844616 0.0778081
144 1 0.832658 0.90622 0.083135
23 1 0.905053 1.003 0.0852106
124 1 0.0107504 0.91859 0.0807745
143 1 0.928079 0.843804 0.080335
147 1 0.0996321 0.989907 0.251973
148 1 0.00752176 0.0926568 0.2489
152 1 0.175051 0.0836908 0.258558
171 1 0.0881143 0.16154 0.249597
173 1 0.165333 0.17057 0.156777
150 1 0.239793 0.076606 0.173201
151 1 0.260866 0.985396 0.250036
293 1 0.171377 0.0051149 0.337682
153 1 0.332947 0.999275 0.169209
156 1 0.309656 0.0951987 0.245565
160 1 0.505179 0.087161 0.239979
179 1 0.408521 0.173672 0.239507
298 1 0.41316 0.100459 0.342354
159 1 0.578606 0.00143664 0.257617
164 1 0.668349 0.0688873 0.257023
183 1 0.58008 0.169728 0.243848
302 1 0.577624 0.0897732 0.321011
162 1 0.74606 0.085958 0.181536
168 1 0.844547 0.0844235 0.249089
306 1 0.752169 0.0846983 0.32649
309 1 0.838325 0.00901802 0.334536
333 1 0.826897 0.16678 0.340899
167 1 0.919035 0.00166798 0.233936
191 1 0.920017 0.161323 0.250809
172 1 0.998759 0.242999 0.248165
195 1 0.0867133 0.329522 0.251518
314 1 0.0664799 0.248281 0.328552
175 1 0.232733 0.171566 0.242967
176 1 0.163194 0.251222 0.245141
318 1 0.253011 0.247183 0.328263
178 1 0.428034 0.255558 0.168318
180 1 0.335859 0.249724 0.236232
184 1 0.494288 0.257971 0.253412
322 1 0.412181 0.236101 0.322782
326 1 0.575659 0.25484 0.329806
329 1 0.672366 0.161799 0.322962
353 1 0.670664 0.330265 0.343097
187 1 0.753504 0.173731 0.247056
188 1 0.673593 0.245228 0.248069
330 1 0.752907 0.248436 0.336664
189 1 0.832675 0.170016 0.176089
190 1 0.914888 0.257832 0.174321
192 1 0.83824 0.239304 0.248606
313 1 -0.00798203 0.159937 0.339175
337 1 1.00383 0.331152 0.32905
194 1 0.0803101 0.418759 0.161299
196 1 0.995931 0.415286 0.250969
200 1 0.165382 0.413165 0.247342
199 1 0.247899 0.325965 0.243776
341 1 0.176005 0.333252 0.333466
342 1 0.244788 0.415252 0.333324
345 1 0.321834 0.329917 0.319564
203 1 0.420986 0.337361 0.239916
204 1 0.340134 0.410648 0.231977
225 1 0.347719 0.500373 0.164627
227 1 0.413513 0.511438 0.251116
207 1 0.597866 0.334969 0.24997
208 1 0.504867 0.421512 0.250649
350 1 0.58844 0.416595 0.331585
211 1 0.741962 0.330162 0.255922
212 1 0.67208 0.420193 0.241156
377 1 0.670509 0.498605 0.322192
214 1 0.90122 0.418556 0.164368
215 1 0.909004 0.33182 0.248503
216 1 0.813529 0.4224 0.239318
239 1 0.915755 0.501168 0.261055
381 1 0.835299 0.494562 0.326677
218 1 0.0891369 0.575196 0.166311
219 1 0.0749807 0.491139 0.243211
361 1 0.00726858 0.496114 0.328661
365 1 0.176085 0.506132 0.341181
223 1 0.248721 0.493937 0.245845
224 1 0.174709 0.574404 0.237751
247 1 0.253441 0.672205 0.245121
366 1 0.254941 0.571454 0.325178
369 1 0.333717 0.494673 0.335134
226 1 0.428844 0.59455 0.163629
228 1 0.345034 0.592365 0.233896
370 1 0.396641 0.578198 0.333817
393 1 0.316156 0.662593 0.344229
229 1 0.511397 0.508193 0.155537
231 1 0.589761 0.501415 0.234027
232 1 0.502381 0.575866 0.254334
236 1 0.666339 0.580348 0.259557
255 1 0.584268 0.670646 0.256085
235 1 0.749463 0.504588 0.256571
240 1 0.841787 0.572905 0.257298
259 1 0.75591 0.66514 0.260253
378 1 0.766342 0.581843 0.326528
217 1 1.00144 0.506436 0.173257
220 1 0.99698 0.579264 0.252105
263 1 0.911937 0.66418 0.247804
241 1 0.00452574 0.660348 0.165663
243 1 0.0884392 0.659629 0.257269
248 1 0.175012 0.758758 0.247702
386 1 0.082632 0.764383 0.325193
245 1 0.165363 0.66763 0.179364
246 1 0.255479 0.740455 0.155696
252 1 0.338896 0.737842 0.248608
271 1 0.260143 0.819476 0.246115
390 1 0.257053 0.754108 0.343902
417 1 0.346968 0.820017 0.328
251 1 0.421825 0.665421 0.254789
275 1 0.432639 0.830218 0.254593
256 1 0.511417 0.758616 0.252846
260 1 0.660451 0.744161 0.245271
425 1 0.655244 0.83657 0.339843
258 1 0.749137 0.741126 0.165829
402 1 0.73507 0.752081 0.335992
244 1 0.000265361 0.752661 0.25175
262 1 0.937366 0.753129 0.157578
264 1 0.822292 0.759042 0.261028
385 1 -0.0100159 0.661078 0.315994
267 1 0.0807293 0.841079 0.255597
272 1 0.165656 0.901047 0.248022
149 1 0.168037 0.997338 0.168995
297 1 0.33756 0.0144173 0.346954
155 1 0.398291 0.0199956 0.258635
274 1 0.428683 0.911545 0.174946
276 1 0.337505 0.91831 0.249784
278 1 0.568856 0.939964 0.17488
279 1 0.592299 0.839724 0.256258
280 1 0.49471 0.934786 0.263572
163 1 0.752326 -0.000185607 0.242426
282 1 0.752363 0.913542 0.163765
283 1 0.746745 0.826554 0.239102
284 1 0.676072 0.91073 0.246207
285 1 0.851382 0.80996 0.172859
288 1 0.83757 0.926503 0.262064
429 1 0.824725 0.842578 0.330305
265 1 1.00493 0.841669 0.179467
268 1 0.00463374 0.918555 0.246573
286 1 0.931262 0.927273 0.16385
287 1 0.918434 0.853642 0.251524
430 1 0.931097 0.922057 0.339761
289 1 0.00714448 1.00368 0.335706
290 1 0.0841347 0.0781322 0.329462
292 1 -0.00108105 0.0992997 0.427371
296 1 0.156245 0.0925133 0.420724
315 1 0.0846231 0.169605 0.402365
434 1 0.0840545 0.0857711 0.507961
294 1 0.242647 0.0920018 0.34291
317 1 0.16557 0.177008 0.330725
319 1 0.257703 0.177994 0.412241
437 1 0.172284 0.0080845 0.500908
441 1 0.323008 0.0223716 0.493901
300 1 0.337482 0.106721 0.416803
304 1 0.498433 0.0861828 0.416443
445 1 0.487657 0.0134875 0.498861
469 1 0.506358 0.181654 0.500098
303 1 0.573726 0.00708576 0.417562
305 1 0.663732 -0.00879994 0.332276
308 1 0.657462 0.0802238 0.395509
327 1 0.570263 0.163625 0.408353
446 1 0.589874 0.089412 0.492335
312 1 0.843735 0.0844199 0.422995
477 1 0.826583 0.16664 0.496701
310 1 0.922494 0.075877 0.320516
311 1 0.933252 0.0146704 0.40932
457 1 -0.0068781 0.171023 0.512079
339 1 0.0929759 0.340375 0.416656
458 1 0.0880818 0.260388 0.488979
481 1 0.014531 0.342508 0.497169
320 1 0.167311 0.254335 0.405458
324 1 0.348106 0.255805 0.418677
461 1 0.161173 0.171429 0.490797
462 1 0.238136 0.252854 0.489443
489 1 0.335676 0.332698 0.497776
321 1 0.322542 0.166126 0.318337
323 1 0.423946 0.179055 0.419851
325 1 0.498339 0.168335 0.318836
328 1 0.502707 0.257965 0.411106
470 1 0.599703 0.254684 0.490999
331 1 0.740888 0.173764 0.415953
332 1 0.650697 0.236423 0.39835
336 1 0.839506 0.249578 0.414585
474 1 0.732435 0.260901 0.486278
316 1 -0.000495174 0.248322 0.417726
334 1 0.918576 0.252473 0.333527
335 1 0.913679 0.172031 0.426313
357 1 0.828513 0.332051 0.313095
359 1 0.917254 0.322989 0.421819
478 1 0.912393 0.242362 0.514218
338 1 0.0914061 0.422125 0.324493
482 1 0.0854648 0.425381 0.498215
505 1 1.00012 0.502204 0.504363
343 1 0.249774 0.331838 0.41413
344 1 0.179758 0.414643 0.419923
348 1 0.330888 0.404603 0.410314
485 1 0.162567 0.336418 0.495583
346 1 0.419583 0.415804 0.328716
347 1 0.414527 0.340226 0.414769
352 1 0.496264 0.417819 0.414606
371 1 0.42355 0.504275 0.423216
349 1 0.505354 0.336067 0.32299
351 1 0.590291 0.341842 0.416771
356 1 0.668428 0.416329 0.415532
375 1 0.598519 0.498121 0.4161
493 1 0.496113 0.33582 0.496924
354 1 0.747619 0.40609 0.334149
355 1 0.750899 0.334777 0.415292
379 1 0.74909 0.50216 0.415291
340 1 0.00968443 0.41628 0.414235
358 1 0.918835 0.414582 0.347001
360 1 0.841987 0.410361 0.429195
525 1 0.827403 0.491379 0.489702
362 1 0.0899269 0.582912 0.335039
363 1 0.103742 0.501448 0.413274
368 1 0.169257 0.585318 0.41761
506 1 0.0893062 0.576023 0.492788
367 1 0.251746 0.496452 0.422617
510 1 0.247854 0.579315 0.509945
372 1 0.323474 0.575063 0.411419
373 1 0.486764 0.499884 0.337919
395 1 0.415313 0.670896 0.424711
514 1 0.418427 0.577477 0.501061
374 1 0.58276 0.580094 0.334392
376 1 0.499258 0.581562 0.418748
399 1 0.594571 0.664476 0.420182
401 1 0.661551 0.666981 0.337375
380 1 0.677855 0.582192 0.42166
384 1 0.838071 0.571565 0.41839
403 1 0.75334 0.66233 0.410142
522 1 0.764287 0.586035 0.493153
364 1 -0.00065763 0.588109 0.413544
382 1 0.921087 0.587746 0.337075
383 1 0.920003 0.506387 0.419679
407 1 0.897019 0.665425 0.427413
387 1 0.096598 0.664712 0.428234
389 1 0.181271 0.660279 0.335073
392 1 0.165557 0.743564 0.402838
411 1 0.0930015 0.82937 0.418051
530 1 0.0943993 0.74486 0.503525
391 1 0.252154 0.66034 0.434414
534 1 0.253218 0.741251 0.505902
394 1 0.429108 0.753108 0.337163
396 1 0.329123 0.737694 0.428654
397 1 0.489259 0.642483 0.334159
400 1 0.516279 0.740466 0.404811
419 1 0.424464 0.842692 0.41585
537 1 0.344573 0.656254 0.514265
538 1 0.42538 0.761647 0.482594
398 1 0.588969 0.756342 0.325397
404 1 0.669714 0.743385 0.427115
423 1 0.586599 0.818266 0.42121
408 1 0.823562 0.754859 0.415042
427 1 0.741623 0.83126 0.42114
546 1 0.749044 0.743461 0.49934
388 1 0.00952178 0.744808 0.406307
405 1 0.835538 0.669936 0.328954
406 1 0.913239 0.75509 0.338232
431 1 0.911671 0.836199 0.416904
550 1 0.917033 0.748208 0.491963
291 1 0.0873083 0.00137313 0.423697
410 1 0.0981332 0.925046 0.342769
413 1 0.173089 0.835197 0.338993
433 1 0.0047945 1.00191 0.507071
557 1 0.181251 0.822675 0.490794
295 1 0.241584 0.0106556 0.414888
414 1 0.255833 0.904693 0.326699
415 1 0.269313 0.83323 0.416722
416 1 0.186035 0.927876 0.42033
420 1 0.335044 0.921484 0.414323
558 1 0.254034 0.911011 0.496975
299 1 0.404996 0.0233066 0.42464
418 1 0.405292 0.923702 0.331311
424 1 0.495968 0.933112 0.414492
561 1 0.350779 0.8447 0.494097
562 1 0.410355 0.936029 0.502207
301 1 0.485473 0.0304511 0.322503
421 1 0.505232 0.850061 0.330778
422 1 0.579857 0.931486 0.340634
428 1 0.658256 0.916202 0.415027
449 1 0.666746 0.00569377 0.508471
307 1 0.749123 0.0106928 0.419352
426 1 0.747035 0.927653 0.344952
432 1 0.832776 0.928275 0.407542
573 1 0.823899 0.82741 0.500682
409 1 -0.00189254 0.836679 0.341616
412 1 0.0182004 0.92605 0.426375
574 1 0.925443 0.927099 0.482677
435 1 0.0973176 -0.00409508 0.579995
436 1 0.991838 0.0908958 0.588975
459 1 0.0861639 0.182002 0.575843
577 1 0.00696798 -0.0020887 0.665623
438 1 0.245686 0.100601 0.47662
440 1 0.182832 0.102602 0.568747
463 1 0.254875 0.186663 0.580849
582 1 0.249796 0.0954393 0.669646
605 1 0.172828 0.17409 0.671668
442 1 0.423486 0.10115 0.508298
444 1 0.327947 0.108754 0.591032
448 1 0.490883 0.101052 0.596992
465 1 0.338335 0.179894 0.507909
589 1 0.489543 0.000210731 0.662801
447 1 0.573389 0.0152314 0.587358
452 1 0.672145 0.0924619 0.592788
471 1 0.587806 0.167254 0.565588
590 1 0.585261 0.0847392 0.659423
593 1 0.670939 0.004323 0.656268
450 1 0.750634 0.0811539 0.505857
473 1 0.6661 0.164368 0.495002
475 1 0.756393 0.167875 0.591289
454 1 0.907032 0.0839503 0.508391
455 1 0.921825 0.996146 0.590118
456 1 0.824057 0.0797819 0.581999
479 1 0.912426 0.168027 0.593296
460 1 0.00138337 0.252984 0.583458
483 1 0.08386 0.332681 0.58246
464 1 0.157921 0.263991 0.587154
468 1 0.332407 0.266372 0.587192
487 1 0.253383 0.339539 0.585961
629 1 0.152166 0.326761 0.678581
466 1 0.413254 0.256084 0.509602
467 1 0.413781 0.180369 0.589632
491 1 0.412688 0.351326 0.573807
472 1 0.49623 0.249437 0.584402
641 1 0.677109 0.334406 0.673089
476 1 0.677045 0.250005 0.582222
480 1 0.82769 0.246051 0.594874
499 1 0.752144 0.325731 0.589314
618 1 0.748024 0.253433 0.676996
621 1 0.833154 0.16736 0.675975
503 1 0.923069 0.332098 0.563373
622 1 0.906704 0.247611 0.666826
625 1 0.995991 0.338578 0.681555
484 1 1.00856 0.412872 0.575909
488 1 0.160719 0.415746 0.598643
626 1 0.0768025 0.413647 0.679644
486 1 0.249797 0.403839 0.506034
509 1 0.174128 0.497687 0.504342
513 1 0.326839 0.493529 0.500876
630 1 0.241563 0.422102 0.682664
490 1 0.425855 0.428078 0.500594
492 1 0.325134 0.421822 0.580693
515 1 0.419503 0.48829 0.589076
517 1 0.513726 0.505919 0.495034
661 1 0.490748 0.47556 0.676714
494 1 0.581429 0.418732 0.504272
495 1 0.571733 0.319605 0.570813
496 1 0.503547 0.402432 0.58953
497 1 0.669788 0.338619 0.504967
500 1 0.675599 0.41805 0.590031
519 1 0.593679 0.495335 0.590548
498 1 0.753198 0.421861 0.510405
504 1 0.830897 0.404879 0.578352
642 1 0.756175 0.412917 0.665491
501 1 0.819951 0.324889 0.499489
502 1 0.926822 0.418107 0.49495
527 1 0.917524 0.496305 0.578285
507 1 0.0848991 0.498658 0.587724
508 1 1.00314 0.580746 0.5815
533 1 0.170822 0.665143 0.507157
650 1 0.0788745 0.577528 0.665341
653 1 0.160203 0.500748 0.672659
511 1 0.232196 0.49261 0.597932
512 1 0.158696 0.59111 0.587893
516 1 0.327322 0.564057 0.589284
654 1 0.248777 0.58201 0.665652
520 1 0.49673 0.568904 0.585278
541 1 0.495955 0.661487 0.503499
657 1 0.319042 0.497059 0.672832
658 1 0.429258 0.57159 0.666764
518 1 0.583616 0.585201 0.484772
524 1 0.668445 0.584734 0.584704
545 1 0.655174 0.65894 0.510265
662 1 0.584917 0.574836 0.675675
521 1 0.676103 0.493293 0.508024
523 1 0.745685 0.503109 0.599366
547 1 0.742538 0.664202 0.58018
549 1 0.837362 0.681199 0.505215
526 1 0.905575 0.57838 0.513243
528 1 0.829516 0.573963 0.589707
529 1 1.00478 0.67352 0.493868
551 1 0.915587 0.663964 0.593715
673 1 1.00099 0.660277 0.665272
531 1 0.0799588 0.665151 0.572678
536 1 0.177244 0.75201 0.580574
555 1 0.10452 0.848455 0.585922
674 1 0.093821 0.743076 0.655544
677 1 0.173335 0.659234 0.667757
535 1 0.249384 0.661309 0.580689
540 1 0.353194 0.735671 0.577373
559 1 0.260753 0.828839 0.584718
539 1 0.431323 0.653789 0.591905
544 1 0.49711 0.752442 0.573794
563 1 0.423685 0.83708 0.592639
565 1 0.480958 0.844959 0.504003
681 1 0.338611 0.648651 0.667919
685 1 0.503036 0.651855 0.670886
709 1 0.506201 0.829119 0.655766
542 1 0.585282 0.741143 0.502274
543 1 0.57386 0.655064 0.586951
569 1 0.661474 0.837348 0.513836
548 1 0.665716 0.752831 0.591077
552 1 0.823483 0.75536 0.584869
571 1 0.747666 0.843113 0.586235
690 1 0.75281 0.759806 0.679349
532 1 0.996757 0.737283 0.589039
553 1 0.013197 0.833714 0.502807
697 1 0.00399782 0.815197 0.666202
554 1 0.110775 0.91349 0.498375
556 1 0.0227708 0.917125 0.590958
698 1 0.0956573 0.92687 0.671539
701 1 0.177701 0.832443 0.665173
439 1 0.257192 0.00317898 0.589548
560 1 0.188792 0.920141 0.578925
564 1 0.334945 0.91837 0.575198
705 1 0.350449 0.840005 0.664845
443 1 0.420757 0.0207423 0.578322
568 1 0.493341 0.922832 0.581441
706 1 0.422298 0.913124 0.668545
566 1 0.581092 0.915245 0.496416
567 1 0.576468 0.837037 0.573296
572 1 0.661013 0.914671 0.578297
451 1 0.751987 0.998983 0.583347
453 1 0.839073 0.99891 0.507791
570 1 0.739854 0.920193 0.499937
576 1 0.830503 0.914463 0.576453
575 1 0.91686 0.836528 0.577124
718 1 0.913376 0.922345 0.662227
578 1 0.0973623 0.0834787 0.646632
584 1 0.172657 0.0820953 0.738056
601 1 0.996111 0.161182 0.667262
603 1 0.079048 0.150503 0.751263
583 1 0.247416 -0.00134017 0.751129
607 1 0.250022 0.173896 0.760054
609 1 0.3189 0.187435 0.661991
726 1 0.239233 0.0909417 0.823389
585 1 0.339227 -0.00211021 0.676565
586 1 0.414123 0.0947741 0.671951
587 1 0.423984 0.0027228 0.756524
588 1 0.323837 0.0925077 0.746889
730 1 0.412673 0.0891504 0.830378
591 1 0.57488 -0.00397666 0.741349
592 1 0.499425 0.0904011 0.752859
615 1 0.580776 0.172349 0.747058
594 1 0.752239 0.0957491 0.671228
596 1 0.654767 0.0861898 0.735969
617 1 0.666777 0.175186 0.661374
619 1 0.741273 0.149601 0.766022
580 1 0.98929 0.076444 0.74502
598 1 0.915538 0.0880107 0.66571
599 1 0.921487 1.00202 0.743788
600 1 0.828745 0.0825834 0.754985
623 1 0.911993 0.170885 0.741484
602 1 0.079842 0.243755 0.667182
604 1 -0.00831232 0.249077 0.739567
769 1 1.00704 0.331643 0.836394
606 1 0.24125 0.264639 0.668206
608 1 0.16379 0.252953 0.755075
612 1 0.327528 0.256627 0.751696
631 1 0.238435 0.339081 0.768808
753 1 0.337992 0.166134 0.829877
610 1 0.398399 0.28262 0.663221
611 1 0.412349 0.165627 0.750059
613 1 0.510861 0.181617 0.66494
616 1 0.491558 0.250908 0.745605
781 1 0.495863 0.328712 0.842556
614 1 0.59824 0.260109 0.668782
620 1 0.662946 0.242164 0.758443
637 1 0.495763 0.328295 0.671543
639 1 0.577263 0.32009 0.771371
758 1 0.590773 0.246113 0.852978
624 1 0.822926 0.250443 0.749962
643 1 0.743736 0.330215 0.759756
645 1 0.835363 0.331064 0.665715
647 1 0.912783 0.336613 0.747086
789 1 0.82455 0.327665 0.831082
627 1 0.078667 0.326175 0.749486
628 1 0.991067 0.425991 0.761417
651 1 0.0885075 0.499629 0.761321
632 1 0.165056 0.419738 0.748076
633 1 0.315294 0.355678 0.688115
773 1 0.151315 0.333007 0.839866
774 1 0.25143 0.421405 0.848967
634 1 0.411533 0.411632 0.67376
635 1 0.414288 0.336055 0.758673
636 1 0.333873 0.416391 0.767792
640 1 0.497594 0.408802 0.757204
659 1 0.404509 0.489726 0.748672
778 1 0.410621 0.418404 0.842449
805 1 0.502705 0.495476 0.837405
638 1 0.579586 0.405866 0.669373
644 1 0.67336 0.411133 0.761472
665 1 0.668764 0.488195 0.670371
667 1 0.762394 0.490499 0.754585
646 1 0.915315 0.411314 0.664478
648 1 0.82208 0.407532 0.749766
669 1 0.834893 0.489704 0.662837
671 1 0.910941 0.496662 0.75366
790 1 0.903888 0.415615 0.828648
649 1 0.00378533 0.489135 0.662584
656 1 0.178137 0.590749 0.737756
675 1 0.0911131 0.664316 0.729456
794 1 0.102149 0.590086 0.822297
655 1 0.24844 0.494088 0.763122
660 1 0.322707 0.580752 0.745743
679 1 0.252977 0.671067 0.743055
798 1 0.249972 0.581357 0.831087
664 1 0.489845 0.577365 0.757045
683 1 0.418431 0.671746 0.748703
663 1 0.583892 0.494884 0.755513
687 1 0.580191 0.655229 0.757049
689 1 0.665667 0.664042 0.661019
666 1 0.753664 0.599864 0.669704
668 1 0.676205 0.575 0.75507
691 1 0.760021 0.650744 0.763321
809 1 0.670875 0.501992 0.828047
810 1 0.753542 0.581274 0.846649
833 1 0.666714 0.664036 0.837342
652 1 0.995502 0.563488 0.756261
670 1 0.913297 0.5758 0.665107
672 1 0.841151 0.576825 0.759016
693 1 0.840578 0.664832 0.666061
793 1 -0.00181299 0.505081 0.843128
813 1 0.843144 0.512295 0.841778
676 1 1.00342 0.735837 0.741359
699 1 0.0872135 0.841746 0.742176
821 1 0.160775 0.675902 0.822982
841 1 1.00769 0.833254 0.819336
678 1 0.261217 0.749879 0.670332
680 1 0.167591 0.746228 0.735434
684 1 0.344705 0.758877 0.739074
703 1 0.254455 0.842593 0.754049
822 1 0.251176 0.75193 0.819969
845 1 0.174165 0.828132 0.825339
682 1 0.417878 0.744841 0.663364
688 1 0.509907 0.749938 0.750116
826 1 0.417681 0.755973 0.821741
686 1 0.574291 0.733144 0.661109
713 1 0.655438 0.819742 0.665811
830 1 0.579511 0.758443 0.830151
692 1 0.663565 0.733767 0.745847
696 1 0.825584 0.754322 0.764456
694 1 0.914944 0.748751 0.663354
695 1 0.901923 0.656297 0.743563
817 1 0.0135496 0.646692 0.830095
838 1 0.917414 0.757125 0.82135
579 1 0.0771325 0.00525252 0.746223
842 1 0.0796374 0.915735 0.820548
581 1 0.171437 0.00336939 0.665842
702 1 0.255702 0.919367 0.655688
704 1 0.171694 0.92405 0.750295
708 1 0.341428 0.909413 0.748484
725 1 0.166482 0.00198364 0.834859
707 1 0.434667 0.832887 0.742658
712 1 0.512907 0.917156 0.752443
733 1 0.507962 0.999609 0.842152
710 1 0.589003 0.93638 0.658247
711 1 0.589258 0.832603 0.751527
716 1 0.657293 0.90955 0.742838
595 1 0.730091 0.995328 0.751203
597 1 0.83085 1.00028 0.681793
714 1 0.743992 0.915635 0.663571
715 1 0.745157 0.841669 0.743959
717 1 0.840121 0.831721 0.665613
858 1 0.750197 0.917106 0.827252
700 1 -0.00608324 0.915909 0.734559
719 1 0.916224 0.835257 0.749675
720 1 0.832167 0.899797 0.747627
2 1 0.085778 0.0681587 0.987955
722 1 0.0749631 0.0774311 0.84141
723 1 0.0762656 -0.0156157 0.909733
724 1 0.996431 0.067228 0.921538
745 1 -0.026769 0.168414 0.822613
747 1 0.0772234 0.160565 0.912457
728 1 0.166739 0.0912975 0.918797
10 1 0.419656 0.0929151 -0.00515827
732 1 0.334345 0.0822628 0.909558
736 1 0.492121 0.0847035 0.915592
14 1 0.58635 0.0866613 -0.00299559
37 1 0.505028 0.167171 -0.00515788
734 1 0.590043 0.0696118 0.816825
757 1 0.509054 0.168657 0.839217
21 1 0.82586 0.000211712 0.0112992
738 1 0.742578 0.0703266 0.832378
740 1 0.660373 0.0736694 0.920295
765 1 0.82591 0.15369 0.824501
22 1 0.901437 0.0820938 0.997744
25 1 0.997826 0.163043 0.990616
741 1 0.828867 0.99275 0.827217
742 1 0.917062 0.0753903 0.833124
744 1 0.829276 0.0570392 0.911937
767 1 0.905874 0.165717 0.904865
26 1 0.0765632 0.24502 1.00026
746 1 0.0666915 0.242198 0.834646
748 1 0.999668 0.243187 0.909221
771 1 0.0797077 0.328154 0.921541
33 1 0.331243 0.164423 0.990077
749 1 0.156603 0.167593 0.830199
750 1 0.244207 0.251694 0.842507
751 1 0.249626 0.165386 0.913002
752 1 0.163782 0.244912 0.921541
756 1 0.315591 0.262527 0.936818
34 1 0.409675 0.240807 -0.000123454
754 1 0.40268 0.25716 0.840416
755 1 0.423018 0.165682 0.91643
759 1 0.58535 0.163823 0.92158
760 1 0.490999 0.25372 0.920933
764 1 0.663863 0.250331 0.928025
761 1 0.657539 0.150605 0.840241
762 1 0.754083 0.244222 0.831642
763 1 0.743421 0.15389 0.912541
768 1 0.83329 0.248528 0.906147
766 1 0.911575 0.256751 0.832071
50 1 0.0700921 0.405823 0.00321787
770 1 0.087542 0.419038 0.832152
775 1 0.237151 0.329783 0.913953
776 1 0.165412 0.416643 0.927936
780 1 0.333733 0.414294 0.937352
799 1 0.240916 0.503418 0.92216
801 1 0.324611 0.501845 0.84218
58 1 0.415252 0.431526 0.00652678
777 1 0.321435 0.337562 0.842088
779 1 0.406599 0.336152 0.920149
803 1 0.416921 0.502211 0.920017
782 1 0.570833 0.415712 0.84026
783 1 0.583861 0.332743 0.916815
784 1 0.48823 0.409418 0.918194
66 1 0.761662 0.423619 0.000923421
785 1 0.668077 0.332733 0.845391
786 1 0.746603 0.425501 0.839767
787 1 0.755275 0.335363 0.916003
788 1 0.671997 0.413548 0.918751
811 1 0.762805 0.501267 0.923297
69 1 0.839349 0.327608 1.00045
70 1 0.924833 0.416231 0.00378381
772 1 0.00304692 0.414464 0.924814
791 1 0.912824 0.336362 0.908744
792 1 0.831266 0.418875 0.926061
795 1 0.0750442 0.5057 0.923008
819 1 0.0875345 0.668617 0.901362
78 1 0.24353 0.589522 0.00262026
105 1 0.328674 0.666188 1.00276
797 1 0.161602 0.493602 0.841083
800 1 0.16927 0.58808 0.911055
804 1 0.335204 0.591082 0.920786
823 1 0.249495 0.684596 0.916808
82 1 0.416504 0.5893 1.00667
802 1 0.407109 0.574645 0.830536
808 1 0.48806 0.594482 0.918056
825 1 0.326367 0.658237 0.824785
827 1 0.400593 0.673056 0.910781
829 1 0.500973 0.673512 0.833605
86 1 0.588341 0.58742 -0.00433571
806 1 0.598763 0.581362 0.84317
807 1 0.591276 0.498593 0.912103
89 1 0.667645 0.507066 1.00433
93 1 0.846636 0.501182 1.00214
812 1 0.662986 0.587758 0.924191
796 1 1.00316 0.587738 0.925872
814 1 0.923204 0.594893 0.843321
815 1 0.922503 0.482445 0.92045
816 1 0.844291 0.590744 0.917835
98 1 0.0804236 0.75612 0.994459
818 1 0.0869627 0.760618 0.819315
820 1 1.00747 0.74883 0.923043
843 1 0.087198 0.832851 0.905937
824 1 0.165932 0.758587 0.907978
849 1 0.34279 0.827663 0.829233
828 1 0.328816 0.754545 0.900565
851 1 0.424358 0.828553 0.908143
109 1 0.487216 0.672758 -0.0133529
113 1 0.670405 0.680747 0.996873
133 1 0.486555 0.827771 0.997148
831 1 0.583283 0.672543 0.925617
832 1 0.494326 0.749269 0.910688
855 1 0.584369 0.837888 0.92436
114 1 0.747501 0.760999 0.992402
834 1 0.739085 0.747497 0.829853
835 1 0.756574 0.675959 0.91134
836 1 0.659235 0.753988 0.908757
840 1 0.831321 0.752091 0.914228
837 1 0.844035 0.672715 0.833634
839 1 0.922307 0.676274 0.910339
861 1 0.847351 0.834626 0.843493
122 1 0.09371 0.915555 0.989391
721 1 -0.00305083 0.984937 0.832914
844 1 -0.00320295 0.907281 0.912289
848 1 0.170805 0.915282 0.908285
126 1 0.259041 0.905113 0.00668005
727 1 0.25559 1.01057 0.899668
729 1 0.347228 -0.00646599 0.831608
846 1 0.246743 0.921863 0.826677
847 1 0.256253 0.833829 0.904001
852 1 0.330969 0.913491 0.912569
13 1 0.496004 0.994473 0.996311
129 1 0.326358 0.829163 0.0087471
130 1 0.402789 0.905025 0.991276
731 1 0.401062 0.000186004 0.925227
850 1 0.42411 0.915985 0.824497
735 1 0.584747 0.997157 0.922935
853 1 0.496226 0.833424 0.83184
854 1 0.586254 0.91334 0.845949
856 1 0.50606 0.914641 0.918665
737 1 0.663817 0.981762 0.846362
739 1 0.74076 0.990794 0.926625
857 1 0.668099 0.836427 0.827049
859 1 0.75031 0.836337 0.902077
860 1 0.674456 0.907602 0.921968
142 1 0.913285 0.924532 0.00634782
743 1 0.929388 0.988229 0.912096
862 1 0.91561 0.911867 0.831626
863 1 0.929202 0.833775 0.913008
864 1 0.844293 0.921768 0.920019
