ITEM: TIMESTEP
17000
ITEM: NUMBER OF ATOMS
864
ITEM: BOX BOUNDS pp pp pp
0.0000000000000000e+00 3.1559999999999999e+01
0.0000000000000000e+00 3.1559999999999999e+01
0.0000000000000000e+00 3.1559999999999999e+01
ITEM: ATOMS id type xs ys zs
4 1 0.0391502 0.095253 0.0625117
38 1 0.113561 0.0905369 0.140135
3 1 0.111388 0.0101729 0.0707716
37 1 0.032128 0.00665523 0.151627
8 1 0.211502 0.0808507 0.0689469
42 1 0.289142 0.0908534 0.155818
53 1 0.205056 0.157261 0.147685
7 1 0.282406 0.0109216 0.0756565
41 1 0.197158 0.0122256 0.161076
12 1 0.37798 0.10093 0.0701429
46 1 0.446582 0.106222 0.156474
11 1 0.455127 0.0168281 0.0803016
45 1 0.374632 0.016007 0.154054
15 1 0.125925 0.17993 0.0624911
16 1 0.0462762 0.263994 0.0569398
50 1 0.129643 0.25821 0.16328
49 1 0.0403598 0.17997 0.143223
61 1 0.0418101 0.329577 0.151081
19 1 0.296176 0.17089 0.0690323
20 1 0.194538 0.269894 0.0747998
54 1 0.265835 0.258248 0.155473
57 1 0.363873 0.193113 0.144797
24 1 0.368225 0.272429 0.0671208
23 1 0.450049 0.183055 0.0662521
58 1 0.446973 0.264063 0.142812
26 1 0.113936 0.434949 0.00126361
27 1 0.112918 0.345834 0.0696108
28 1 0.0405153 0.431509 0.0838019
32 1 0.193233 0.433666 0.0949202
31 1 0.275431 0.364164 0.0722498
66 1 0.298519 0.431213 0.163522
69 1 0.357126 0.341572 0.152594
36 1 0.358812 0.438476 0.0707753
35 1 0.444171 0.35216 0.0625554
70 1 0.435904 0.437309 0.151468
39 1 0.113202 0.0154362 0.22443
40 1 0.033685 0.080854 0.234251
51 1 0.116705 0.162363 0.221043
85 1 0.0279475 0.159781 0.312105
74 1 0.11699 0.0974669 0.32285
73 1 0.0331031 0.00783251 0.307716
44 1 0.203592 0.0859182 0.240716
78 1 0.282098 0.0839683 0.327408
43 1 0.285294 0.0165598 0.231121
77 1 0.193642 0.00240182 0.314107
48 1 0.376333 0.0956058 0.238948
82 1 0.454667 0.117241 0.313139
47 1 0.435652 0.00999498 0.238137
86 1 0.113593 0.257715 0.325257
52 1 0.0379973 0.258158 0.249156
55 1 0.279538 0.169436 0.235857
89 1 0.202634 0.17501 0.317919
56 1 0.197823 0.23965 0.237342
90 1 0.275427 0.263125 0.310677
59 1 0.445964 0.18926 0.234632
60 1 0.34819 0.263557 0.242554
94 1 0.442638 0.260273 0.319926
93 1 0.35053 0.175263 0.320041
62 1 0.101832 0.44098 0.171679
63 1 0.122313 0.350736 0.243595
64 1 0.0308793 0.425341 0.251162
98 1 0.122037 0.434505 0.318873
97 1 0.0533531 0.340171 0.327782
65 1 0.192932 0.346087 0.167937
101 1 0.197598 0.341516 0.324973
67 1 0.275861 0.352607 0.240128
68 1 0.19377 0.432981 0.227095
71 1 0.442139 0.35026 0.239021
105 1 0.364361 0.356412 0.321438
72 1 0.361253 0.440796 0.249739
76 1 0.0304278 0.0896975 0.38927
110 1 0.103354 0.090868 0.474902
75 1 0.122452 0.0109343 0.400672
109 1 0.0415424 0.00294002 0.470603
114 1 0.29131 0.0900152 0.469587
80 1 0.200779 0.0900424 0.400338
113 1 0.195878 0.0112675 0.486968
118 1 0.444789 0.0993063 0.491479
84 1 0.370723 0.0890836 0.394139
117 1 0.378341 0.00530055 0.479915
83 1 0.449291 0.00368002 0.403683
121 1 0.0444221 0.179048 0.488246
122 1 0.125153 0.26887 0.490068
87 1 0.111642 0.169104 0.397674
88 1 0.0315182 0.254413 0.41146
99 1 0.119577 0.328874 0.408249
133 1 0.0259588 0.330623 0.487497
125 1 0.205996 0.183549 0.475441
126 1 0.281328 0.263005 0.481138
91 1 0.276682 0.175992 0.396257
92 1 0.205492 0.266285 0.407369
130 1 0.443408 0.268176 0.473024
95 1 0.453181 0.184099 0.396254
96 1 0.359891 0.268855 0.392907
129 1 0.352295 0.176925 0.479687
100 1 0.0368586 0.424795 0.394461
134 1 0.105829 0.422321 0.493927
291 1 0.116227 0.499112 0.409131
137 1 0.196396 0.35646 0.480822
102 1 0.29184 0.450275 0.336885
138 1 0.284267 0.441688 0.49987
103 1 0.284465 0.349019 0.399904
104 1 0.21262 0.436799 0.403939
108 1 0.371824 0.42991 0.402188
106 1 0.464753 0.442571 0.33629
141 1 0.36203 0.343116 0.476513
142 1 0.446178 0.425509 0.487484
107 1 0.452141 0.344646 0.401153
146 1 0.108173 0.0960935 0.659735
145 1 0.0326888 0.0276214 0.659928
112 1 0.0402427 0.0924493 0.56316
116 1 0.208094 0.0923973 0.551136
150 1 0.286882 0.0946633 0.652394
149 1 0.200495 0.0317469 0.650271
153 1 0.356382 0.00831407 0.648382
120 1 0.36144 0.0910769 0.55893
154 1 0.433785 0.0820221 0.64352
119 1 0.435984 0.00137467 0.569586
124 1 0.0413324 0.265717 0.563394
123 1 0.125077 0.178593 0.558261
158 1 0.110179 0.260273 0.645944
157 1 0.0217921 0.18425 0.658126
161 1 0.188524 0.176698 0.653513
127 1 0.271295 0.181824 0.571817
128 1 0.198585 0.261799 0.567557
162 1 0.282632 0.261591 0.642042
131 1 0.448501 0.187259 0.550933
165 1 0.36962 0.168144 0.633027
132 1 0.358231 0.269636 0.569135
166 1 0.450543 0.251708 0.635275
169 1 0.0439629 0.340283 0.647172
135 1 0.122732 0.337797 0.56862
170 1 0.118138 0.43616 0.64055
136 1 0.0233616 0.43114 0.578003
173 1 0.194093 0.355778 0.648984
139 1 0.286728 0.351381 0.559845
140 1 0.203898 0.425788 0.560672
174 1 0.27257 0.433657 0.652756
143 1 0.439502 0.340094 0.558272
177 1 0.352399 0.343712 0.648748
144 1 0.373154 0.431748 0.569908
178 1 0.459449 0.425815 0.653946
148 1 0.0333993 0.0937825 0.748094
182 1 0.127883 0.0856346 0.828365
147 1 0.118284 0.0207788 0.745505
181 1 0.0268518 0.0119353 0.827328
152 1 0.205909 0.0969209 0.732937
186 1 0.276243 0.0954257 0.812979
151 1 0.288559 0.0186539 0.730661
185 1 0.200042 0.00171487 0.821155
189 1 0.366864 0.0189742 0.810757
156 1 0.359032 0.094632 0.729502
190 1 0.433646 0.111632 0.816821
167 1 0.44658 0.164697 0.723677
155 1 0.443725 0.0158313 0.730483
193 1 0.0325593 0.172243 0.826603
159 1 0.109685 0.177219 0.733771
194 1 0.108558 0.267225 0.804719
160 1 0.0214064 0.262118 0.73105
197 1 0.195097 0.19476 0.811749
163 1 0.265732 0.196038 0.725505
164 1 0.197671 0.285276 0.724376
198 1 0.270058 0.277965 0.807631
168 1 0.366266 0.254076 0.713454
201 1 0.34097 0.19618 0.811896
202 1 0.446985 0.250838 0.820044
205 1 0.015357 0.345679 0.813233
172 1 0.0281463 0.429198 0.711774
171 1 0.114386 0.361454 0.741601
206 1 0.10825 0.430524 0.812417
175 1 0.282223 0.359525 0.735681
209 1 0.197456 0.360032 0.817115
210 1 0.275205 0.431515 0.81116
176 1 0.1898 0.434786 0.724519
179 1 0.442005 0.339098 0.729936
214 1 0.452017 0.439392 0.811126
180 1 0.370267 0.43928 0.728322
213 1 0.36562 0.354464 0.806842
405 1 0.360301 0.498642 0.822267
2 1 0.126797 0.103198 0.982723
183 1 0.117935 0.01062 0.902098
184 1 0.0446635 0.108573 0.909289
1 1 0.0342317 0.0148908 0.984235
187 1 0.282883 0.00837272 0.895583
188 1 0.197489 0.0793173 0.903027
6 1 0.282639 0.097519 0.989349
5 1 0.200208 0.0105603 0.99658
199 1 0.286389 0.159961 0.904079
191 1 0.447611 0.0199489 0.89979
10 1 0.445471 0.0875659 0.989252
192 1 0.366788 0.0884969 0.907168
21 1 0.366432 0.163576 0.980978
9 1 0.364218 0.008226 0.990735
13 1 0.0322482 0.172367 0.993378
14 1 0.128893 0.248983 0.987204
195 1 0.12246 0.177784 0.888998
196 1 0.0359833 0.261551 0.896984
18 1 0.297163 0.255806 0.992006
200 1 0.194054 0.265149 0.888554
17 1 0.210105 0.18729 0.970818
203 1 0.450869 0.188314 0.903893
204 1 0.370671 0.272023 0.89249
22 1 0.450228 0.275127 0.974002
25 1 0.0343572 0.347579 0.983715
208 1 0.0363123 0.433004 0.898963
207 1 0.116909 0.352913 0.91477
211 1 0.294301 0.345094 0.895617
212 1 0.198757 0.429601 0.907056
29 1 0.207443 0.364776 0.989688
30 1 0.291288 0.43028 0.97629
34 1 0.439606 0.433393 0.989067
215 1 0.454324 0.343705 0.878505
216 1 0.370567 0.429228 0.900145
33 1 0.363239 0.355171 0.984513
220 1 0.0433783 0.580876 0.067178
219 1 0.12361 0.514256 0.0782212
253 1 0.0412025 0.525183 0.162471
224 1 0.21108 0.594415 0.077209
258 1 0.288636 0.595934 0.151931
223 1 0.27511 0.503715 0.0811257
257 1 0.201994 0.515512 0.154675
228 1 0.361506 0.600322 0.0739668
262 1 0.452541 0.595168 0.15305
227 1 0.459373 0.508478 0.074509
261 1 0.365753 0.518056 0.156457
231 1 0.109405 0.672665 0.0729325
232 1 0.0294231 0.759134 0.0643727
266 1 0.109338 0.765206 0.146398
265 1 0.0290944 0.688869 0.155508
269 1 0.189548 0.678386 0.148809
236 1 0.1943 0.749277 0.0675761
235 1 0.289478 0.678369 0.0694045
270 1 0.282641 0.748703 0.144089
240 1 0.370749 0.754901 0.078715
273 1 0.374488 0.674252 0.154532
239 1 0.458639 0.673447 0.0631216
274 1 0.446746 0.759333 0.150604
277 1 0.0196436 0.844107 0.163757
244 1 0.0326982 0.931969 0.0598666
243 1 0.0958006 0.846751 0.0633638
278 1 0.107152 0.907013 0.150459
247 1 0.288946 0.84996 0.0642098
248 1 0.188957 0.928016 0.0675732
282 1 0.270127 0.932006 0.15652
281 1 0.197477 0.844273 0.141804
245 1 0.19659 0.836117 0.00466859
251 1 0.441645 0.848848 0.0651452
285 1 0.35548 0.847709 0.152187
252 1 0.36097 0.936184 0.083916
286 1 0.442296 0.927904 0.151367
254 1 0.115029 0.602938 0.170061
289 1 0.0368397 0.507262 0.324804
290 1 0.109774 0.600498 0.321394
256 1 0.0336906 0.598702 0.245182
255 1 0.114254 0.517143 0.25249
260 1 0.205672 0.602142 0.233968
294 1 0.282747 0.59741 0.32162
293 1 0.205809 0.517582 0.323543
259 1 0.285586 0.520131 0.2455
263 1 0.43995 0.505679 0.235797
264 1 0.379506 0.595109 0.235573
298 1 0.456404 0.592546 0.317105
267 1 0.111636 0.690438 0.236363
268 1 0.0355353 0.767756 0.227314
302 1 0.125772 0.754705 0.316064
301 1 0.033168 0.69995 0.31258
305 1 0.21315 0.682566 0.316373
272 1 0.194553 0.777914 0.224016
306 1 0.283495 0.786074 0.323002
271 1 0.285819 0.677713 0.235724
275 1 0.450955 0.678394 0.232736
276 1 0.367156 0.766621 0.23232
310 1 0.45389 0.748769 0.308535
309 1 0.366009 0.67505 0.32293
313 1 0.034692 0.834495 0.317419
279 1 0.104542 0.841932 0.239711
280 1 0.0224506 0.924589 0.234018
314 1 0.116966 0.931875 0.316395
318 1 0.284873 0.928288 0.305975
283 1 0.284112 0.834918 0.230934
284 1 0.190594 0.934907 0.232714
317 1 0.193213 0.849675 0.309305
321 1 0.361236 0.845237 0.309229
287 1 0.434404 0.840655 0.22573
322 1 0.440322 0.912592 0.319497
288 1 0.358806 0.933049 0.224902
81 1 0.369851 0.982906 0.323814
292 1 0.0359893 0.588377 0.394461
326 1 0.119051 0.594078 0.466314
325 1 0.0334949 0.502668 0.490714
329 1 0.201149 0.525125 0.478355
330 1 0.282564 0.614483 0.493596
296 1 0.196587 0.593735 0.395298
295 1 0.28617 0.528594 0.417845
297 1 0.365934 0.522048 0.340992
299 1 0.46155 0.532784 0.408524
333 1 0.384341 0.515239 0.48028
334 1 0.46587 0.607477 0.486697
300 1 0.360029 0.609622 0.409857
337 1 0.0531543 0.671803 0.471897
304 1 0.0462432 0.766281 0.408304
303 1 0.116606 0.681167 0.389256
338 1 0.116856 0.764182 0.498186
342 1 0.284305 0.760105 0.489249
341 1 0.196745 0.700556 0.467371
308 1 0.20507 0.784346 0.3999
307 1 0.286806 0.6917 0.416427
345 1 0.372131 0.691872 0.494009
311 1 0.457207 0.676634 0.396741
312 1 0.364029 0.76095 0.405896
346 1 0.452163 0.763188 0.481972
350 1 0.125595 0.928955 0.490325
316 1 0.0257561 0.915561 0.397128
315 1 0.11984 0.86381 0.403903
349 1 0.0481915 0.858375 0.480245
354 1 0.283619 0.928609 0.494988
319 1 0.285911 0.858496 0.403417
320 1 0.20412 0.935351 0.399818
353 1 0.2002 0.847066 0.48697
79 1 0.284698 0.998314 0.394658
358 1 0.450226 0.923785 0.495062
324 1 0.369776 0.923084 0.416149
357 1 0.364373 0.838382 0.487278
323 1 0.455668 0.849723 0.408902
362 1 0.106687 0.615386 0.636577
328 1 0.0387143 0.595125 0.558568
327 1 0.116642 0.524385 0.554588
361 1 0.0486887 0.521724 0.638203
332 1 0.196301 0.610908 0.567326
366 1 0.290072 0.590278 0.653883
331 1 0.279799 0.525764 0.568286
365 1 0.187151 0.519287 0.638817
336 1 0.369006 0.595854 0.565781
369 1 0.365473 0.519344 0.641959
370 1 0.458558 0.603241 0.65056
335 1 0.460839 0.515464 0.571021
373 1 0.0336445 0.686182 0.654426
339 1 0.118754 0.682341 0.557355
340 1 0.0376262 0.75755 0.575882
374 1 0.132883 0.752451 0.648974
343 1 0.286965 0.678198 0.574597
377 1 0.209557 0.674911 0.653366
344 1 0.208478 0.760203 0.565206
378 1 0.27491 0.761757 0.654493
381 1 0.360163 0.680179 0.645991
347 1 0.452001 0.682769 0.557257
348 1 0.356475 0.774817 0.566533
382 1 0.443505 0.759269 0.647195
385 1 0.0456596 0.838405 0.655275
351 1 0.113164 0.842015 0.567888
386 1 0.128805 0.925039 0.660489
352 1 0.0332963 0.933452 0.573734
111 1 0.122137 0.993133 0.56912
355 1 0.276562 0.849127 0.579155
389 1 0.201457 0.843188 0.658344
356 1 0.192616 0.911977 0.567108
390 1 0.277972 0.924115 0.656332
115 1 0.27945 0.99812 0.56814
359 1 0.441595 0.833969 0.578135
393 1 0.355851 0.840868 0.656694
360 1 0.370756 0.914912 0.559234
394 1 0.444583 0.9278 0.654854
364 1 0.0402624 0.606807 0.735921
398 1 0.110506 0.593159 0.814968
397 1 0.0464366 0.504188 0.808186
363 1 0.113828 0.512264 0.722372
367 1 0.287916 0.505928 0.727571
368 1 0.205484 0.577606 0.746459
402 1 0.275781 0.582304 0.820475
401 1 0.197414 0.506507 0.82893
371 1 0.445741 0.505733 0.73032
372 1 0.36614 0.575862 0.737428
406 1 0.448656 0.588197 0.813287
375 1 0.117141 0.673479 0.733772
376 1 0.0474075 0.765811 0.738717
410 1 0.143032 0.765279 0.827295
409 1 0.0559687 0.686544 0.82049
379 1 0.286607 0.672154 0.734029
413 1 0.201455 0.668849 0.809693
380 1 0.18915 0.749159 0.735647
414 1 0.280078 0.767764 0.819325
417 1 0.349243 0.667399 0.825019
383 1 0.443221 0.680369 0.739425
384 1 0.360967 0.751051 0.732694
418 1 0.442469 0.767023 0.82381
421 1 0.0445001 0.844747 0.810137
388 1 0.0179475 0.931339 0.733223
387 1 0.121464 0.847776 0.737815
422 1 0.119894 0.929944 0.827277
425 1 0.200725 0.850437 0.829402
391 1 0.268921 0.841888 0.740225
392 1 0.193266 0.932847 0.741535
426 1 0.285053 0.939356 0.819652
395 1 0.455409 0.841134 0.734227
429 1 0.360217 0.836245 0.803123
396 1 0.36378 0.931148 0.738532
430 1 0.438955 0.918693 0.81508
400 1 0.0380382 0.595298 0.908375
218 1 0.128264 0.599242 0.995052
399 1 0.126558 0.513224 0.908416
217 1 0.0353385 0.512199 0.98762
403 1 0.274805 0.510554 0.906794
404 1 0.200309 0.586719 0.916714
222 1 0.293479 0.587609 0.985224
221 1 0.202716 0.504642 0.997336
407 1 0.463211 0.500593 0.895256
408 1 0.359784 0.574986 0.897142
226 1 0.446252 0.583781 0.970749
225 1 0.364221 0.510998 0.997546
230 1 0.107852 0.749669 0.987059
229 1 0.012199 0.682117 0.986969
412 1 0.0409082 0.752804 0.899845
411 1 0.136614 0.686452 0.892977
233 1 0.207197 0.675737 0.999647
415 1 0.26504 0.68126 0.902569
416 1 0.207092 0.770119 0.920649
234 1 0.283684 0.768991 0.998282
238 1 0.438186 0.766068 0.99203
237 1 0.359552 0.685249 0.982145
419 1 0.431329 0.675747 0.898768
420 1 0.352438 0.753161 0.893614
241 1 0.0351407 0.8353 0.969099
423 1 0.12299 0.83928 0.915538
242 1 0.115654 0.942981 0.978168
424 1 0.0383276 0.919038 0.904993
246 1 0.274672 0.927855 0.974062
427 1 0.290768 0.854228 0.889592
428 1 0.191925 0.936316 0.904999
250 1 0.448469 0.942995 0.969742
432 1 0.36786 0.935223 0.896279
249 1 0.358647 0.859484 0.981627
431 1 0.435035 0.845977 0.901154
470 1 0.619198 0.0888487 0.150472
436 1 0.528034 0.0914025 0.0748408
469 1 0.526542 0.0169991 0.153712
435 1 0.615291 0.0128679 0.0673647
440 1 0.704169 0.100203 0.0626299
474 1 0.784505 0.105739 0.156408
439 1 0.78774 0.0269323 0.0722409
473 1 0.700046 0.0134677 0.136472
444 1 0.866271 0.0991275 0.0796715
478 1 0.959222 0.0944389 0.144861
442 1 0.95347 0.0882998 0.0048186
443 1 0.936232 0.0105911 0.0770732
477 1 0.859461 0.025316 0.159096
447 1 0.618468 0.175087 0.0689967
482 1 0.621542 0.275505 0.133584
448 1 0.529047 0.272002 0.0655245
481 1 0.527804 0.171314 0.14209
451 1 0.786674 0.173493 0.073547
485 1 0.695734 0.188129 0.13779
452 1 0.698532 0.270982 0.0633892
486 1 0.78439 0.27072 0.137476
489 1 0.861368 0.183591 0.166248
456 1 0.874692 0.266246 0.0773319
455 1 0.951852 0.179804 0.068751
490 1 0.953775 0.252812 0.149453
459 1 0.612878 0.345378 0.0592404
460 1 0.528425 0.421686 0.0550388
493 1 0.523422 0.358971 0.142015
494 1 0.637433 0.434174 0.153171
497 1 0.700472 0.347978 0.146255
463 1 0.791899 0.341491 0.0743357
464 1 0.689909 0.424567 0.0643647
498 1 0.78236 0.422668 0.135409
467 1 0.952653 0.341677 0.0776425
468 1 0.86754 0.436284 0.0712306
501 1 0.885619 0.334833 0.156306
502 1 0.957912 0.426398 0.147196
466 1 0.9712 0.426521 0.00224892
506 1 0.606112 0.104005 0.315537
472 1 0.523504 0.107424 0.224154
471 1 0.609192 0.0121611 0.237493
505 1 0.513291 0.0302792 0.313609
476 1 0.7053 0.0938589 0.232318
510 1 0.782741 0.0935362 0.323399
475 1 0.790168 0.0226162 0.233746
509 1 0.690565 0.019366 0.316878
480 1 0.867377 0.0985206 0.249045
514 1 0.942417 0.0847857 0.331886
513 1 0.864962 0.00964151 0.324975
491 1 0.943605 0.166236 0.237109
479 1 0.94728 0.00555544 0.229842
484 1 0.533689 0.270923 0.215149
517 1 0.533537 0.194532 0.309332
483 1 0.61646 0.181649 0.216497
518 1 0.613402 0.264279 0.301317
521 1 0.704132 0.190078 0.327287
487 1 0.773002 0.183331 0.233851
488 1 0.709059 0.272171 0.224279
522 1 0.79015 0.2673 0.322325
525 1 0.863412 0.174745 0.319086
492 1 0.869711 0.25616 0.239627
526 1 0.963441 0.24395 0.321535
495 1 0.605503 0.348038 0.224789
496 1 0.525137 0.425994 0.234662
529 1 0.520396 0.33725 0.312228
530 1 0.593127 0.414296 0.325178
499 1 0.787318 0.34483 0.220151
533 1 0.698394 0.342369 0.313756
534 1 0.785002 0.428672 0.310202
500 1 0.707926 0.427591 0.233031
537 1 0.871341 0.337226 0.313792
503 1 0.956296 0.339842 0.235537
538 1 0.945912 0.415576 0.319681
504 1 0.880773 0.42512 0.235543
507 1 0.594808 0.0108031 0.394121
508 1 0.532022 0.107103 0.414008
542 1 0.611887 0.0979611 0.499413
512 1 0.678964 0.105934 0.398657
546 1 0.769608 0.0913649 0.480268
545 1 0.693974 0.00587823 0.480426
511 1 0.785273 0.0245291 0.402394
550 1 0.952612 0.096153 0.491358
515 1 0.929878 0.0184367 0.409279
516 1 0.858585 0.100347 0.408552
549 1 0.860474 0.0165372 0.488399
553 1 0.535455 0.190486 0.473977
519 1 0.615984 0.195021 0.393795
520 1 0.538724 0.269158 0.393669
554 1 0.613768 0.271275 0.480682
557 1 0.687242 0.166903 0.493979
523 1 0.788486 0.173768 0.395102
558 1 0.755729 0.237175 0.482401
524 1 0.700062 0.276112 0.397811
562 1 0.953613 0.248623 0.492299
561 1 0.849855 0.181676 0.493935
527 1 0.94199 0.18063 0.41898
528 1 0.875502 0.270712 0.409987
565 1 0.537532 0.339901 0.484113
531 1 0.632002 0.353302 0.395943
532 1 0.535026 0.425953 0.413755
566 1 0.622819 0.440986 0.476972
535 1 0.78335 0.344681 0.405063
569 1 0.691336 0.347276 0.492412
536 1 0.716629 0.438625 0.383745
570 1 0.779366 0.408199 0.493956
539 1 0.958745 0.344201 0.402409
540 1 0.85784 0.430568 0.397786
574 1 0.947669 0.435656 0.484986
573 1 0.87175 0.344786 0.478296
544 1 0.525538 0.0954207 0.580077
578 1 0.628796 0.0954361 0.643662
543 1 0.611561 0.0113393 0.573876
541 1 0.52872 0.00725726 0.501943
548 1 0.699804 0.0782325 0.564035
582 1 0.779706 0.085334 0.654545
547 1 0.7832 0.0192971 0.574696
581 1 0.704333 0.0043485 0.653076
552 1 0.864917 0.107413 0.568125
586 1 0.950975 0.100953 0.661184
563 1 0.954797 0.162939 0.569369
585 1 0.854533 0.0124578 0.646741
551 1 0.944839 0.0267142 0.583608
555 1 0.623876 0.186383 0.573608
556 1 0.531901 0.263151 0.56088
590 1 0.615224 0.24848 0.662685
589 1 0.522734 0.178196 0.642952
567 1 0.619115 0.332555 0.570262
559 1 0.779962 0.181699 0.577356
593 1 0.711565 0.181711 0.657214
560 1 0.70763 0.26505 0.591968
594 1 0.790928 0.258413 0.66464
571 1 0.779929 0.328423 0.559676
597 1 0.870658 0.174229 0.66287
564 1 0.862602 0.267076 0.56651
598 1 0.947885 0.263906 0.639402
602 1 0.620686 0.424521 0.645195
568 1 0.528648 0.415433 0.563303
601 1 0.532074 0.341447 0.645454
605 1 0.712411 0.356669 0.658982
572 1 0.699224 0.427981 0.562225
606 1 0.792802 0.427644 0.647267
575 1 0.938992 0.350958 0.567654
609 1 0.862011 0.347821 0.647458
576 1 0.86833 0.424911 0.563239
610 1 0.936364 0.446062 0.654332
580 1 0.533286 0.081669 0.718537
614 1 0.6155 0.0958527 0.81482
625 1 0.5275 0.16405 0.818583
613 1 0.52821 0.0256498 0.807824
579 1 0.628553 0.00823838 0.727082
584 1 0.697061 0.092737 0.724618
618 1 0.775887 0.0907869 0.826219
583 1 0.779977 0.00433433 0.732705
588 1 0.854271 0.0875665 0.742704
622 1 0.952912 0.0970347 0.826488
621 1 0.85177 0.00371891 0.821136
587 1 0.936629 0.0111549 0.734066
591 1 0.604041 0.170445 0.728223
592 1 0.523993 0.246848 0.734512
626 1 0.606347 0.260937 0.806364
629 1 0.690507 0.180747 0.815368
596 1 0.702003 0.264125 0.736841
595 1 0.788763 0.174737 0.737381
630 1 0.782843 0.260109 0.81214
599 1 0.939788 0.16796 0.744342
600 1 0.880662 0.264818 0.731458
634 1 0.951407 0.257241 0.823279
633 1 0.848093 0.185027 0.828255
637 1 0.531674 0.344144 0.808499
603 1 0.623061 0.34359 0.732023
638 1 0.628215 0.425371 0.816135
604 1 0.553842 0.444096 0.722811
641 1 0.703409 0.348359 0.827172
607 1 0.791974 0.342853 0.751898
608 1 0.713016 0.417819 0.747944
642 1 0.794392 0.435655 0.827608
646 1 0.952029 0.448757 0.817522
645 1 0.874382 0.345599 0.815775
611 1 0.939669 0.350879 0.710733
612 1 0.862423 0.432542 0.734113
433 1 0.533174 0.0190943 0.979431
616 1 0.518862 0.0942677 0.907156
615 1 0.603986 0.0164491 0.894159
434 1 0.614842 0.0941106 0.986104
627 1 0.616216 0.164667 0.900519
619 1 0.781036 0.00668962 0.902894
437 1 0.696665 0.00957951 0.982595
620 1 0.69995 0.0922366 0.914946
438 1 0.78275 0.0996487 0.985093
617 1 0.693881 0.00762026 0.833488
624 1 0.862547 0.0999647 0.896652
441 1 0.858339 0.0139423 0.986705
623 1 0.937674 0.0139034 0.909588
628 1 0.537274 0.249056 0.888793
446 1 0.607031 0.269054 0.973629
445 1 0.529702 0.173509 0.985841
450 1 0.806241 0.26455 0.99577
449 1 0.683103 0.187399 0.9836
631 1 0.775822 0.181838 0.902894
632 1 0.696064 0.268242 0.892093
454 1 0.961834 0.268186 0.995192
635 1 0.952513 0.185707 0.92538
636 1 0.879309 0.267732 0.902734
453 1 0.86379 0.177522 0.991547
639 1 0.624303 0.349413 0.894339
640 1 0.543901 0.429788 0.880618
457 1 0.522518 0.345316 0.966581
458 1 0.603547 0.431533 0.975763
462 1 0.799679 0.413017 0.993202
643 1 0.785351 0.334431 0.901352
461 1 0.701477 0.340323 0.977967
644 1 0.722576 0.422163 0.911235
647 1 0.939898 0.352501 0.899203
648 1 0.864505 0.434524 0.918086
839 1 0.952031 0.490298 0.921863
465 1 0.879947 0.342621 0.992608
686 1 0.624716 0.608572 0.159155
652 1 0.541104 0.607802 0.0697515
651 1 0.61302 0.516544 0.0633604
685 1 0.534998 0.503396 0.157473
656 1 0.69175 0.599349 0.0859341
690 1 0.78895 0.604077 0.14555
655 1 0.782632 0.510482 0.0636474
689 1 0.703916 0.5108 0.148684
660 1 0.874108 0.593321 0.0615275
694 1 0.966338 0.604076 0.16029
671 1 0.954347 0.665313 0.0751781
693 1 0.87859 0.521346 0.142498
659 1 0.956647 0.516943 0.074539
663 1 0.624697 0.681931 0.0741896
698 1 0.615464 0.77296 0.145306
664 1 0.531576 0.753879 0.0719997
697 1 0.535409 0.676434 0.151662
667 1 0.771019 0.688926 0.0652211
701 1 0.708833 0.691403 0.155839
668 1 0.695915 0.7881 0.0627165
702 1 0.789995 0.758638 0.144471
705 1 0.868683 0.681607 0.163028
672 1 0.850505 0.75823 0.0499883
706 1 0.947183 0.75316 0.144151
717 1 0.865865 0.832375 0.137922
675 1 0.604358 0.840801 0.0709429
710 1 0.618073 0.93232 0.159991
709 1 0.517496 0.84805 0.153311
676 1 0.523018 0.936519 0.0803348
679 1 0.781499 0.841798 0.0756697
713 1 0.691001 0.854435 0.160961
680 1 0.690795 0.910083 0.0706552
714 1 0.768539 0.927174 0.146512
683 1 0.948471 0.839137 0.0586337
684 1 0.86037 0.925915 0.0649018
718 1 0.94032 0.934771 0.146659
722 1 0.619343 0.599358 0.310293
688 1 0.537517 0.582079 0.242046
721 1 0.524589 0.517248 0.325239
687 1 0.613946 0.501718 0.251357
725 1 0.698719 0.51408 0.316949
692 1 0.706266 0.595876 0.238493
726 1 0.790122 0.588876 0.319777
691 1 0.778704 0.515068 0.226539
696 1 0.85973 0.599236 0.232164
730 1 0.949334 0.596182 0.320551
695 1 0.950746 0.50773 0.22506
729 1 0.872493 0.505801 0.313821
733 1 0.544282 0.686831 0.318787
699 1 0.620993 0.682164 0.22848
734 1 0.622569 0.762084 0.315649
700 1 0.545065 0.758371 0.226596
703 1 0.783532 0.678398 0.235435
704 1 0.708884 0.758684 0.238362
738 1 0.783339 0.754574 0.315043
737 1 0.702139 0.687916 0.320165
741 1 0.865767 0.684071 0.324684
707 1 0.957669 0.680567 0.242902
708 1 0.861683 0.753346 0.23797
742 1 0.941067 0.768732 0.331867
719 1 0.93432 0.830352 0.23933
745 1 0.536109 0.841243 0.314684
711 1 0.613283 0.843403 0.239636
746 1 0.604134 0.930548 0.315396
712 1 0.521059 0.93168 0.228233
715 1 0.787445 0.847276 0.225299
749 1 0.706868 0.852189 0.318746
716 1 0.693306 0.925906 0.239553
750 1 0.77905 0.943358 0.317729
753 1 0.85952 0.8592 0.321625
720 1 0.85886 0.937917 0.233379
754 1 0.942784 0.93713 0.317703
724 1 0.548259 0.597586 0.389993
758 1 0.620084 0.594726 0.467548
723 1 0.619054 0.506813 0.38586
757 1 0.543313 0.520778 0.482386
761 1 0.697703 0.519442 0.484395
762 1 0.78095 0.602858 0.484358
728 1 0.705601 0.594262 0.39076
727 1 0.791954 0.518211 0.409331
765 1 0.863169 0.513082 0.486267
732 1 0.874806 0.593068 0.396049
766 1 0.967657 0.601621 0.481087
731 1 0.94965 0.502554 0.395263
770 1 0.61135 0.767205 0.483816
769 1 0.547905 0.67959 0.46874
735 1 0.632292 0.680658 0.394138
736 1 0.528688 0.76699 0.403014
774 1 0.784102 0.75392 0.482625
739 1 0.772069 0.679843 0.402321
773 1 0.688757 0.68476 0.493325
740 1 0.704329 0.764495 0.401349
778 1 0.95157 0.76647 0.483772
743 1 0.959619 0.689224 0.407112
744 1 0.861056 0.751733 0.403232
777 1 0.874466 0.671776 0.487309
782 1 0.593628 0.930255 0.499735
748 1 0.536962 0.920477 0.401155
747 1 0.608876 0.839868 0.404179
781 1 0.523169 0.844539 0.489558
786 1 0.782043 0.946246 0.486842
752 1 0.699651 0.931966 0.405055
751 1 0.78624 0.852612 0.409864
785 1 0.680885 0.847203 0.481384
756 1 0.861669 0.933083 0.404806
789 1 0.856911 0.843248 0.486607
755 1 0.930735 0.842316 0.411154
790 1 0.960624 0.9388 0.486285
794 1 0.634333 0.593413 0.647155
760 1 0.537853 0.594903 0.565158
793 1 0.545211 0.520323 0.652034
759 1 0.627368 0.508436 0.55989
764 1 0.701058 0.592498 0.562983
798 1 0.785037 0.603425 0.642322
797 1 0.719804 0.506182 0.642842
763 1 0.793141 0.505913 0.561077
768 1 0.866177 0.600625 0.568973
802 1 0.9402 0.591099 0.637815
767 1 0.948527 0.515178 0.552325
801 1 0.860835 0.512968 0.639525
805 1 0.532454 0.68299 0.64535
771 1 0.617571 0.676341 0.576207
806 1 0.636022 0.769291 0.658513
772 1 0.537259 0.745975 0.566058
817 1 0.533562 0.817355 0.648483
809 1 0.717043 0.681997 0.652697
775 1 0.786121 0.681133 0.565311
776 1 0.694106 0.77438 0.56378
810 1 0.771614 0.780451 0.645109
779 1 0.948269 0.685659 0.566226
780 1 0.863707 0.76209 0.564986
813 1 0.876741 0.696911 0.654183
814 1 0.95857 0.769835 0.650167
783 1 0.613216 0.850074 0.579942
784 1 0.525522 0.9114 0.585608
818 1 0.614526 0.92677 0.652929
577 1 0.532808 0.999147 0.652251
821 1 0.696629 0.855259 0.649068
787 1 0.774882 0.850455 0.558919
788 1 0.695825 0.928191 0.571145
822 1 0.787343 0.919708 0.639699
791 1 0.952467 0.848854 0.56888
792 1 0.87736 0.93725 0.566558
825 1 0.864162 0.836365 0.648009
826 1 0.948376 0.922399 0.651978
830 1 0.607271 0.608521 0.822079
796 1 0.531309 0.599446 0.722138
829 1 0.536641 0.517393 0.815019
795 1 0.638363 0.512865 0.734225
800 1 0.715796 0.601768 0.720697
834 1 0.78307 0.590888 0.812778
799 1 0.784066 0.514616 0.731076
833 1 0.704456 0.50458 0.827022
803 1 0.946763 0.518637 0.732344
804 1 0.857617 0.598712 0.735848
838 1 0.953221 0.575357 0.819554
815 1 0.9528 0.665394 0.741313
837 1 0.872049 0.506547 0.819184
807 1 0.618304 0.681758 0.728986
808 1 0.529367 0.761762 0.74266
841 1 0.518631 0.674791 0.828737
845 1 0.685501 0.683568 0.822726
811 1 0.773681 0.707852 0.744568
812 1 0.681787 0.781373 0.753913
846 1 0.778094 0.779456 0.819996
849 1 0.874886 0.677433 0.814795
816 1 0.863214 0.770152 0.742187
850 1 0.96402 0.761808 0.818971
820 1 0.515639 0.93147 0.734972
819 1 0.605627 0.85116 0.748771
853 1 0.521058 0.84374 0.822338
854 1 0.60051 0.933502 0.818273
823 1 0.776857 0.84143 0.732473
857 1 0.691236 0.856765 0.829168
824 1 0.701538 0.936332 0.749189
858 1 0.786476 0.923048 0.819622
861 1 0.872072 0.845044 0.819385
827 1 0.952133 0.853449 0.726976
862 1 0.944811 0.930028 0.823437
828 1 0.851224 0.918279 0.73001
650 1 0.612593 0.601459 0.975388
832 1 0.533168 0.599495 0.912099
831 1 0.629602 0.501808 0.898107
649 1 0.528218 0.520937 0.993343
654 1 0.769612 0.60537 0.976584
836 1 0.700586 0.579651 0.904672
653 1 0.692454 0.515953 0.992724
835 1 0.787412 0.524862 0.907767
840 1 0.864847 0.596225 0.89413
658 1 0.950441 0.593206 0.977618
851 1 0.963585 0.665933 0.886508
657 1 0.865166 0.51685 0.983508
842 1 0.605854 0.768299 0.837724
661 1 0.524746 0.6871 0.977578
662 1 0.621224 0.761434 0.989503
844 1 0.509894 0.757028 0.905015
843 1 0.605653 0.684758 0.908483
673 1 0.528174 0.831811 0.987967
666 1 0.770702 0.75476 0.979282
665 1 0.694896 0.676619 0.98788
847 1 0.769256 0.670501 0.896798
848 1 0.701561 0.766145 0.895552
669 1 0.867467 0.677596 0.980533
852 1 0.85521 0.76324 0.896
670 1 0.936753 0.762414 0.965727
856 1 0.534725 0.940224 0.906095
855 1 0.594258 0.854372 0.89785
674 1 0.590973 0.924602 0.996049
677 1 0.681535 0.852629 0.977497
678 1 0.783477 0.920897 0.984162
859 1 0.791865 0.851216 0.894101
860 1 0.690431 0.933959 0.907734
864 1 0.865405 0.927867 0.906225
681 1 0.857514 0.842872 0.989739
682 1 0.955955 0.925281 0.98284
863 1 0.949221 0.836543 0.888832
