ITEM: TIMESTEP
2750
ITEM: NUMBER OF ATOMS
864
ITEM: BOX BOUNDS pp pp pp
0.0000000000000000e+00 3.1559999999999999e+01
0.0000000000000000e+00 3.1559999999999999e+01
0.0000000000000000e+00 3.1559999999999999e+01
ITEM: ATOMS id type xs ys zs
27 1 0.089983 0.167785 0.065142
4 1 0.997756 0.081292 0.0667306
277 1 0.486432 0.329041 0.499042
196 1 0.993846 0.414297 0.409063
230 1 0.584742 0.0717884 0.491927
8 1 0.178437 0.080374 0.0620403
591 1 0.58067 0.490943 0.417785
31 1 0.265284 0.172143 0.0898071
262 1 0.914789 0.252409 0.483206
12 1 0.353476 0.0941596 0.0740005
105 1 0.345882 0.178104 0.159551
455 1 0.916565 0.497943 0.0737501
82 1 0.420561 0.0815305 0.158765
37 1 0.502921 0.174352 0.00869914
16 1 0.495301 0.0920381 0.0783975
215 1 0.923656 0.334198 0.391212
22 1 0.910781 0.0785257 0.00364222
669 1 0.845113 0.49679 0.494549
511 1 0.255994 0.488726 0.241875
20 1 0.67257 0.0673115 0.0746253
113 1 0.678109 0.172351 0.162039
194 1 0.0908967 0.407252 0.338305
523 1 0.766473 0.492922 0.244001
515 1 0.402721 0.488366 0.242301
24 1 0.82951 0.0762307 0.0772975
445 1 0.503842 0.491763 0.0121556
98 1 0.0892393 0.250711 0.166445
125 1 0.173778 0.326274 0.169525
101 1 0.170971 0.151209 0.163902
32 1 0.17618 0.251675 0.0886794
55 1 0.24853 0.328225 0.0830941
200 1 0.167011 0.418861 0.433172
36 1 0.327394 0.246433 0.0661171
35 1 0.418745 0.184519 0.0711512
59 1 0.414767 0.32802 0.080268
133 1 0.508323 0.327977 0.187651
208 1 0.497473 0.422001 0.406253
39 1 0.592129 0.164826 0.0889166
40 1 0.508549 0.257509 0.0815323
63 1 0.585852 0.330185 0.0762637
44 1 0.676262 0.253332 0.072763
43 1 0.742593 0.165114 0.0704684
114 1 0.756477 0.255909 0.161703
137 1 0.65409 0.345898 0.160662
28 1 0.000962361 0.237553 0.0846762
48 1 0.828766 0.250472 0.0765713
47 1 0.906892 0.16575 0.0763406
117 1 0.832206 0.171438 0.160612
97 1 0.00674358 0.151362 0.160633
118 1 0.932242 0.228834 0.178813
282 1 0.749981 0.412056 0.493487
286 1 0.909759 0.408699 0.487393
51 1 0.0781838 0.33097 0.0785818
56 1 0.175007 0.407094 0.075925
122 1 0.0965369 0.409208 0.162882
60 1 0.334041 0.408771 0.077331
192 1 0.8236 0.241124 0.415404
3 1 0.0972725 0.00623728 0.0635054
130 1 0.413314 0.398781 0.167926
64 1 0.494094 0.406698 0.0772963
443 1 0.409408 0.491151 0.0740685
68 1 0.668343 0.413864 0.069571
155 1 0.421607 0.00335211 0.405257
435 1 0.0808078 0.481923 0.0845264
91 1 0.745119 0.00564884 0.255598
67 1 0.741731 0.334583 0.0892918
138 1 0.748044 0.428296 0.160508
172 1 0.0238165 0.246455 0.418394
507 1 0.0841637 0.494688 0.25896
121 1 0.011946 0.318611 0.187302
52 1 0.998084 0.404069 0.0741719
71 1 0.927253 0.317019 0.0933791
72 1 0.838899 0.407274 0.0794922
142 1 0.930045 0.402953 0.166093
75 1 0.092304 0.0151161 0.242358
74 1 0.0957371 0.0791622 0.147309
146 1 0.0822888 0.0726541 0.337742
527 1 0.919162 0.480918 0.23594
253 1 0.508449 0.160233 0.493097
83 1 0.416898 0.00272793 0.241628
78 1 0.26069 0.0767811 0.157282
80 1 0.176904 0.0804628 0.240219
103 1 0.250862 0.171265 0.233394
150 1 0.251052 0.0829982 0.33538
50 1 0.0878091 0.408168 0.0010459
84 1 0.341719 0.10509 0.232602
88 1 0.507214 0.0911846 0.231089
177 1 0.333174 0.165717 0.323516
86 1 0.587994 0.0828831 0.151858
158 1 0.572969 0.0894831 0.322194
579 1 0.0938456 0.493048 0.417981
92 1 0.665154 0.0880171 0.234702
90 1 0.739433 0.0922075 0.154958
162 1 0.763417 0.0756115 0.337824
589 1 0.48778 0.49615 0.331196
25 1 0.99073 0.169609 0.00221682
76 1 0.998564 0.0857735 0.250049
96 1 0.835501 0.0707861 0.255317
94 1 0.918104 0.0823303 0.151655
119 1 0.917519 0.153804 0.258378
99 1 0.0915719 0.154069 0.227503
104 1 0.16569 0.243701 0.244764
123 1 0.10042 0.337123 0.251634
197 1 0.174815 0.299123 0.336704
102 1 0.265145 0.247684 0.160721
108 1 0.33213 0.25962 0.257117
201 1 0.334029 0.33157 0.342402
129 1 0.322546 0.336747 0.162371
106 1 0.42988 0.263568 0.172309
107 1 0.427825 0.175734 0.248395
131 1 0.420841 0.339895 0.25744
178 1 0.421333 0.246557 0.336964
181 1 0.496112 0.166759 0.321286
109 1 0.495097 0.179413 0.158891
110 1 0.602288 0.250791 0.169078
111 1 0.586109 0.164255 0.235405
112 1 0.511557 0.266576 0.27326
116 1 0.675436 0.243338 0.253741
135 1 0.593561 0.337755 0.249458
115 1 0.754736 0.144413 0.264061
139 1 0.73776 0.335246 0.231161
189 1 0.833466 0.159542 0.350328
186 1 0.735187 0.242657 0.337221
213 1 0.822317 0.319345 0.334157
100 1 0.986247 0.241217 0.268378
120 1 0.820582 0.225006 0.252283
190 1 0.911429 0.238501 0.340325
649 1 0.99631 0.488641 0.489466
124 1 0.0029009 0.414994 0.251015
128 1 0.177119 0.422765 0.244801
581 1 0.167841 0.494937 0.329705
451 1 0.76413 0.498323 0.075166
127 1 0.244157 0.327288 0.253091
126 1 0.249043 0.42747 0.154943
132 1 0.332168 0.412463 0.25664
87 1 0.58057 0.0131998 0.248916
585 1 0.33754 0.489811 0.336045
513 1 0.331534 0.490656 0.147822
278 1 0.572895 0.406104 0.486065
202 1 0.413284 0.41765 0.326476
597 1 0.838185 0.488339 0.324489
161 1 0.661651 0.012542 0.333651
134 1 0.580697 0.422323 0.162372
517 1 0.492606 0.496689 0.157658
136 1 0.505286 0.419005 0.246736
209 1 0.681246 0.335855 0.323505
149 1 0.165404 0.00512833 0.335493
204 1 0.329627 0.415515 0.425306
198 1 0.23884 0.395908 0.338703
140 1 0.669993 0.428789 0.253883
141 1 0.837755 0.326188 0.159194
143 1 0.907468 0.31768 0.24286
144 1 0.839797 0.408056 0.23764
38 1 0.583505 0.243959 0.000881774
216 1 0.832499 0.425149 0.412634
171 1 0.0803359 0.153281 0.413129
148 1 0.00767377 0.0720897 0.430261
153 1 0.338152 0.00364538 0.321063
152 1 0.166343 0.0779445 0.438498
525 1 0.843057 0.492551 0.157381
154 1 0.420435 0.0896929 0.318578
156 1 0.328704 0.0668733 0.405888
281 1 0.660343 0.331429 0.496697
93 1 0.811971 0.0125724 0.161436
160 1 0.505463 0.0859671 0.405361
183 1 0.585069 0.167371 0.412967
199 1 0.263561 0.319887 0.436665
69 1 0.831288 0.326743 0.00224407
212 1 0.673802 0.419157 0.424585
185 1 0.665001 0.156699 0.339496
164 1 0.669552 0.0840655 0.425245
265 1 0.00972778 0.334579 0.491573
214 1 0.91689 0.40548 0.316179
168 1 0.834199 0.0820691 0.421722
166 1 0.910561 0.072358 0.352242
169 1 0.995521 0.159457 0.336898
195 1 0.101841 0.331827 0.410043
170 1 0.0874271 0.220398 0.312924
176 1 0.162642 0.22268 0.419177
210 1 0.748391 0.421239 0.331654
226 1 0.411454 0.0659669 0.492021
173 1 0.171053 0.156099 0.333954
175 1 0.255503 0.154099 0.412965
174 1 0.253067 0.23356 0.341254
180 1 0.337899 0.242484 0.412078
205 1 0.505683 0.352965 0.332245
203 1 0.411376 0.344221 0.419079
179 1 0.416645 0.148735 0.411582
157 1 0.503597 0.00436673 0.315329
184 1 0.494914 0.253236 0.419403
207 1 0.576204 0.31911 0.414001
182 1 0.598885 0.244883 0.322395
211 1 0.747279 0.32846 0.416376
187 1 0.738919 0.163489 0.417475
206 1 0.601383 0.409155 0.344303
188 1 0.663251 0.253898 0.42586
193 1 0.0155982 0.328807 0.326861
191 1 0.930878 0.157794 0.416536
246 1 0.253116 0.223897 0.494795
587 1 0.406831 0.49437 0.42461
79 1 0.248878 0.00874455 0.250655
66 1 0.750518 0.414075 0.00555953
73 1 0.0112373 0.00589412 0.165434
509 1 0.158706 0.497462 0.16739
285 1 0.833251 0.327707 0.488662
151 1 0.235616 0.0111029 0.415748
577 1 0.000940713 0.486881 0.33047
250 1 0.411836 0.23856 0.49864
95 1 0.922422 0.00835244 0.229593
62 1 0.600047 0.437539 0.000976336
14 1 0.573812 0.0716268 0.000464632
53 1 0.177414 0.325296 0.00189607
437 1 0.169523 0.487587 0.0103845
243 1 0.0880029 0.15515 0.586976
220 1 0.985006 0.0757075 0.589427
663 1 0.579933 0.492007 0.581719
273 1 0.348119 0.327526 0.504022
224 1 0.170616 0.0732227 0.583708
228 1 0.333479 0.0771798 0.59435
811 1 0.731105 0.494728 0.92571
432 1 0.84096 0.428107 0.905323
57 1 0.334826 0.322116 0.98818
298 1 0.413062 0.101119 0.674964
251 1 0.421482 0.161334 0.584326
249 1 0.338474 0.143824 0.511795
242 1 0.0960714 0.255743 0.503948
232 1 0.504967 0.0771911 0.563535
236 1 0.672577 0.091198 0.576121
255 1 0.578072 0.164369 0.580899
2 1 0.0943747 0.0946114 0.985317
306 1 0.741442 0.0746053 0.670185
333 1 0.827616 0.170081 0.657561
218 1 0.0801073 0.0772452 0.518953
240 1 0.84684 0.0789562 0.583094
263 1 0.935326 0.179349 0.586336
310 1 0.922859 0.0841785 0.673912
217 1 0.976862 0.000611506 0.509445
267 1 0.0868734 0.332579 0.574651
248 1 0.167902 0.245863 0.609206
244 1 0.00215721 0.263504 0.586301
241 1 0.00964074 0.178857 0.501651
247 1 0.254146 0.159105 0.586164
651 1 0.0736625 0.492939 0.58986
271 1 0.26168 0.32496 0.570703
49 1 0.997492 0.321989 0.993655
227 1 0.422686 0.0138074 0.599043
252 1 0.338245 0.229346 0.575642
322 1 0.414457 0.235654 0.672016
270 1 0.250645 0.423062 0.508285
256 1 0.4977 0.243299 0.576741
353 1 0.681197 0.334341 0.668198
279 1 0.589739 0.332493 0.590038
65 1 0.674584 0.337352 0.999177
259 1 0.739536 0.184109 0.572441
260 1 0.668895 0.264954 0.579689
330 1 0.756176 0.252931 0.656281
41 1 0.659587 0.156053 0.997735
264 1 0.825976 0.252241 0.566033
334 1 0.897174 0.25053 0.662945
235 1 0.747575 0.00737701 0.587588
268 1 0.00188851 0.414141 0.585125
272 1 0.171284 0.400806 0.583098
269 1 0.16973 0.334898 0.502015
258 1 0.74816 0.255228 0.501542
342 1 0.256344 0.407327 0.672013
801 1 0.330591 0.490931 0.827221
276 1 0.34113 0.395987 0.606745
345 1 0.320522 0.316803 0.672179
275 1 0.417074 0.323274 0.593841
280 1 0.497534 0.406915 0.584676
346 1 0.436342 0.424377 0.684787
350 1 0.591657 0.423352 0.670747
274 1 0.416963 0.408642 0.513173
283 1 0.759513 0.337148 0.574032
284 1 0.670427 0.41389 0.575391
354 1 0.747831 0.421641 0.655125
803 1 0.425837 0.481678 0.917571
6 1 0.263677 0.096511 0.992556
287 1 0.91372 0.341023 0.582503
288 1 0.82683 0.420279 0.572017
797 1 0.159192 0.489296 0.83265
42 1 0.748574 0.242604 0.981409
222 1 0.252145 0.0839144 0.517832
653 1 0.171635 0.497257 0.510673
290 1 0.080188 0.0729977 0.661891
292 1 0.999357 0.0805758 0.757779
315 1 0.0873996 0.158821 0.762841
362 1 0.087659 0.0777949 0.844708
389 1 0.17427 0.159847 0.843735
294 1 0.230952 0.0747908 0.666317
296 1 0.172277 0.0817697 0.747701
366 1 0.260048 0.0790629 0.83235
30 1 0.248222 0.244454 0.994398
300 1 0.332861 0.0795577 0.741847
304 1 0.512803 0.0870663 0.745992
311 1 0.882022 0.000889789 0.755469
393 1 0.351644 0.168291 0.838052
325 1 0.514932 0.16322 0.663289
302 1 0.601942 0.0754065 0.650514
374 1 0.579812 0.0764682 0.836217
308 1 0.667692 0.0790849 0.745487
378 1 0.730868 0.0757403 0.825097
312 1 0.829447 0.0903883 0.738945
671 1 0.924766 0.498095 0.568057
313 1 0.0142712 0.168898 0.668998
335 1 0.922238 0.175887 0.741232
382 1 0.916179 0.0717649 0.817752
317 1 0.150446 0.152297 0.674801
314 1 0.0919574 0.260304 0.683473
339 1 0.0761823 0.338593 0.751759
320 1 0.174719 0.248037 0.756555
319 1 0.259469 0.15444 0.759922
321 1 0.318167 0.161804 0.668264
318 1 0.251098 0.241 0.676471
324 1 0.345086 0.242571 0.762858
323 1 0.425678 0.170292 0.759652
394 1 0.433761 0.245719 0.832378
397 1 0.509603 0.158387 0.832126
326 1 0.588797 0.246423 0.660082
329 1 0.675927 0.165496 0.660692
328 1 0.50989 0.236418 0.739438
327 1 0.583932 0.160323 0.741558
332 1 0.661825 0.257821 0.748264
401 1 0.650802 0.170584 0.826496
405 1 0.82828 0.161358 0.830482
331 1 0.738018 0.165043 0.757391
355 1 0.770767 0.353699 0.74522
402 1 0.747853 0.257068 0.844133
316 1 0.988979 0.259251 0.743434
336 1 0.819746 0.248461 0.748869
406 1 0.913577 0.255792 0.82154
429 1 0.832096 0.335658 0.833603
385 1 0.993262 0.172556 0.809338
338 1 0.0728705 0.408798 0.662451
340 1 0.976619 0.409148 0.743515
54 1 0.259991 0.410236 0.998387
341 1 0.165951 0.335144 0.674483
344 1 0.159711 0.412397 0.76136
343 1 0.249445 0.332323 0.755427
413 1 0.159691 0.332745 0.829949
414 1 0.246699 0.409185 0.838194
347 1 0.449903 0.32852 0.757969
348 1 0.346458 0.408274 0.737163
418 1 0.410675 0.424467 0.828379
349 1 0.499754 0.323169 0.658909
351 1 0.581808 0.333769 0.744991
352 1 0.510223 0.424141 0.762408
661 1 0.497719 0.486574 0.503631
357 1 0.822403 0.346349 0.657839
375 1 0.57769 0.00319313 0.921756
356 1 0.65514 0.422936 0.75202
426 1 0.750912 0.424877 0.836394
337 1 0.986015 0.337435 0.665231
358 1 0.917555 0.430417 0.655717
359 1 0.896292 0.336107 0.7346
409 1 0.999126 0.330874 0.82775
360 1 0.843523 0.44118 0.761971
387 1 0.0826201 0.165284 0.912594
364 1 0.00279357 0.0848799 0.930174
655 1 0.236657 0.486007 0.603427
727 1 0.227631 0.492919 0.737685
368 1 0.177599 0.0924808 0.920557
372 1 0.343485 0.0826542 0.906384
10 1 0.412831 0.0749588 0.994316
723 1 0.0674847 0.491979 0.733354
370 1 0.435757 0.0734198 0.824722
33 1 0.344484 0.174151 0.988253
395 1 0.439849 0.150362 0.917934
34 1 0.418073 0.252548 0.968894
430 1 0.930635 0.420482 0.836777
376 1 0.496859 0.0657832 0.915527
399 1 0.56778 0.152312 0.928713
380 1 0.664229 0.0724281 0.917128
384 1 0.841041 0.0831992 0.916636
403 1 0.748985 0.153753 0.906384
58 1 0.420208 0.41021 0.988142
238 1 0.92744 0.100447 0.502639
407 1 0.920314 0.15811 0.902212
386 1 0.0725597 0.242499 0.830073
392 1 0.149051 0.256894 0.906081
411 1 0.0677956 0.336324 0.916993
26 1 0.0865186 0.25097 0.987592
729 1 0.338216 0.492913 0.66589
45 1 0.822524 0.157197 0.991907
390 1 0.238438 0.249256 0.840879
391 1 0.269883 0.167151 0.897226
415 1 0.253672 0.326141 0.921447
233 1 0.675741 0.000827575 0.500066
396 1 0.335073 0.262663 0.893777
419 1 0.416847 0.341739 0.898906
400 1 0.507242 0.249658 0.914932
398 1 0.57686 0.244947 0.817437
423 1 0.606779 0.327388 0.916829
421 1 0.51748 0.335198 0.84238
741 1 0.822146 0.492491 0.660324
427 1 0.753528 0.343471 0.91879
441 1 0.343922 0.488748 0.994443
425 1 0.675883 0.334623 0.832329
404 1 0.659555 0.235559 0.921748
254 1 0.576718 0.24575 0.507845
225 1 0.330687 0.00512447 0.50033
388 1 0.99875 0.246559 0.919021
408 1 0.841467 0.252541 0.916781
431 1 0.916052 0.336847 0.899322
29 1 0.176147 0.173533 0.985569
412 1 0.00498856 0.424896 0.929354
410 1 0.0743749 0.417409 0.835548
18 1 0.745795 0.0735003 0.998006
417 1 0.334138 0.342128 0.827477
70 1 0.908018 0.412158 0.992477
416 1 0.171641 0.426593 0.92773
261 1 0.837345 0.164635 0.504729
245 1 0.162516 0.167079 0.502995
299 1 0.435439 0.0101307 0.737753
257 1 0.666702 0.176357 0.501799
420 1 0.322042 0.41817 0.912706
725 1 0.147151 0.489463 0.666164
46 1 0.907115 0.243275 0.996419
422 1 0.593166 0.415622 0.832093
424 1 0.52505 0.413723 0.913576
737 1 0.667563 0.496333 0.661338
428 1 0.661478 0.418518 0.917749
266 1 0.086569 0.415402 0.501577
234 1 0.755018 0.0880556 0.509311
61 1 0.511757 0.328941 0.99642
440 1 0.176114 0.581122 0.0813535
459 1 0.091653 0.681353 0.0748199
436 1 0.0114945 0.579301 0.0754425
674 1 0.0884494 0.757188 0.497804
463 1 0.260584 0.656819 0.0864425
510 1 0.247441 0.570768 0.169911
444 1 0.342877 0.588844 0.0820978
448 1 0.491932 0.578492 0.0914904
467 1 0.421902 0.658017 0.0748157
159 1 0.572364 0.993956 0.414196
599 1 0.923269 0.508344 0.39902
644 1 0.67449 0.912347 0.422348
471 1 0.578693 0.669916 0.0982058
452 1 0.665766 0.587801 0.0970557
545 1 0.646072 0.674893 0.190785
702 1 0.246193 0.926504 0.487361
456 1 0.840063 0.579062 0.0925189
475 1 0.743567 0.671874 0.105596
522 1 0.751205 0.586746 0.177213
521 1 0.665792 0.503998 0.169072
526 1 0.91679 0.565769 0.162505
689 1 0.662967 0.668311 0.491412
519 1 0.584927 0.500818 0.251829
529 1 0.0127656 0.666839 0.159309
501 1 0.836786 0.809574 0.00364945
530 1 0.101272 0.742729 0.164489
460 1 0.993239 0.745732 0.060339
533 1 0.163147 0.658516 0.158895
464 1 0.185174 0.751467 0.0762215
534 1 0.263823 0.74779 0.173947
468 1 0.337199 0.746922 0.0849723
538 1 0.4068 0.737878 0.172261
472 1 0.50958 0.756578 0.0921
565 1 0.496406 0.828185 0.176871
476 1 0.668731 0.749662 0.0980742
505 1 0.995752 0.506536 0.151182
549 1 0.836277 0.680255 0.187629
480 1 0.840123 0.732097 0.0933512
546 1 0.750971 0.761676 0.17835
569 1 0.659721 0.82202 0.175413
499 1 0.75522 0.819209 0.0917057
648 1 0.834702 0.91769 0.424662
479 1 0.919436 0.665943 0.084753
498 1 0.752522 0.890801 0.0138772
503 1 0.931138 0.830567 0.100236
550 1 0.923679 0.750781 0.171306
446 1 0.57814 0.588808 0.0102558
497 1 0.668699 0.813953 0.00522776
483 1 0.0945547 0.819201 0.0833474
557 1 0.184505 0.825087 0.167268
553 1 0.0200087 0.826431 0.15594
487 1 0.268927 0.826523 0.085778
488 1 0.179774 0.903505 0.0851734
163 1 0.759594 0.995602 0.422277
561 1 0.340465 0.828856 0.16592
491 1 0.419103 0.826699 0.0876975
492 1 0.339067 0.9148 0.0816275
562 1 0.414574 0.915001 0.174129
496 1 0.493524 0.909254 0.0770598
77 1 0.172629 0.992386 0.146959
434 1 0.086083 0.582563 0.00378972
495 1 0.587364 0.829516 0.0798811
500 1 0.669411 0.897206 0.0762967
566 1 0.581136 0.926249 0.16865
717 1 0.832138 0.83194 0.487144
713 1 0.669051 0.823565 0.483758
167 1 0.914395 0.987471 0.410015
573 1 0.842374 0.831989 0.163276
570 1 0.758352 0.9077 0.16442
504 1 0.845137 0.892551 0.0663012
595 1 0.75952 0.50459 0.412318
484 1 0.0181581 0.917222 0.0717228
229 1 0.497256 0.992418 0.498881
85 1 0.504403 0.997519 0.165367
506 1 0.0888751 0.574985 0.153925
508 1 0.999742 0.569987 0.245139
578 1 0.0836366 0.584569 0.34322
512 1 0.154803 0.573247 0.256328
516 1 0.329853 0.574572 0.253925
605 1 0.157221 0.657224 0.343167
541 1 0.491659 0.661621 0.155862
514 1 0.408859 0.58003 0.169857
586 1 0.399192 0.573864 0.341216
520 1 0.469985 0.562885 0.247783
539 1 0.413938 0.651641 0.256728
461 1 0.183471 0.660228 0.00593445
518 1 0.570038 0.578465 0.17027
590 1 0.576348 0.582524 0.335879
543 1 0.552723 0.65874 0.252974
474 1 0.748838 0.739375 0.019384
524 1 0.666563 0.586846 0.24505
547 1 0.744671 0.688689 0.253239
617 1 0.659479 0.65203 0.327701
528 1 0.846703 0.58496 0.235836
594 1 0.75739 0.584154 0.313919
23 1 0.932053 0.990919 0.0814934
621 1 0.844335 0.681716 0.319025
21 1 0.829174 0.994355 0.00571267
449 1 0.679785 0.526675 0.0144947
531 1 0.0714267 0.644862 0.251091
555 1 0.105 0.829939 0.236001
625 1 0.00428649 0.835253 0.328015
537 1 0.329687 0.656609 0.188807
535 1 0.235355 0.640054 0.262336
536 1 0.184035 0.754052 0.271237
540 1 0.320123 0.750769 0.259796
613 1 0.484158 0.655292 0.342802
544 1 0.490417 0.74863 0.25976
542 1 0.575296 0.754237 0.174491
614 1 0.572256 0.752125 0.327449
548 1 0.659882 0.755013 0.265482
571 1 0.755983 0.840363 0.246071
618 1 0.748217 0.761345 0.335997
551 1 0.929182 0.667059 0.246245
552 1 0.835392 0.767553 0.243146
532 1 0.0173403 0.761597 0.239018
575 1 0.925515 0.836428 0.242472
622 1 0.929713 0.758805 0.325032
645 1 0.832235 0.839886 0.341028
601 1 0.00411864 0.654964 0.335711
554 1 0.0847102 0.921062 0.166955
626 1 0.0736399 0.911246 0.331028
560 1 0.175757 0.929465 0.249009
556 1 0.0164594 0.911132 0.241514
558 1 0.255962 0.911198 0.16181
559 1 0.259209 0.843978 0.259461
563 1 0.419152 0.840633 0.253372
633 1 0.333472 0.8462 0.349027
634 1 0.412646 0.915148 0.332403
564 1 0.335575 0.919414 0.246147
494 1 0.590348 0.905963 0.00743653
567 1 0.576904 0.837069 0.267042
638 1 0.575786 0.915933 0.334069
568 1 0.485887 0.922336 0.248064
572 1 0.663414 0.910254 0.247963
81 1 0.328556 0.993859 0.152988
481 1 0.0117264 0.830295 0.00011112
642 1 0.742302 0.926225 0.32124
470 1 0.583293 0.747351 0.0132222
574 1 0.925296 0.911347 0.166989
576 1 0.827893 0.912343 0.248622
646 1 0.910147 0.907252 0.328194
603 1 0.0924171 0.660857 0.432027
11 1 0.420607 0.998387 0.0851533
580 1 0.999906 0.577778 0.416103
450 1 0.752602 0.603962 0.0202932
582 1 0.259581 0.567156 0.33374
584 1 0.175587 0.581087 0.416308
697 1 0.00113358 0.824589 0.486937
607 1 0.251285 0.666719 0.418113
588 1 0.338115 0.584297 0.427493
447 1 0.590936 0.50726 0.0858463
439 1 0.2644 0.511923 0.0684011
89 1 0.669467 0.993298 0.164795
592 1 0.502551 0.558285 0.419711
145 1 0.983962 0.998798 0.325225
596 1 0.647213 0.584767 0.42006
165 1 0.832756 0.990414 0.336025
583 1 0.243338 0.50234 0.415699
600 1 0.832481 0.591894 0.403899
619 1 0.741499 0.655427 0.404939
7 1 0.24839 0.996861 0.0705578
693 1 0.831551 0.674853 0.495225
623 1 0.914204 0.661404 0.40169
598 1 0.925098 0.584797 0.320332
15 1 0.586418 0.994381 0.0787661
629 1 0.171412 0.844773 0.323835
602 1 0.0832838 0.754872 0.321463
627 1 0.0870369 0.835562 0.402406
608 1 0.162844 0.762216 0.405068
606 1 0.252047 0.74578 0.349608
612 1 0.328467 0.74673 0.421418
609 1 0.33113 0.663766 0.333252
610 1 0.410581 0.760133 0.331903
19 1 0.736878 0.987834 0.0696744
611 1 0.395384 0.670271 0.414153
635 1 0.398575 0.836312 0.419068
710 1 0.581631 0.919388 0.494125
639 1 0.566271 0.83433 0.406496
593 1 0.675026 0.514975 0.32789
637 1 0.485084 0.826636 0.334526
641 1 0.657651 0.844756 0.342973
615 1 0.568319 0.662852 0.428079
616 1 0.502415 0.742246 0.41332
624 1 0.844426 0.75215 0.402497
620 1 0.642255 0.748647 0.400178
643 1 0.752333 0.830733 0.418408
690 1 0.743209 0.744186 0.486124
647 1 0.913974 0.82774 0.408353
694 1 0.911764 0.759234 0.494087
604 1 0.0131833 0.738548 0.404926
628 1 0.996945 0.90368 0.412817
682 1 0.410196 0.753259 0.49888
630 1 0.257067 0.930368 0.329344
482 1 0.0954536 0.907118 0.00606048
477 1 0.837061 0.662577 0.00405829
632 1 0.174815 0.910384 0.408877
631 1 0.244428 0.832432 0.412332
640 1 0.489867 0.920303 0.405817
636 1 0.339537 0.932009 0.420163
147 1 0.0854701 0.999058 0.415241
686 1 0.58131 0.751404 0.499782
718 1 0.922526 0.901446 0.499858
652 1 0.990915 0.576648 0.578774
677 1 0.161022 0.645569 0.513496
675 1 0.0802204 0.658135 0.578826
749 1 0.163196 0.670628 0.66724
722 1 0.065051 0.577747 0.674847
799 1 0.247463 0.507605 0.917195
656 1 0.158071 0.575959 0.603035
726 1 0.247708 0.582589 0.685432
660 1 0.338218 0.570386 0.589463
679 1 0.258039 0.671656 0.585506
493 1 0.493339 0.82534 0.99682
730 1 0.413628 0.588186 0.68
683 1 0.39972 0.665683 0.588689
9 1 0.329487 0.993889 0.992102
301 1 0.511065 0.988202 0.659552
466 1 0.424612 0.739485 0.999319
363 1 0.094535 0.995966 0.915576
664 1 0.488637 0.597264 0.586333
734 1 0.58971 0.58355 0.666408
757 1 0.502086 0.666609 0.665453
668 1 0.667679 0.56658 0.578107
738 1 0.746474 0.576529 0.654086
856 1 0.524666 0.904526 0.920728
672 1 0.840832 0.56532 0.582918
695 1 0.914963 0.668969 0.565635
765 1 0.8331 0.678398 0.645024
745 1 0.99413 0.66336 0.64545
680 1 0.162247 0.743058 0.580923
377 1 0.667814 0.992557 0.846489
746 1 0.0779019 0.743924 0.653951
454 1 0.919744 0.587491 0.995569
373 1 0.508286 0.980545 0.835804
703 1 0.258803 0.820425 0.587044
753 1 0.328108 0.669022 0.678245
684 1 0.338416 0.746008 0.596841
777 1 0.330547 0.826354 0.663015
860 1 0.6607 0.914296 0.909924
754 1 0.410261 0.74264 0.677382
707 1 0.411153 0.827633 0.587496
687 1 0.581119 0.660808 0.578862
688 1 0.500008 0.749567 0.590969
711 1 0.582062 0.831261 0.571231
758 1 0.589472 0.757165 0.656377
303 1 0.586984 0.992258 0.757778
692 1 0.662261 0.751775 0.57989
691 1 0.746686 0.672153 0.565575
715 1 0.736972 0.830639 0.569482
676 1 0.998157 0.752224 0.574579
696 1 0.818654 0.752324 0.568834
719 1 0.911964 0.825272 0.573982
699 1 0.072449 0.838603 0.582382
700 1 0.993017 0.910916 0.569503
773 1 0.169468 0.831771 0.643432
795 1 0.0767715 0.504856 0.925015
769 1 0.998507 0.824054 0.667774
685 1 0.485244 0.676771 0.510007
704 1 0.16563 0.925333 0.583184
774 1 0.255934 0.909637 0.664455
708 1 0.329159 0.892767 0.577526
458 1 0.0810625 0.748433 0.988607
1 1 0.0130285 0.995551 0.98829
465 1 0.350517 0.66051 0.991679
712 1 0.505464 0.902187 0.578374
781 1 0.506252 0.831133 0.673186
778 1 0.419629 0.916148 0.64514
369 1 0.333443 0.988574 0.829962
782 1 0.583031 0.915668 0.65408
237 1 0.849076 0.994839 0.502281
716 1 0.659787 0.912378 0.575134
650 1 0.0744696 0.568444 0.502268
854 1 0.586318 0.90236 0.821397
720 1 0.834617 0.90603 0.572837
790 1 0.921929 0.904466 0.669803
442 1 0.428596 0.580165 0.988605
794 1 0.0792161 0.579849 0.831601
728 1 0.158799 0.589461 0.747576
724 1 0.99075 0.603691 0.748369
381 1 0.822494 0.982863 0.836345
844 1 0.011691 0.915584 0.913166
805 1 0.521088 0.50398 0.832049
654 1 0.260101 0.568808 0.506136
751 1 0.239582 0.660233 0.745904
732 1 0.336285 0.583055 0.757752
798 1 0.255984 0.587385 0.826882
755 1 0.40922 0.662412 0.756591
809 1 0.66497 0.503703 0.834022
802 1 0.439428 0.577557 0.850474
731 1 0.432991 0.506396 0.755991
761 1 0.67842 0.654425 0.651142
736 1 0.495256 0.598212 0.757983
759 1 0.578508 0.672528 0.733385
289 1 0.987372 0.998524 0.677012
733 1 0.504105 0.512546 0.662279
740 1 0.667463 0.59721 0.742506
763 1 0.758652 0.66242 0.726673
837 1 0.82123 0.666312 0.832235
744 1 0.826705 0.578504 0.727731
833 1 0.671682 0.668492 0.828717
742 1 0.91183 0.588795 0.65984
453 1 0.850151 0.506734 0.999648
767 1 0.905973 0.667531 0.74869
379 1 0.748684 0.99373 0.914863
747 1 0.085535 0.679148 0.74576
748 1 0.00305794 0.7487 0.746192
818 1 0.078152 0.749774 0.827679
752 1 0.168494 0.755498 0.744671
825 1 0.351904 0.662802 0.839671
750 1 0.249828 0.739034 0.677847
775 1 0.255138 0.823407 0.740321
822 1 0.247472 0.745775 0.840642
756 1 0.334848 0.75311 0.754162
779 1 0.404707 0.824087 0.741741
857 1 0.657715 0.82527 0.830703
760 1 0.485404 0.756553 0.751058
764 1 0.672707 0.74068 0.741807
783 1 0.581061 0.815665 0.752138
853 1 0.511725 0.831491 0.836342
830 1 0.593851 0.738082 0.828424
762 1 0.751149 0.761275 0.65741
785 1 0.673715 0.838812 0.660716
787 1 0.753527 0.835013 0.739184
834 1 0.747243 0.744011 0.817898
789 1 0.827388 0.823605 0.664553
766 1 0.913147 0.745108 0.661751
768 1 0.835648 0.742386 0.747034
838 1 0.909721 0.754047 0.82824
861 1 0.824117 0.825237 0.824984
383 1 0.914897 0.984001 0.921246
771 1 0.0867063 0.819255 0.743669
770 1 0.0732612 0.924369 0.664855
772 1 0.986326 0.917282 0.764327
776 1 0.162035 0.897431 0.744613
371 1 0.413991 0.983588 0.917618
365 1 0.161667 0.980267 0.831031
780 1 0.330436 0.914759 0.743019
367 1 0.238449 0.998528 0.913913
485 1 0.180173 0.822647 0.997102
784 1 0.516725 0.911619 0.741105
788 1 0.665971 0.902918 0.748108
307 1 0.74958 0.995128 0.756082
786 1 0.75135 0.917474 0.658919
858 1 0.750368 0.905591 0.831607
705 1 0.331238 0.820701 0.502503
673 1 0.00100492 0.668883 0.500814
841 1 0.994714 0.834052 0.833282
791 1 0.910971 0.825604 0.746275
792 1 0.837823 0.905158 0.738275
862 1 0.901805 0.904195 0.829938
813 1 0.826862 0.515963 0.839017
796 1 0.994453 0.580347 0.910472
478 1 0.925135 0.744029 0.986427
819 1 0.0892864 0.656531 0.929347
815 1 0.912663 0.505772 0.920092
800 1 0.165068 0.581076 0.932381
804 1 0.348493 0.566505 0.907749
823 1 0.261463 0.659274 0.910065
309 1 0.824543 0.995391 0.661157
827 1 0.428963 0.680563 0.908752
808 1 0.516167 0.573796 0.921002
297 1 0.345312 0.994981 0.665716
806 1 0.579853 0.59667 0.812579
831 1 0.573811 0.676957 0.919792
812 1 0.643498 0.606671 0.91622
735 1 0.582823 0.512651 0.740919
657 1 0.332275 0.502849 0.502985
810 1 0.733909 0.586534 0.830642
816 1 0.821648 0.579913 0.931001
807 1 0.607027 0.506512 0.923743
743 1 0.919922 0.51308 0.741012
839 1 0.902795 0.660945 0.913053
658 1 0.416531 0.579384 0.509861
817 1 0.988679 0.675594 0.832653
814 1 0.907246 0.58999 0.82444
502 1 0.933832 0.912102 0.993544
843 1 0.0786917 0.828658 0.91964
824 1 0.165184 0.740442 0.906648
864 1 0.822263 0.899118 0.925146
847 1 0.254805 0.823527 0.908195
462 1 0.278343 0.748252 0.997942
821 1 0.163907 0.656353 0.835394
828 1 0.337037 0.757804 0.911391
849 1 0.331529 0.835866 0.833788
851 1 0.422142 0.835861 0.922079
438 1 0.26693 0.585836 0.996959
486 1 0.247067 0.900259 0.990586
826 1 0.421813 0.763316 0.836975
829 1 0.496775 0.674342 0.830093
855 1 0.591303 0.816151 0.929507
832 1 0.504128 0.750926 0.918835
836 1 0.666727 0.736332 0.91129
469 1 0.498263 0.664318 0.994668
835 1 0.747793 0.662791 0.917236
859 1 0.734062 0.82061 0.913085
840 1 0.837065 0.748345 0.92116
863 1 0.920424 0.823209 0.908601
820 1 0.000943685 0.74719 0.90569
457 1 0.00459278 0.657168 0.99345
842 1 0.0775073 0.906254 0.827565
13 1 0.495926 0.991057 0.995965
681 1 0.333727 0.658287 0.502972
293 1 0.162128 0.996619 0.673811
848 1 0.167263 0.903364 0.906389
846 1 0.236821 0.904317 0.832241
845 1 0.163981 0.830914 0.827894
850 1 0.419341 0.900699 0.832328
852 1 0.334399 0.905381 0.915546
5 1 0.174122 0.981301 0.989263
473 1 0.660335 0.675676 0.995284
223 1 0.25984 0.999436 0.585925
662 1 0.570103 0.574159 0.506977
433 1 0.997778 0.509673 0.989383
291 1 0.078225 0.995098 0.754085
17 1 0.66233 0.996635 0.992934
739 1 0.743381 0.505731 0.748434
231 1 0.590775 0.997996 0.563024
706 1 0.407667 0.92748 0.508004
678 1 0.255178 0.753161 0.508504
698 1 0.077495 0.915889 0.502561
489 1 0.345066 0.838014 0.994766
305 1 0.660584 0.98143 0.674535
239 1 0.910641 0.975794 0.59686
490 1 0.411395 0.915837 0.999736
295 1 0.244593 0.997943 0.749981
793 1 0.999073 0.506568 0.838178
667 1 0.75507 0.501277 0.577539
219 1 0.055432 0.998712 0.589507
659 1 0.425604 0.50818 0.586525
721 1 0.989813 0.500162 0.655907
361 1 0.0042223 0.995627 0.842238
221 1 0.160766 0.989809 0.501831
665 1 0.673862 0.504729 0.500858
666 1 0.766723 0.586221 0.500767
670 1 0.917464 0.583833 0.500858
709 1 0.492579 0.826851 0.502969
714 1 0.753407 0.919512 0.511136
701 1 0.182447 0.834961 0.505223
