ITEM: TIMESTEP
10000
ITEM: NUMBER OF ATOMS
864
ITEM: BOX BOUNDS pp pp pp
0.0000000000000000e+00 3.1559999999999999e+01
0.0000000000000000e+00 3.1559999999999999e+01
0.0000000000000000e+00 3.1559999999999999e+01
ITEM: ATOMS id type xs ys zs
27 1 0.0903747 0.1595 0.088719
8 1 0.161651 0.0810405 0.0869813
25 1 0.0150314 0.167633 -0.0043307
12 1 0.345837 0.0728307 0.0887881
31 1 0.256497 0.155015 0.0980071
150 1 0.249352 0.0822984 0.181875
153 1 0.336648 0.998016 0.171562
173 1 0.161517 0.156992 0.179599
29 1 0.160896 0.15125 0.00543957
154 1 0.423736 0.069287 0.170979
16 1 0.497152 0.0845233 0.0744794
11 1 0.420647 1.00003 0.0931098
177 1 0.324359 0.166534 0.175256
37 1 0.499589 0.187302 0.0133193
15 1 0.572761 1.00074 0.0784074
20 1 0.684984 0.0968434 0.082098
158 1 0.589743 0.0875686 0.162005
181 1 0.505165 0.174233 0.151439
14 1 0.57599 0.0908183 -0.0119009
41 1 0.659353 0.166637 0.990977
43 1 0.769795 0.174873 0.101485
45 1 0.836173 0.173959 0.0028907
4 1 0.0105998 0.0888147 0.0806701
24 1 0.836032 0.0933307 0.0682414
47 1 0.93331 0.167886 0.0877119
23 1 0.929536 0.996046 0.0933834
1 1 0.993657 1.0115 0.000200881
51 1 0.0790288 0.350309 0.101985
193 1 0.992704 0.342311 0.174377
170 1 0.0998731 0.258424 0.161432
49 1 0.0119294 0.331122 1.00693
32 1 0.185087 0.242872 0.102511
174 1 0.250319 0.253768 0.187645
30 1 0.265262 0.246022 0.0091805
57 1 0.332541 0.342413 0.00115558
35 1 0.405633 0.169368 0.0772803
36 1 0.319712 0.240906 0.100855
59 1 0.411624 0.343412 0.0929066
34 1 0.413222 0.258898 0.0076609
39 1 0.586548 0.161542 0.0862626
40 1 0.490756 0.260928 0.0903112
61 1 0.496393 0.345294 0.00582224
63 1 0.587009 0.321951 0.100949
182 1 0.596254 0.227894 0.1615
185 1 0.67906 0.150127 0.172503
38 1 0.578382 0.252047 0.00306367
189 1 0.851491 0.171827 0.184901
44 1 0.662884 0.235858 0.0766228
186 1 0.769114 0.252768 0.18725
209 1 0.666688 0.309802 0.16514
48 1 0.847984 0.253128 0.0907209
67 1 0.753562 0.325142 0.0991861
28 1 0.0176494 0.241948 0.0791178
71 1 0.930897 0.319607 0.0653767
190 1 0.92925 0.249998 0.174846
213 1 0.839531 0.332601 0.175484
75 1 0.0830961 0.478613 0.0831009
52 1 0.992387 0.415503 0.0775949
194 1 0.0951626 0.405188 0.192592
217 1 1.00491 0.497476 0.158439
50 1 0.0856074 0.416041 -0.00499583
56 1 0.165073 0.419795 0.101915
55 1 0.254875 0.346154 0.0882667
79 1 0.25191 0.491453 0.0924085
53 1 0.177869 0.32934 0.00301528
54 1 0.26263 0.427012 -0.00621857
60 1 0.338214 0.43249 0.0825183
64 1 0.505258 0.421948 0.0941614
83 1 0.420977 0.501758 0.0729199
87 1 0.594962 0.482365 0.0944884
233 1 0.670014 0.484657 0.169623
206 1 0.592334 0.409834 0.175522
62 1 0.590987 0.420969 -0.00260407
89 1 0.693796 0.488778 1.00772
68 1 0.679623 0.412377 0.0892854
66 1 0.757826 0.409519 -0.000429612
91 1 0.766713 0.470517 0.084388
210 1 0.763113 0.405506 0.176111
72 1 0.83998 0.396741 0.0903658
95 1 0.915769 0.503356 0.0863716
70 1 0.928815 0.428337 -0.00825441
214 1 0.905976 0.413828 0.163795
73 1 0.0188315 0.498695 0.987175
99 1 0.0967157 0.667597 0.0841248
76 1 0.0118472 0.564871 0.0756328
74 1 0.0860017 0.588112 -0.00166739
80 1 0.168232 0.575772 0.0785598
78 1 0.261612 0.568266 1.01627
103 1 0.242003 0.664766 0.0761549
221 1 0.178214 0.507952 0.161827
77 1 0.161919 0.483637 0.0144227
84 1 0.351035 0.578678 0.0801654
107 1 0.430514 0.658206 0.0831956
81 1 0.340639 0.500021 0.995798
82 1 0.421466 0.573884 0.990496
229 1 0.506693 0.501361 0.16521
88 1 0.500584 0.574633 0.0786498
86 1 0.598839 0.560866 0.998902
109 1 0.499778 0.668101 1.00285
230 1 0.584936 0.57857 0.168434
92 1 0.653619 0.574827 0.0860003
234 1 0.749889 0.57702 0.160694
90 1 0.746846 0.594383 0.980978
93 1 0.825729 0.504293 0.986863
96 1 0.829501 0.584427 0.0684301
94 1 0.925363 0.56625 1.00096
117 1 0.817221 0.677109 1.00501
261 1 0.825608 0.656902 0.166795
97 1 1.00619 0.655769 1.01806
241 1 1.01381 0.66476 0.161281
242 1 0.0848475 0.756454 0.182165
104 1 0.182509 0.749538 0.0881677
98 1 0.0759992 0.754796 0.999315
246 1 0.260459 0.734906 0.171415
102 1 0.25043 0.751615 0.995628
108 1 0.333568 0.754052 0.0883103
127 1 0.248378 0.833004 0.0990648
269 1 0.171869 0.842752 0.170049
249 1 0.351205 0.662563 0.162542
112 1 0.525114 0.739178 0.0853054
131 1 0.421339 0.834951 0.090334
250 1 0.431431 0.753959 0.158763
273 1 0.326564 0.832138 0.169301
105 1 0.321825 0.653038 0.991537
106 1 0.424778 0.752579 1.00966
133 1 0.496663 0.837639 0.994052
111 1 0.580941 0.65402 0.0826593
110 1 0.587473 0.749777 0.99219
137 1 0.661423 0.822779 0.991272
281 1 0.669112 0.832647 0.161181
116 1 0.659904 0.749918 0.0808377
115 1 0.742702 0.669959 0.0756462
114 1 0.748094 0.755719 0.983396
258 1 0.746938 0.747569 0.152664
257 1 0.676924 0.661882 0.165138
119 1 0.915764 0.673023 0.0852931
120 1 0.829264 0.734128 0.0847244
100 1 1.00437 0.747308 0.0944868
118 1 0.931188 0.74931 0.00394734
265 1 0.00879191 0.824588 0.162276
3 1 0.0855505 1.00514 0.0922688
123 1 0.0878656 0.820755 0.096329
266 1 0.0842969 0.905274 0.159932
122 1 0.0901528 0.90014 1.0083
128 1 0.168063 0.910405 0.0825957
7 1 0.252925 1.00332 0.0969094
149 1 0.159597 0.997779 0.180812
270 1 0.252693 0.920489 0.175734
132 1 0.34033 0.914488 0.0915138
136 1 0.509546 0.918551 0.0867442
130 1 0.403758 0.912094 0.00171394
135 1 0.587327 0.837845 0.0646352
134 1 0.582001 0.920898 0.991953
140 1 0.657517 0.911886 0.0571592
19 1 0.760176 0.00918231 0.0755064
139 1 0.739935 0.827814 0.0725603
138 1 0.739628 0.934148 1.0004
165 1 0.837799 0.990298 0.16175
282 1 0.761092 0.907827 0.157046
124 1 0.0120109 0.917192 0.0754205
143 1 0.920514 0.824438 0.0873757
144 1 0.833919 0.911858 0.0776356
121 1 1.00595 0.831488 -0.00487647
146 1 0.0817233 0.0831824 0.180692
171 1 0.0897616 0.176772 0.251915
169 1 0.0152027 0.172722 0.166137
148 1 0.0167634 0.0960072 0.268899
313 1 0.0174671 0.174933 0.353841
152 1 0.173966 0.076564 0.261099
151 1 0.253751 0.000765424 0.255565
175 1 0.259187 0.165795 0.261341
317 1 0.177929 0.169631 0.342648
156 1 0.340958 0.0773846 0.236825
155 1 0.425949 0.992954 0.252408
179 1 0.440434 0.163944 0.261255
301 1 0.508794 0.991921 0.320826
160 1 0.508941 0.0895852 0.237231
302 1 0.591249 0.0737628 0.335077
162 1 0.769787 0.0846353 0.164602
164 1 0.670168 0.0676607 0.250227
163 1 0.743217 0.986147 0.247144
166 1 0.938935 0.0779809 0.167293
168 1 0.834028 0.0489255 0.25343
191 1 0.930669 0.158072 0.2486
195 1 0.0861782 0.312736 0.244808
172 1 1.00048 0.258864 0.24613
176 1 0.170384 0.246591 0.265859
199 1 0.273366 0.342036 0.254605
341 1 0.184629 0.332134 0.327715
201 1 0.346897 0.347696 0.172209
178 1 0.405432 0.248949 0.162652
180 1 0.347515 0.24912 0.261483
203 1 0.415562 0.351948 0.258941
322 1 0.433195 0.249828 0.332187
349 1 0.503675 0.340449 0.321932
205 1 0.495185 0.34366 0.174453
183 1 0.596422 0.160584 0.260657
325 1 0.512397 0.158167 0.341577
184 1 0.501923 0.248518 0.231171
188 1 0.686753 0.234589 0.256485
326 1 0.591568 0.245419 0.338932
187 1 0.770282 0.152484 0.249921
192 1 0.845376 0.248818 0.26756
211 1 0.756795 0.323462 0.260372
215 1 0.913421 0.335142 0.246916
357 1 0.857188 0.336512 0.354073
196 1 -0.00853882 0.428636 0.246506
219 1 0.078333 0.512432 0.245214
361 1 0.0100325 0.482273 0.337184
197 1 0.185076 0.332494 0.17237
200 1 0.183313 0.424315 0.254666
365 1 0.165137 0.505118 0.320925
198 1 0.260189 0.426521 0.1716
204 1 0.338596 0.438722 0.257361
202 1 0.413604 0.432588 0.166259
225 1 0.335157 0.507618 0.157976
208 1 0.489585 0.436639 0.256513
373 1 0.493219 0.508966 0.341906
227 1 0.419929 0.519509 0.247866
346 1 0.422967 0.436269 0.343742
369 1 0.34879 0.505995 0.338364
207 1 0.594081 0.322022 0.253019
231 1 0.578427 0.504501 0.245122
350 1 0.570402 0.429051 0.326852
212 1 0.670252 0.399528 0.250834
235 1 0.762334 0.499436 0.250849
354 1 0.754659 0.420429 0.350678
381 1 0.837524 0.499312 0.354438
237 1 0.829495 0.497324 0.164347
216 1 0.831876 0.402819 0.268612
358 1 0.916549 0.417359 0.332112
239 1 0.93449 0.518075 0.260468
218 1 0.0883265 0.581033 0.15784
220 1 0.00483334 0.58969 0.246146
362 1 0.0786858 0.586387 0.329409
389 1 0.176636 0.657117 0.336555
222 1 0.261998 0.588247 0.153651
223 1 0.243649 0.517629 0.25501
224 1 0.154563 0.591653 0.24989
226 1 0.425803 0.588223 0.156667
228 1 0.339082 0.588465 0.234507
253 1 0.509433 0.670761 0.171063
232 1 0.504067 0.586794 0.260905
255 1 0.589665 0.669615 0.262107
236 1 0.659147 0.584309 0.248126
397 1 0.509543 0.667519 0.339013
259 1 0.739351 0.647471 0.26488
378 1 0.733606 0.569538 0.341345
405 1 0.834213 0.657044 0.360382
238 1 0.913444 0.59383 0.158591
240 1 0.835064 0.592079 0.272409
382 1 0.916071 0.587924 0.340605
243 1 0.0818223 0.672181 0.255478
245 1 0.177242 0.666597 0.180369
247 1 0.249961 0.658239 0.255125
248 1 0.173912 0.758399 0.25406
251 1 0.423111 0.665842 0.256509
252 1 0.352138 0.739853 0.237522
394 1 0.434586 0.746096 0.339835
275 1 0.431683 0.819971 0.239484
421 1 0.507782 0.841662 0.330516
277 1 0.522518 0.835156 0.166419
256 1 0.506143 0.753096 0.256832
254 1 0.581769 0.749043 0.178748
398 1 0.582444 0.767466 0.338647
260 1 0.676777 0.741519 0.242039
402 1 0.734334 0.727105 0.335519
262 1 0.898403 0.734903 0.174813
244 1 0.993682 0.743126 0.249941
264 1 0.810263 0.724912 0.253715
263 1 0.9196 0.66435 0.254549
287 1 0.91976 0.822688 0.241441
145 1 0.00657342 0.980289 0.166452
147 1 0.0807134 0.00579022 0.263972
409 1 0.0014229 0.825031 0.335619
267 1 0.0837746 0.842837 0.249037
268 1 0.000268554 0.911392 0.246222
410 1 0.0792336 0.901581 0.342876
272 1 0.174351 0.915355 0.251691
271 1 0.262522 0.818979 0.260394
413 1 0.171441 0.841314 0.333808
274 1 0.412645 0.92115 0.17411
276 1 0.342651 0.912351 0.256368
280 1 0.498118 0.915056 0.236119
418 1 0.418967 0.911087 0.342902
157 1 0.500952 0.994997 0.169618
278 1 0.582831 0.915006 0.171009
159 1 0.5835 0.999739 0.241023
279 1 0.586024 0.828093 0.248816
422 1 0.587617 0.919394 0.324027
161 1 0.675648 1.00991 0.160377
284 1 0.66074 0.910259 0.239617
283 1 0.747029 0.844242 0.243133
288 1 0.836344 0.904342 0.250887
429 1 0.823784 0.811599 0.334876
167 1 0.932955 0.990793 0.240946
285 1 0.822378 0.825918 0.161705
286 1 0.908949 0.912611 0.162383
430 1 0.910714 0.897389 0.338884
289 1 0.9899 0.985388 0.329403
290 1 0.0979162 0.0970656 0.337933
296 1 0.168767 0.0820123 0.429574
315 1 0.0932236 0.174972 0.434464
293 1 0.171849 1.01058 0.338833
291 1 0.0944974 0.00109169 0.425346
294 1 0.252543 0.0862991 0.330016
319 1 0.248418 0.168451 0.423346
295 1 0.262737 0.00831347 0.420247
297 1 0.341739 0.00839141 0.324306
321 1 0.335232 0.169969 0.329101
300 1 0.335228 0.0881444 0.407554
465 1 0.320389 0.16725 0.499081
298 1 0.432513 0.0788381 0.336784
442 1 0.430708 0.088062 0.491126
323 1 0.422273 0.166983 0.410631
304 1 0.508548 0.0759565 0.416916
308 1 0.683912 0.0680299 0.415903
327 1 0.60492 0.16142 0.406566
469 1 0.514667 0.171278 0.470363
329 1 0.683276 0.143577 0.326726
306 1 0.77309 0.0768391 0.342109
312 1 0.843614 0.0770681 0.417588
310 1 0.92128 0.0741852 0.341307
292 1 0.0126959 0.0782621 0.430511
454 1 0.919845 0.085982 0.514267
314 1 0.0978624 0.24746 0.3406
316 1 0.00749934 0.251775 0.418785
339 1 0.0984949 0.329056 0.422393
458 1 0.0813906 0.240528 0.516129
457 1 1.00551 0.170041 0.494539
481 1 0.0164799 0.321762 0.502758
318 1 0.257412 0.258932 0.345116
320 1 0.168969 0.263755 0.434531
462 1 0.259179 0.251221 0.491104
343 1 0.271057 0.345601 0.416479
485 1 0.180808 0.348077 0.50399
345 1 0.343842 0.345072 0.337564
324 1 0.340039 0.253776 0.407356
347 1 0.410455 0.336171 0.421496
493 1 0.490085 0.332853 0.493201
328 1 0.509564 0.244865 0.40335
332 1 0.679353 0.24926 0.406772
351 1 0.587599 0.335016 0.410005
330 1 0.747851 0.238267 0.336324
353 1 0.679547 0.343167 0.337995
331 1 0.74989 0.155598 0.435678
474 1 0.751038 0.248002 0.497157
333 1 0.85328 0.157991 0.324089
473 1 0.6698 0.173897 0.496539
335 1 0.922563 0.157692 0.418131
334 1 0.924908 0.241732 0.328102
336 1 0.834785 0.231375 0.403586
359 1 0.933519 0.333735 0.419534
478 1 0.914902 0.242035 0.486031
501 1 0.837604 0.324204 0.492251
338 1 0.0936868 0.406297 0.305951
482 1 0.0887208 0.420467 0.480916
342 1 0.267237 0.419817 0.331429
344 1 0.185123 0.406902 0.414951
486 1 0.264033 0.410285 0.504482
348 1 0.342412 0.417795 0.426337
490 1 0.409458 0.414339 0.503542
352 1 0.489193 0.41219 0.418055
494 1 0.594857 0.412707 0.491508
497 1 0.675051 0.311222 0.496308
356 1 0.666978 0.412702 0.417665
377 1 0.660549 0.485264 0.32178
355 1 0.771334 0.319687 0.408776
360 1 0.844015 0.419706 0.42407
337 1 0.0194223 0.329924 0.335167
340 1 -9.03163e-05 0.405474 0.413413
502 1 0.915704 0.394461 0.501598
383 1 0.917196 0.491731 0.449713
363 1 0.0877312 0.50133 0.416523
364 1 -0.00225392 0.568451 0.410746
368 1 0.166755 0.578091 0.413948
387 1 0.0892154 0.65775 0.403392
509 1 0.179799 0.48925 0.507204
506 1 0.112254 0.569223 0.506595
366 1 0.249525 0.572104 0.349088
367 1 0.269816 0.502527 0.416687
391 1 0.251905 0.662302 0.409598
370 1 0.423763 0.59056 0.335503
372 1 0.347042 0.584951 0.417148
393 1 0.327844 0.666187 0.323138
371 1 0.417004 0.509262 0.432305
395 1 0.432181 0.664925 0.435335
376 1 0.515283 0.576111 0.417221
541 1 0.503825 0.655253 0.510652
374 1 0.592778 0.579659 0.333739
375 1 0.585926 0.489999 0.41757
399 1 0.585386 0.650117 0.412887
380 1 0.664543 0.575631 0.426987
379 1 0.754206 0.499918 0.427049
403 1 0.737478 0.659197 0.415271
384 1 0.841537 0.581529 0.436747
401 1 0.66273 0.653915 0.343275
545 1 0.653323 0.661527 0.495757
385 1 0.998838 0.662007 0.339472
407 1 0.931953 0.653531 0.418712
529 1 0.0159541 0.645978 0.484943
526 1 0.930708 0.586228 0.50303
386 1 0.0748867 0.747264 0.323232
411 1 0.0948712 0.822438 0.421145
392 1 0.181334 0.748589 0.424028
533 1 0.182104 0.661782 0.488803
553 1 1.01617 0.830572 0.509527
557 1 0.169931 0.841135 0.488636
390 1 0.243581 0.738112 0.337684
396 1 0.346328 0.739203 0.41081
534 1 0.270924 0.742163 0.492992
400 1 0.519877 0.758613 0.427216
538 1 0.431062 0.749941 0.510168
542 1 0.59766 0.751969 0.521016
404 1 0.655874 0.747234 0.423383
423 1 0.587449 0.839692 0.420099
427 1 0.746521 0.822169 0.409408
408 1 0.822957 0.73663 0.419798
406 1 0.910612 0.751283 0.342368
388 1 1.01058 0.758677 0.429158
550 1 0.926551 0.735214 0.501384
573 1 0.837832 0.824378 0.509256
412 1 1.00984 0.908484 0.42783
415 1 0.258265 0.834099 0.404786
416 1 0.168183 0.919221 0.412883
414 1 0.266883 0.930256 0.321394
420 1 0.336176 0.915331 0.402957
558 1 0.264187 0.907502 0.482507
417 1 0.338968 0.815059 0.335453
419 1 0.424944 0.823235 0.41454
299 1 0.417802 1.00273 0.41495
424 1 0.500058 0.931174 0.414428
303 1 0.585808 1.00406 0.407103
445 1 0.508604 -0.000347375 0.492319
565 1 0.519428 0.829344 0.506792
428 1 0.677647 0.914024 0.407807
569 1 0.664728 0.834228 0.515118
566 1 0.590237 0.919022 0.499289
307 1 0.765894 0.985501 0.427987
425 1 0.663318 0.845205 0.323969
305 1 0.683397 0.986431 0.330628
426 1 0.767326 0.913778 0.336588
449 1 0.673326 0.99595 0.497083
311 1 0.922996 0.0071135 0.442363
431 1 0.914646 0.830838 0.439152
309 1 0.85806 0.980644 0.347823
432 1 0.823184 0.899737 0.430611
434 1 0.0734752 0.0777433 0.515978
440 1 0.172852 0.0823574 0.575097
437 1 0.179782 -0.0169007 0.500948
438 1 0.256472 0.0881609 0.497728
461 1 0.175481 0.162035 0.498239
444 1 0.329377 0.0860827 0.575345
439 1 0.250029 1.00281 0.578642
443 1 0.425879 0.0107268 0.579284
467 1 0.409157 0.161552 0.591581
441 1 0.341034 0.00869384 0.498525
586 1 0.423903 0.0809732 0.674092
585 1 0.32718 1.00114 0.671084
446 1 0.588364 0.0918504 0.496696
448 1 0.496536 0.113091 0.567066
590 1 0.585894 0.0838884 0.66471
471 1 0.600379 0.152802 0.585471
452 1 0.679897 0.0666388 0.56966
450 1 0.765703 0.0770698 0.505593
475 1 0.74204 0.155974 0.580185
477 1 0.833117 0.157723 0.495791
456 1 0.833935 0.0780377 0.591264
436 1 0.984023 0.0923741 0.598701
577 1 0.999625 0.990051 0.669728
459 1 0.0819298 0.156866 0.59356
483 1 0.0858776 0.347946 0.568007
464 1 0.177532 0.244574 0.581338
460 1 0.982545 0.249647 0.574676
463 1 0.255291 0.180913 0.582786
606 1 0.23131 0.255361 0.671564
468 1 0.340578 0.243651 0.592559
633 1 0.339178 0.327669 0.666734
466 1 0.429243 0.240068 0.487037
609 1 0.339195 0.174036 0.668807
610 1 0.42206 0.248587 0.673264
637 1 0.510967 0.310617 0.665757
470 1 0.581214 0.255079 0.499359
613 1 0.497751 0.169039 0.67214
472 1 0.484093 0.234585 0.574269
476 1 0.678491 0.239974 0.585378
617 1 0.67015 0.160501 0.670583
618 1 0.744172 0.239937 0.673025
480 1 0.832199 0.236779 0.579378
479 1 0.9039 0.161641 0.58759
622 1 0.907896 0.248227 0.672454
503 1 0.910628 0.325801 0.580603
505 1 1.00856 0.497715 0.504875
507 1 0.0860142 0.484303 0.587733
484 1 0.00333118 0.407897 0.579971
487 1 0.260535 0.3288 0.575575
488 1 0.174293 0.416736 0.583275
511 1 0.258569 0.483974 0.598863
630 1 0.258519 0.397835 0.659622
517 1 0.49585 0.49612 0.502554
491 1 0.420702 0.320351 0.589364
489 1 0.340097 0.31544 0.496922
492 1 0.34102 0.402432 0.583724
496 1 0.5094 0.405121 0.571922
495 1 0.589757 0.327993 0.582528
500 1 0.672386 0.39811 0.577603
638 1 0.590972 0.395551 0.666851
521 1 0.674753 0.481408 0.505147
499 1 0.759566 0.328431 0.579206
498 1 0.744297 0.397824 0.49017
504 1 0.827679 0.416451 0.591191
527 1 0.92602 0.488078 0.59351
525 1 0.830563 0.496487 0.512366
531 1 0.0912556 0.652579 0.581022
512 1 0.168087 0.559384 0.597236
508 1 0.0233157 0.567513 0.585602
650 1 0.090225 0.564584 0.675757
513 1 0.335839 0.495692 0.505888
510 1 0.246788 0.573317 0.498815
654 1 0.252076 0.584507 0.67418
516 1 0.319338 0.580933 0.573335
514 1 0.408284 0.587761 0.501194
515 1 0.416615 0.492651 0.58021
520 1 0.503633 0.569336 0.590544
685 1 0.498345 0.661489 0.660579
518 1 0.579327 0.576475 0.508278
519 1 0.573177 0.492012 0.578173
543 1 0.597505 0.656391 0.583823
522 1 0.742517 0.57307 0.511637
523 1 0.753065 0.486098 0.58714
524 1 0.65819 0.572008 0.59326
528 1 0.851692 0.594528 0.576221
551 1 0.942685 0.660556 0.578509
549 1 0.832469 0.672975 0.494249
530 1 0.0899309 0.747732 0.494475
532 1 0.0133222 0.738862 0.587003
536 1 0.18542 0.739244 0.567994
674 1 0.103076 0.746023 0.655501
537 1 0.326732 0.658116 0.49112
535 1 0.252622 0.659725 0.574674
559 1 0.255246 0.839716 0.576116
540 1 0.322683 0.74878 0.583583
539 1 0.405829 0.659964 0.578811
561 1 0.341519 0.828104 0.483189
563 1 0.410087 0.835687 0.570965
544 1 0.50185 0.746728 0.596565
567 1 0.593183 0.827318 0.5923
713 1 0.657308 0.830746 0.681656
686 1 0.588473 0.736127 0.657159
546 1 0.750466 0.752441 0.498123
547 1 0.744824 0.666242 0.579486
689 1 0.66369 0.661546 0.663264
548 1 0.678686 0.76074 0.591179
552 1 0.841341 0.750173 0.580654
575 1 0.933834 0.810115 0.58084
694 1 0.92881 0.737601 0.668375
697 1 0.0142347 0.837681 0.657971
435 1 0.0957656 -0.0044198 0.581998
555 1 0.0974479 0.8269 0.574876
554 1 0.0896556 0.923973 0.503897
698 1 0.0877894 0.931826 0.664548
560 1 0.168989 0.904284 0.586804
702 1 0.250658 0.921733 0.65464
562 1 0.419853 0.914254 0.500725
564 1 0.335559 0.913146 0.566164
706 1 0.422776 0.919513 0.656943
568 1 0.507337 0.910658 0.584758
447 1 0.566925 1.011 0.576109
589 1 0.510723 0.989713 0.662869
709 1 0.502477 0.83648 0.6624
570 1 0.735963 0.914294 0.503681
571 1 0.751022 0.840908 0.573451
572 1 0.66304 0.924103 0.59353
451 1 0.760032 0.986769 0.586057
453 1 0.838675 0.991109 0.50781
576 1 0.838208 0.91119 0.585443
433 1 0.00447889 -0.00944213 0.507527
574 1 0.928565 0.897894 0.516484
455 1 0.920666 1.0009 0.573202
556 1 0.0203716 0.915142 0.590782
718 1 0.920872 0.929011 0.695042
578 1 0.0819358 0.0784505 0.67044
579 1 0.0871339 -0.00128511 0.758288
582 1 0.231742 0.0787246 0.660625
725 1 0.179793 0.997831 0.849708
584 1 0.153783 0.0834907 0.760155
583 1 0.241293 1.00938 0.7559
749 1 0.162075 0.161705 0.828918
726 1 0.252413 0.0954748 0.849979
588 1 0.338224 0.081096 0.751728
730 1 0.413956 0.0898544 0.843891
587 1 0.416941 1.00003 0.749584
753 1 0.330309 0.158102 0.837587
733 1 0.495566 1.00874 0.848722
592 1 0.495752 0.0933933 0.765273
734 1 0.579636 0.0961931 0.8518
615 1 0.582075 0.161342 0.758195
591 1 0.569183 0.00925141 0.755682
594 1 0.750472 0.0768783 0.672887
596 1 0.678465 0.0715143 0.749871
595 1 0.770324 1.00003 0.756729
600 1 0.829635 0.0938307 0.772678
738 1 0.744957 0.0752808 0.832721
580 1 0.993406 0.0784006 0.732812
598 1 0.900621 0.0737893 0.671964
602 1 0.0849084 0.253809 0.652907
603 1 0.0793358 0.165335 0.752043
625 1 0.992603 0.33343 0.654961
604 1 0.997966 0.249533 0.743841
746 1 0.087656 0.24482 0.834284
605 1 0.163207 0.162633 0.666348
607 1 0.24109 0.165234 0.750346
608 1 0.156916 0.238948 0.745425
750 1 0.260692 0.24886 0.833475
777 1 0.337238 0.339441 0.8388
611 1 0.412195 0.157859 0.752231
612 1 0.345488 0.255758 0.760998
754 1 0.418119 0.26048 0.836819
616 1 0.510191 0.242721 0.748326
614 1 0.591088 0.229063 0.654128
758 1 0.590148 0.254535 0.839042
620 1 0.674725 0.237487 0.757251
619 1 0.742773 0.158588 0.758469
624 1 0.827371 0.256898 0.751564
645 1 0.824156 0.315501 0.662881
621 1 0.819443 0.163615 0.678506
601 1 0.0011807 0.180857 0.664862
623 1 0.922987 0.163149 0.747377
647 1 0.915253 0.343288 0.761115
766 1 0.914538 0.258478 0.82018
629 1 0.15763 0.326189 0.659837
627 1 0.0917276 0.328147 0.74975
626 1 0.076744 0.400198 0.668723
628 1 0.000921852 0.412951 0.747862
651 1 0.0993742 0.489943 0.76068
649 1 1.01372 0.487193 0.666655
631 1 0.242991 0.324172 0.755122
653 1 0.152324 0.478588 0.675269
632 1 0.16429 0.400881 0.747477
636 1 0.335395 0.422858 0.748206
657 1 0.344739 0.489443 0.667699
634 1 0.423247 0.394661 0.664691
661 1 0.508897 0.471277 0.656395
635 1 0.414477 0.332988 0.756317
659 1 0.423731 0.506012 0.749983
778 1 0.419477 0.432843 0.833184
640 1 0.502004 0.415888 0.750958
801 1 0.334036 0.497556 0.828362
641 1 0.677188 0.325886 0.658406
639 1 0.587807 0.327506 0.747771
663 1 0.587896 0.489023 0.741638
782 1 0.581916 0.41243 0.827897
643 1 0.750971 0.332945 0.758611
642 1 0.744487 0.40819 0.660347
644 1 0.669187 0.416984 0.744999
648 1 0.83532 0.419016 0.773817
667 1 0.752165 0.503785 0.73714
646 1 0.931077 0.414972 0.670891
671 1 0.927132 0.49368 0.749163
790 1 0.929592 0.422563 0.834552
673 1 0.0152355 0.668083 0.660252
652 1 0.00905472 0.575687 0.745504
656 1 0.168933 0.573089 0.743641
675 1 0.0945003 0.66767 0.742002
677 1 0.175051 0.668381 0.654812
655 1 0.255814 0.496113 0.749078
679 1 0.251798 0.684438 0.734483
658 1 0.419913 0.576464 0.663208
660 1 0.335586 0.593435 0.744554
683 1 0.420626 0.66645 0.74294
664 1 0.511786 0.574175 0.747682
662 1 0.578995 0.583042 0.660862
806 1 0.582689 0.586212 0.843038
665 1 0.645443 0.490701 0.652359
669 1 0.82845 0.478996 0.672344
666 1 0.77304 0.589166 0.651323
668 1 0.649751 0.578675 0.739614
670 1 0.906346 0.56683 0.673002
693 1 0.83639 0.678663 0.662585
672 1 0.836936 0.57233 0.745363
695 1 0.942668 0.664932 0.746997
701 1 0.171606 0.840847 0.673901
699 1 0.0834003 0.834846 0.743246
680 1 0.160268 0.749339 0.753016
681 1 0.332895 0.661453 0.656377
678 1 0.24147 0.76929 0.652979
703 1 0.249597 0.816447 0.761553
822 1 0.253596 0.739198 0.828085
684 1 0.334272 0.740255 0.749401
682 1 0.405453 0.755247 0.65532
705 1 0.336264 0.83483 0.64889
826 1 0.432867 0.737331 0.824525
849 1 0.344355 0.82758 0.828759
687 1 0.585383 0.67678 0.750993
688 1 0.50626 0.753618 0.732183
830 1 0.579229 0.746503 0.829156
691 1 0.737811 0.654687 0.7563
692 1 0.667044 0.747529 0.764401
690 1 0.747688 0.740653 0.693176
715 1 0.750921 0.829929 0.767378
717 1 0.813857 0.815137 0.659604
676 1 1.00857 0.758519 0.746166
696 1 0.839156 0.746171 0.756805
719 1 0.898546 0.822768 0.724538
581 1 0.172877 0.99287 0.659059
704 1 0.179117 0.911422 0.755371
842 1 0.0853276 0.918176 0.837786
708 1 0.34078 0.912522 0.732776
846 1 0.265748 0.917083 0.829905
707 1 0.424729 0.831109 0.752865
729 1 0.343711 0.00774659 0.831647
711 1 0.575744 0.842331 0.751057
710 1 0.590848 0.905786 0.664836
712 1 0.492528 0.916849 0.744291
737 1 0.665915 0.990453 0.819594
741 1 0.824161 -0.00879076 0.854049
593 1 0.675001 0.996807 0.669441
714 1 0.740013 0.917692 0.670909
716 1 0.663173 0.915357 0.75162
597 1 0.835057 0.996445 0.655108
700 1 0.0125677 0.917327 0.753535
720 1 0.826767 0.907271 0.749909
599 1 0.896128 0.00316408 0.765687
722 1 0.0616155 0.0655771 0.847403
721 1 0.986366 0.984001 0.8417
2 1 0.0788142 0.0697641 0.00193101
724 1 0.997954 0.0962577 0.930049
747 1 0.0890299 0.170925 0.916778
728 1 0.166018 0.0699062 0.926865
6 1 0.243463 0.0849404 0.0031217
751 1 0.231847 0.166634 0.917243
732 1 0.336236 0.0978541 0.927838
5 1 0.179382 -0.0104002 0.0198222
10 1 0.419504 0.0930413 1.00314
736 1 0.495742 0.0878501 0.926593
731 1 0.406473 0.0167896 0.91873
13 1 0.500737 0.996859 0.998667
757 1 0.5028 0.175437 0.845414
759 1 0.571783 0.173778 0.926504
735 1 0.602772 0.010285 0.913726
18 1 0.748146 0.101491 0.996205
740 1 0.66863 0.0925724 0.910717
763 1 0.752289 0.180755 0.915767
744 1 0.836245 0.0857749 0.915805
742 1 0.931606 0.0952583 0.843579
22 1 0.919728 0.0893541 0.0165968
743 1 0.921971 1.00575 0.922219
26 1 0.0969101 0.243037 1.00865
745 1 0.0091854 0.168569 0.835614
748 1 0.0171952 0.258086 0.918439
771 1 0.0868513 0.339624 0.914667
33 1 0.343129 0.181561 0.989832
752 1 0.167154 0.259058 0.919734
756 1 0.325726 0.252456 0.912674
755 1 0.420153 0.172365 0.924423
779 1 0.415432 0.349036 0.926075
761 1 0.667043 0.163507 0.836748
760 1 0.502628 0.266501 0.919522
783 1 0.577941 0.345969 0.921167
765 1 0.846628 0.172234 0.837985
42 1 0.758477 0.240299 0.0115647
762 1 0.758199 0.247757 0.838629
764 1 0.669549 0.257366 0.916651
768 1 0.840236 0.248603 0.92824
789 1 0.827358 0.340788 0.834295
46 1 0.941385 0.243198 -0.00772549
767 1 0.928082 0.180438 0.910124
797 1 0.169014 0.501545 0.834813
770 1 0.0918963 0.415652 0.826461
772 1 0.0112613 0.422542 0.90069
793 1 0.0150989 0.501295 0.828019
773 1 0.165549 0.326915 0.844576
774 1 0.242582 0.409226 0.83229
775 1 0.257513 0.346173 0.917555
776 1 0.1712 0.424152 0.926799
805 1 0.503133 0.510239 0.826834
58 1 0.408766 0.420092 0.00515364
780 1 0.328398 0.420903 0.908627
803 1 0.412576 0.500846 0.913182
85 1 0.503775 0.501641 -0.000246716
781 1 0.504231 0.341566 0.843233
785 1 0.665032 0.338747 0.835876
784 1 0.495122 0.424044 0.916526
788 1 0.665573 0.423578 0.913143
65 1 0.676901 0.313672 1.00801
786 1 0.735441 0.426805 0.834128
787 1 0.744866 0.33362 0.905437
811 1 0.742727 0.507943 0.910068
69 1 0.842396 0.341722 0.000930879
769 1 -0.00233225 0.327991 0.824704
791 1 0.919644 0.351185 0.920897
792 1 0.827178 0.415589 0.919199
815 1 0.941781 0.504726 0.910632
795 1 0.0956904 0.496079 0.912561
794 1 0.090517 0.587196 0.822619
800 1 0.165983 0.585932 0.901051
817 1 0.0101661 0.661609 0.830604
796 1 0.0147304 0.585866 0.91334
798 1 0.245738 0.582382 0.818225
821 1 0.175283 0.66135 0.833368
799 1 0.241403 0.513094 0.916001
802 1 0.421619 0.576389 0.836161
825 1 0.333955 0.652851 0.8321
804 1 0.338457 0.577109 0.905134
827 1 0.423392 0.653956 0.91736
809 1 0.660828 0.495294 0.82304
808 1 0.499434 0.583527 0.925261
807 1 0.580639 0.493842 0.91757
813 1 0.842176 0.488485 0.847137
810 1 0.741941 0.585895 0.833947
812 1 0.662721 0.581845 0.909628
835 1 0.745608 0.661935 0.901791
814 1 0.909071 0.575653 0.822551
816 1 0.840375 0.589043 0.912979
839 1 0.927676 0.658394 0.899247
837 1 0.835793 0.658297 0.821002
819 1 0.0883647 0.665875 0.913352
101 1 0.158819 0.675052 0.995077
818 1 0.0777631 0.749417 0.847191
843 1 0.0705763 0.831035 0.913433
824 1 0.17248 0.743414 0.908486
823 1 0.254012 0.66842 0.910504
845 1 0.145652 0.833939 0.838896
847 1 0.26269 0.825219 0.911863
828 1 0.334429 0.733695 0.901192
829 1 0.494923 0.655843 0.811625
832 1 0.497591 0.744708 0.90433
129 1 0.337549 0.825267 0.00603708
833 1 0.653662 0.665457 0.829262
113 1 0.663835 0.665483 0.0057828
831 1 0.576421 0.672991 0.925794
855 1 0.583142 0.823431 0.908056
834 1 0.743794 0.742131 0.835247
857 1 0.665808 0.815203 0.846535
836 1 0.665823 0.732297 0.915969
859 1 0.749853 0.842237 0.907639
861 1 0.848858 0.828158 0.826683
838 1 0.927836 0.747536 0.831129
820 1 1.0045 0.726346 0.921147
840 1 0.841408 0.753296 0.923501
863 1 0.902358 0.838457 0.925368
125 1 0.159125 0.820378 0.987185
841 1 0.991752 0.834026 0.847257
723 1 0.100132 0.984245 0.929286
844 1 0.00524464 0.917088 0.932837
9 1 0.336794 0.00358242 1.00526
126 1 0.257606 0.904604 -0.0105045
848 1 0.164655 0.905972 0.921815
727 1 0.262393 0.004502 0.918102
852 1 0.343652 0.922953 0.913548
850 1 0.428713 0.913631 0.829559
851 1 0.409813 0.813374 0.908387
856 1 0.511443 0.915756 0.912448
17 1 0.657523 0.0125467 0.00712812
853 1 0.500144 0.827091 0.827185
854 1 0.583102 0.907038 0.829826
860 1 0.662241 0.918845 0.917963
739 1 0.735924 0.0123231 0.919764
858 1 0.754437 0.922995 0.835248
862 1 0.909872 0.911666 0.823242
21 1 0.841876 0.0131661 -0.00184659
141 1 0.840777 0.823509 0.0209309
864 1 0.83129 0.920798 0.929183
142 1 0.927425 0.918817 -0.000287844
