ITEM: TIMESTEP
7750
ITEM: NUMBER OF ATOMS
864
ITEM: BOX BOUNDS pp pp pp
0.0000000000000000e+00 3.1559999999999999e+01
0.0000000000000000e+00 3.1559999999999999e+01
0.0000000000000000e+00 3.1559999999999999e+01
ITEM: ATOMS id type xs ys zs
27 1 0.0772718 0.173418 0.0730186
8 1 0.168531 0.0946358 0.092392
146 1 0.091307 0.0948976 0.156943
173 1 0.168521 0.183257 0.156567
3 1 0.0911295 1.01049 0.0825353
9 1 0.335648 0.999792 0.992976
177 1 0.334014 0.159814 0.166099
12 1 0.326956 0.0839545 0.0866711
16 1 0.494512 0.0888741 0.0903679
35 1 0.416394 0.15974 0.0862167
10 1 0.40713 0.0890249 0.00702936
158 1 0.591496 0.0884843 0.148096
39 1 0.582853 0.179308 0.0827651
14 1 0.587358 0.0755696 0.0290971
37 1 0.509767 0.170399 0.00399868
20 1 0.688829 0.0946394 0.0735921
24 1 0.831038 0.0914321 0.0713387
43 1 0.753669 0.17438 0.0814407
18 1 0.76656 0.102328 0.993032
41 1 0.671492 0.173351 -0.00450862
4 1 0.995454 0.0699157 0.0834483
47 1 0.913266 0.153573 0.0826693
165 1 0.829494 0.975481 0.166384
26 1 0.0948232 0.256627 1.00886
170 1 0.0627135 0.241274 0.153548
28 1 0.985998 0.230208 0.0773397
25 1 1.01577 0.161407 0.985928
31 1 0.242368 0.169653 0.0776114
32 1 0.172208 0.25274 0.0852143
36 1 0.332067 0.235079 0.0837677
55 1 0.2448 0.319286 0.0919657
40 1 0.49004 0.241574 0.0801563
181 1 0.503914 0.173964 0.165426
178 1 0.42236 0.247108 0.16709
59 1 0.417637 0.335137 0.0793946
34 1 0.416797 0.25062 -0.00560778
38 1 0.57884 0.262136 1.0124
182 1 0.592446 0.265562 0.162777
63 1 0.584532 0.349656 0.0754982
61 1 0.490102 0.337878 0.986362
44 1 0.665327 0.24792 0.0660525
48 1 0.849688 0.253324 0.0889304
45 1 0.841733 0.184656 0.999626
185 1 0.665553 0.169666 0.165833
42 1 0.746377 0.250032 0.993177
190 1 0.924772 0.235553 0.172288
51 1 0.0717199 0.327262 0.0923768
52 1 0.0149036 0.423062 0.0744941
193 1 -0.00746944 0.317787 0.186387
50 1 0.0845025 0.419479 0.978271
49 1 0.00701772 0.337948 0.994892
197 1 0.159313 0.330972 0.171404
56 1 0.151284 0.433251 0.0878446
201 1 0.337781 0.33906 0.171191
54 1 0.235873 0.437826 0.0169123
60 1 0.328843 0.414228 0.0837313
202 1 0.431547 0.425268 0.167944
58 1 0.407584 0.410683 0.999543
64 1 0.502578 0.415623 0.078565
205 1 0.494103 0.323589 0.160907
206 1 0.594444 0.398231 0.16711
68 1 0.66519 0.414962 0.0862672
233 1 0.67706 0.492055 0.172606
67 1 0.760825 0.339448 0.0807643
72 1 0.857185 0.399735 0.08625
213 1 0.84849 0.333993 0.184725
65 1 0.661903 0.325694 0.981451
71 1 0.942836 0.333365 0.0774702
214 1 0.930987 0.408199 0.178233
70 1 0.926297 0.421675 0.00236045
69 1 0.836313 0.33979 1.00408
75 1 0.0714586 0.505374 0.0855947
76 1 0.993143 0.590147 0.0776495
74 1 0.0863332 0.587015 0.987954
73 1 0.0195955 0.505807 0.99805
80 1 0.165041 0.577301 0.0854295
79 1 0.24733 0.50806 0.0984634
84 1 0.341851 0.56864 0.0907599
78 1 0.254067 0.595395 -0.00543872
221 1 0.155183 0.495623 0.179839
245 1 0.169577 0.657166 0.157187
83 1 0.414476 0.494372 0.0919421
107 1 0.42468 0.673603 0.0954051
88 1 0.499831 0.578075 0.094203
85 1 0.506127 0.487835 0.988916
87 1 0.577424 0.497513 0.0844413
92 1 0.662864 0.562543 0.0827825
86 1 0.574751 0.581994 -0.000442804
109 1 0.494544 0.672945 0.987578
91 1 0.750412 0.491769 0.0713557
96 1 0.83174 0.565435 0.081583
95 1 0.914813 0.503681 0.0840271
238 1 0.912543 0.582348 0.164428
119 1 0.913031 0.661428 0.0879187
99 1 0.0842151 0.673383 0.091821
125 1 0.159573 0.831888 -0.0113672
98 1 0.098116 0.749651 0.00471791
104 1 0.182226 0.748951 0.0886998
103 1 0.264623 0.657253 0.0876707
246 1 0.254625 0.75022 0.171383
108 1 0.340095 0.752799 0.091645
112 1 0.5067 0.74426 0.0763838
131 1 0.414059 0.845685 0.0898108
253 1 0.504817 0.675592 0.17297
111 1 0.578148 0.665573 0.0793813
110 1 0.584798 0.74483 0.994516
135 1 0.585239 0.832798 0.07329
113 1 0.661299 0.65831 0.996585
116 1 0.664581 0.745944 0.0696705
115 1 0.753958 0.656392 0.0890839
114 1 0.756765 0.743376 0.998202
117 1 0.834503 0.670416 1.0095
139 1 0.752194 0.834753 0.0701393
281 1 0.670598 0.820436 0.155804
141 1 0.836872 0.836528 0.996938
100 1 0.00670021 0.757426 0.0837237
120 1 0.838909 0.752779 0.0773892
143 1 0.923896 0.82829 0.0679218
261 1 0.835931 0.66874 0.164829
265 1 -0.000163192 0.846483 0.160475
123 1 0.0992641 0.827973 0.0919905
128 1 0.174888 0.9316 0.0842129
145 1 0.0200242 0.00490787 0.162678
7 1 0.258385 0.00159934 0.076246
127 1 0.236765 0.843285 0.0691276
269 1 0.177219 0.833811 0.154878
126 1 0.251139 0.92238 0.995287
132 1 0.326586 0.926928 0.0720167
11 1 0.419671 0.99338 0.0999696
129 1 0.33141 0.836254 0.00230076
130 1 0.407255 0.917414 0.000863893
15 1 0.586211 0.99734 0.0961165
136 1 0.508679 0.905209 0.0887317
157 1 0.51421 -0.00528248 0.173201
140 1 0.660347 0.909053 0.0794944
19 1 0.754597 0.00618996 0.0745667
138 1 0.737179 0.922854 1.00463
17 1 0.672928 0.00228474 0.000552396
21 1 0.837135 -0.00813998 1.0034
124 1 0.0202116 0.922196 0.0822283
144 1 0.842228 0.9035 0.0713023
23 1 0.913225 1.00128 0.0791453
142 1 0.920598 0.914857 -0.00910671
286 1 0.918695 0.923836 0.168574
152 1 0.172025 0.091498 0.24329
290 1 0.0857115 0.0827888 0.337349
169 1 0.999353 0.151541 0.157806
147 1 0.0727153 0.0125124 0.255815
149 1 0.172811 0.0151422 0.170411
150 1 0.254595 0.0851193 0.174435
175 1 0.268795 0.168308 0.245794
151 1 0.272112 -0.00307411 0.253684
294 1 0.258935 0.0923363 0.315848
154 1 0.416286 0.0889541 0.156767
156 1 0.352452 0.0851504 0.246994
298 1 0.416693 0.0908755 0.34332
160 1 0.490213 0.0816901 0.249379
301 1 0.490353 1.00093 0.347055
162 1 0.756651 0.0852757 0.16183
189 1 0.848276 0.164698 0.162369
161 1 0.666282 0.99509 0.159032
164 1 0.671657 0.0923754 0.238451
306 1 0.753643 0.0823335 0.325766
168 1 0.840993 0.0848468 0.237541
166 1 0.916305 0.07105 0.162132
148 1 0.999004 0.0845991 0.252727
167 1 0.92305 0.997867 0.257841
310 1 0.910742 0.0930973 0.344669
171 1 0.072218 0.176094 0.2561
341 1 0.16465 0.325331 0.337502
195 1 0.0841624 0.328319 0.246607
314 1 0.0887061 0.249357 0.331273
172 1 -0.0016459 0.246432 0.266998
174 1 0.259495 0.242497 0.170552
176 1 0.178602 0.243382 0.240053
199 1 0.258985 0.327853 0.24375
325 1 0.512645 0.165417 0.329773
180 1 0.346746 0.253683 0.262954
345 1 0.335173 0.33461 0.334334
179 1 0.423445 0.164003 0.250088
322 1 0.424394 0.263092 0.340134
184 1 0.495713 0.246773 0.26491
183 1 0.577203 0.157197 0.233272
326 1 0.590182 0.252873 0.329765
188 1 0.680255 0.242942 0.242621
207 1 0.603205 0.329642 0.254797
329 1 0.665287 0.168922 0.337318
186 1 0.766306 0.253389 0.158685
187 1 0.763696 0.16641 0.252839
333 1 0.834209 0.162739 0.333692
192 1 0.830475 0.244358 0.252637
211 1 0.748225 0.339858 0.259149
191 1 0.915686 0.175493 0.260987
313 1 0.999128 0.158072 0.33154
215 1 0.920241 0.321891 0.264647
334 1 0.915074 0.250419 0.340202
194 1 0.079739 0.414519 0.176023
200 1 0.159248 0.410357 0.257013
196 1 1.00577 0.41872 0.256422
361 1 0.993549 0.511464 0.347946
198 1 0.235217 0.415333 0.173841
203 1 0.421983 0.326948 0.245582
204 1 0.34365 0.413191 0.246369
346 1 0.423936 0.408751 0.340243
373 1 0.49963 0.489863 0.347064
208 1 0.51663 0.40315 0.248204
212 1 0.670881 0.408536 0.247519
350 1 0.575684 0.412255 0.341316
210 1 0.775446 0.413647 0.158376
209 1 0.691835 0.329201 0.167487
235 1 0.748904 0.503865 0.258019
354 1 0.734283 0.417257 0.335695
216 1 0.839948 0.403081 0.258315
337 1 0.998848 0.336385 0.337892
357 1 0.832381 0.324416 0.342358
219 1 0.0830759 0.489838 0.271597
218 1 0.0743027 0.596328 0.156431
224 1 0.162858 0.587504 0.250913
220 1 1.00762 0.593915 0.235619
362 1 0.0905645 0.586354 0.336397
223 1 0.250941 0.495365 0.241655
222 1 0.25237 0.584407 0.168875
228 1 0.336459 0.562332 0.262072
247 1 0.252454 0.649683 0.254858
227 1 0.433715 0.502922 0.246671
225 1 0.330282 0.499581 0.16946
226 1 0.418136 0.574233 0.167816
232 1 0.496174 0.592768 0.243553
369 1 0.349595 0.482703 0.334447
229 1 0.510813 0.480073 0.168576
230 1 0.576908 0.589969 0.168544
231 1 0.586181 0.492012 0.248614
374 1 0.574649 0.572356 0.336655
255 1 0.579077 0.666407 0.26334
234 1 0.760047 0.580799 0.161631
236 1 0.662216 0.585619 0.255493
240 1 0.841454 0.574173 0.236565
378 1 0.744531 0.591359 0.338706
237 1 0.849215 0.490809 0.167224
217 1 -0.0103471 0.502016 0.174857
239 1 0.92757 0.503674 0.260323
241 1 -0.00263346 0.672528 0.152629
242 1 0.0864349 0.751572 0.161165
243 1 0.0702866 0.672219 0.239668
248 1 0.165927 0.738749 0.248901
244 1 0.00191178 0.758376 0.244553
249 1 0.338149 0.664161 0.164009
252 1 0.330332 0.745846 0.26028
390 1 0.241228 0.758763 0.335314
277 1 0.484783 0.823574 0.172796
251 1 0.405485 0.656358 0.255905
250 1 0.416356 0.743666 0.166099
275 1 0.411044 0.821041 0.253342
254 1 0.577835 0.760322 0.161587
256 1 0.489399 0.743893 0.260102
421 1 0.48425 0.825292 0.334282
279 1 0.573704 0.832201 0.258432
398 1 0.579883 0.75442 0.336459
257 1 0.644432 0.67744 0.169802
258 1 0.759454 0.747365 0.150887
260 1 0.650365 0.757645 0.24198
259 1 0.733848 0.666422 0.240088
264 1 0.819812 0.770982 0.247477
283 1 0.740353 0.84221 0.238864
285 1 0.835979 0.838994 0.15182
263 1 0.924049 0.66656 0.230037
262 1 0.923184 0.759227 0.150496
385 1 0.990509 0.691239 0.321923
267 1 0.0828243 0.830514 0.237139
266 1 0.0877106 0.917466 0.156487
272 1 0.168246 0.932578 0.246006
289 1 0.99755 0.984179 0.330854
270 1 0.256128 0.920473 0.183867
271 1 0.250441 0.837539 0.253895
276 1 0.343163 0.91016 0.25019
297 1 0.353993 1.01209 0.33356
414 1 0.251716 0.92548 0.328634
273 1 0.325294 0.843961 0.153731
274 1 0.422143 0.917638 0.168419
153 1 0.322791 1.01325 0.164527
155 1 0.422968 1.00258 0.238685
159 1 0.584752 0.994306 0.249649
278 1 0.568739 0.889535 0.16782
280 1 0.493712 0.92435 0.258162
284 1 0.657118 0.917599 0.262085
282 1 0.739437 0.912633 0.161117
163 1 0.743877 0.999501 0.242535
287 1 0.907395 0.831881 0.227642
288 1 0.82595 0.90736 0.251323
268 1 0.00481379 0.912704 0.248322
430 1 0.908513 0.910276 0.340346
293 1 0.17219 0.00312519 0.332756
292 1 0.00852468 0.0848351 0.422968
315 1 0.0932122 0.178231 0.411493
434 1 0.0828269 0.0759554 0.514124
321 1 0.343009 0.168524 0.332958
296 1 0.164281 0.0712956 0.406664
317 1 0.170048 0.169337 0.317934
300 1 0.352757 0.101723 0.419312
319 1 0.250596 0.171635 0.408705
442 1 0.437251 0.0919367 0.496153
299 1 0.423432 -0.00033568 0.429377
304 1 0.508083 0.0908988 0.420215
445 1 0.504514 -0.00710356 0.50236
323 1 0.440692 0.175835 0.420863
302 1 0.580393 0.0747843 0.322566
303 1 0.586319 0.000120892 0.422348
449 1 0.674431 0.988512 0.505974
327 1 0.596928 0.158424 0.415174
446 1 0.575556 0.0854527 0.497352
309 1 0.842387 0.00612807 0.326013
308 1 0.670252 0.0794121 0.407418
312 1 0.82172 0.0827445 0.411195
307 1 0.75285 1.00442 0.425698
477 1 0.846174 0.150188 0.519817
311 1 0.903761 -0.00930621 0.416797
454 1 0.905242 0.0634841 0.495026
339 1 0.0860642 0.326491 0.42719
318 1 0.249787 0.256641 0.335786
320 1 0.169711 0.250612 0.416375
485 1 0.172382 0.322076 0.498687
349 1 0.498869 0.327987 0.346648
324 1 0.345316 0.250476 0.428964
466 1 0.431273 0.264684 0.51045
328 1 0.511853 0.243653 0.415496
347 1 0.425761 0.337313 0.43391
470 1 0.588387 0.241263 0.501435
493 1 0.506 0.339802 0.50907
469 1 0.504782 0.183153 0.517093
330 1 0.756965 0.254855 0.333459
331 1 0.743676 0.17311 0.403847
332 1 0.659867 0.253696 0.417515
336 1 0.835699 0.247151 0.413566
355 1 0.748635 0.321806 0.421055
316 1 0.993686 0.228158 0.419891
501 1 0.828336 0.343961 0.510451
335 1 0.903758 0.156575 0.431339
457 1 1.00361 0.157469 0.504216
338 1 0.0830859 0.403889 0.338337
481 1 1.001 0.328325 0.502167
340 1 0.993946 0.416901 0.401784
482 1 0.0857435 0.417292 0.491715
342 1 0.25087 0.406985 0.332421
344 1 0.175714 0.408062 0.412234
343 1 0.256278 0.325795 0.424988
486 1 0.259171 0.40591 0.491515
367 1 0.253864 0.481498 0.40732
509 1 0.170059 0.494949 0.488448
348 1 0.355436 0.417284 0.423878
371 1 0.43142 0.500923 0.424245
352 1 0.507885 0.411652 0.43217
351 1 0.579301 0.334281 0.42332
375 1 0.584748 0.500666 0.416314
497 1 0.673158 0.333996 0.515287
521 1 0.674984 0.499068 0.515084
353 1 0.659226 0.332494 0.344602
356 1 0.689728 0.413007 0.431875
379 1 0.749955 0.51677 0.437283
360 1 0.851695 0.400022 0.418277
498 1 0.749849 0.418997 0.515195
359 1 0.923788 0.324387 0.418466
358 1 0.920286 0.420493 0.331008
502 1 0.922025 0.419209 0.49205
363 1 0.0878131 0.49864 0.406286
365 1 0.165073 0.512395 0.331472
506 1 0.0648986 0.58262 0.494371
368 1 0.169677 0.576347 0.407761
366 1 0.253547 0.574218 0.345691
389 1 0.186109 0.659387 0.33866
513 1 0.337339 0.491584 0.503822
372 1 0.339392 0.570447 0.405351
370 1 0.422138 0.581238 0.336473
541 1 0.484558 0.665068 0.490146
395 1 0.414954 0.671826 0.403036
376 1 0.502304 0.584039 0.426389
399 1 0.587616 0.669791 0.421686
401 1 0.655317 0.670636 0.332247
518 1 0.576681 0.580595 0.499214
377 1 0.663652 0.502751 0.333736
380 1 0.654443 0.592858 0.408426
384 1 0.818856 0.595267 0.417141
405 1 0.830238 0.664486 0.31923
505 1 1.0026 0.497961 0.496385
364 1 1.00049 0.596128 0.410345
381 1 0.83067 0.502576 0.349505
382 1 0.92532 0.592249 0.332305
383 1 0.915607 0.502243 0.418916
407 1 0.906596 0.662912 0.409106
529 1 -0.0055685 0.676472 0.504149
386 1 0.0867317 0.736252 0.330278
387 1 0.0800542 0.666938 0.420524
530 1 0.0836023 0.738098 0.508897
392 1 0.153464 0.739083 0.417789
413 1 0.162003 0.82786 0.331801
411 1 0.0807767 0.825787 0.404224
391 1 0.243149 0.665948 0.432444
537 1 0.333211 0.676788 0.498416
396 1 0.336502 0.753772 0.411087
534 1 0.235882 0.760577 0.497592
394 1 0.40942 0.747198 0.328591
397 1 0.491547 0.656661 0.333248
393 1 0.309832 0.66723 0.336872
538 1 0.418679 0.755438 0.491509
419 1 0.406209 0.831394 0.414678
400 1 0.487817 0.751747 0.402634
423 1 0.579667 0.844626 0.420796
425 1 0.657888 0.843499 0.332805
404 1 0.658878 0.748815 0.413442
542 1 0.562327 0.759366 0.501677
403 1 0.750536 0.681857 0.422268
402 1 0.747659 0.735653 0.322521
406 1 0.901497 0.749395 0.310125
388 1 0.99962 0.750535 0.425658
408 1 0.828566 0.738004 0.400816
409 1 0.985072 0.831632 0.327829
431 1 0.913391 0.833797 0.413608
410 1 0.0984722 0.925078 0.31917
291 1 0.0812162 -0.0123044 0.4164
437 1 0.174494 0.00452086 0.49757
417 1 0.322661 0.829167 0.337722
295 1 0.255217 0.0252541 0.412294
415 1 0.249107 0.829617 0.413042
416 1 0.157395 0.906762 0.412557
558 1 0.252921 0.910873 0.498935
420 1 0.332105 0.922995 0.412076
418 1 0.420605 0.921088 0.330054
424 1 0.484482 0.916788 0.420284
422 1 0.570601 0.919628 0.345121
305 1 0.662498 0.996209 0.338709
569 1 0.667055 0.838461 0.496276
428 1 0.678012 0.912056 0.419683
429 1 0.835132 0.835044 0.334462
427 1 0.747942 0.826362 0.406184
426 1 0.762388 0.931007 0.345358
453 1 0.824502 0.989472 0.501329
412 1 0.00223072 0.90285 0.414653
432 1 0.836621 0.902106 0.424373
440 1 0.169417 0.0835706 0.579463
459 1 0.06819 0.166343 0.588062
436 1 -0.0026931 0.0755363 0.592322
435 1 0.10372 -0.00486579 0.575076
465 1 0.3663 0.168376 0.50138
438 1 0.26113 0.0940734 0.492593
582 1 0.245157 0.0867291 0.668791
609 1 0.333189 0.16002 0.675757
444 1 0.329278 0.0856224 0.593121
467 1 0.41772 0.168962 0.604838
443 1 0.423246 0.011626 0.574197
586 1 0.416475 0.082283 0.681088
448 1 0.496254 0.0895444 0.588824
590 1 0.599156 0.0884108 0.663505
471 1 0.58976 0.164974 0.5724
447 1 0.593438 -0.0016321 0.589207
450 1 0.757345 0.0893065 0.498287
452 1 0.670518 0.0907496 0.565461
451 1 0.75269 -0.00168551 0.586111
456 1 0.833376 0.0875637 0.604073
597 1 0.830153 -0.00254932 0.690841
455 1 0.914366 0.00770615 0.605062
598 1 0.915133 0.090183 0.686226
461 1 0.164699 0.154832 0.486915
458 1 0.0803711 0.24249 0.501233
601 1 0.99226 0.169154 0.661424
460 1 -0.00522442 0.253436 0.580563
625 1 0.00426915 0.343803 0.6565
602 1 0.0880003 0.258776 0.671815
463 1 0.256781 0.154982 0.588853
462 1 0.252763 0.245315 0.519577
464 1 0.162695 0.254306 0.587518
487 1 0.245585 0.333766 0.585737
468 1 0.346717 0.253413 0.584807
472 1 0.508376 0.263182 0.591082
476 1 0.676617 0.249364 0.58506
617 1 0.681053 0.178281 0.682937
495 1 0.588208 0.347628 0.58506
613 1 0.504495 0.154429 0.685567
473 1 0.68498 0.175085 0.495637
474 1 0.754611 0.24354 0.490786
475 1 0.750359 0.170843 0.602617
621 1 0.83779 0.1838 0.667115
618 1 0.749241 0.25696 0.685746
478 1 0.9003 0.256245 0.508582
479 1 0.924165 0.16502 0.584984
480 1 0.81195 0.260053 0.58372
483 1 0.0886327 0.338666 0.582839
626 1 0.083495 0.409033 0.659987
649 1 0.00601021 0.501268 0.678226
488 1 0.162651 0.425995 0.574761
653 1 0.151504 0.499159 0.664428
629 1 0.171531 0.336183 0.664862
630 1 0.240355 0.427322 0.654214
490 1 0.415563 0.412461 0.518113
491 1 0.420239 0.335189 0.598877
489 1 0.331762 0.329025 0.501802
517 1 0.50947 0.49483 0.496399
492 1 0.329302 0.400724 0.583237
496 1 0.507223 0.421342 0.590864
494 1 0.601986 0.41739 0.498967
500 1 0.667812 0.417571 0.585678
519 1 0.583174 0.51189 0.583924
665 1 0.680554 0.522907 0.643872
499 1 0.744872 0.336889 0.598155
645 1 0.836945 0.344131 0.659845
503 1 0.916374 0.340943 0.579395
484 1 0.00584075 0.419667 0.56819
504 1 0.840551 0.436513 0.575537
525 1 0.832777 0.495515 0.490659
527 1 0.925585 0.503522 0.582802
646 1 0.933511 0.420389 0.668491
669 1 0.837516 0.523488 0.658449
507 1 0.0715546 0.504108 0.579699
512 1 0.152962 0.578201 0.571403
508 1 0.995396 0.588529 0.583289
533 1 0.152986 0.658461 0.503429
510 1 0.261968 0.572749 0.488094
657 1 0.329648 0.504879 0.656654
511 1 0.247914 0.502746 0.573924
535 1 0.233423 0.659927 0.592209
514 1 0.402963 0.58036 0.497834
516 1 0.338226 0.577379 0.581546
515 1 0.413833 0.499596 0.582295
520 1 0.490669 0.584274 0.590036
524 1 0.652755 0.606534 0.565771
543 1 0.56088 0.684422 0.582841
689 1 0.652214 0.694714 0.666718
523 1 0.761511 0.505037 0.574135
522 1 0.755738 0.601205 0.509069
666 1 0.745925 0.594663 0.65274
547 1 0.74099 0.688693 0.578002
526 1 0.924905 0.586289 0.495382
528 1 0.845038 0.570862 0.565292
670 1 0.940397 0.582837 0.670464
551 1 0.908811 0.673331 0.586504
557 1 0.158247 0.830522 0.491911
531 1 0.08018 0.663679 0.594911
536 1 0.163928 0.747837 0.590882
701 1 0.166536 0.836124 0.672244
555 1 0.0991775 0.836873 0.586478
677 1 0.155864 0.667417 0.685328
540 1 0.338692 0.755995 0.580091
705 1 0.337276 0.846991 0.673821
559 1 0.240673 0.830368 0.592253
561 1 0.335499 0.834073 0.497651
539 1 0.422854 0.661713 0.592274
563 1 0.407758 0.848912 0.581415
709 1 0.497061 0.854732 0.684617
685 1 0.494072 0.665757 0.670859
544 1 0.477103 0.768526 0.587842
548 1 0.65151 0.748677 0.570144
686 1 0.568801 0.749844 0.668204
545 1 0.672729 0.667421 0.486318
565 1 0.492086 0.833549 0.497632
546 1 0.74197 0.754275 0.496537
549 1 0.84271 0.676023 0.50552
571 1 0.733442 0.821374 0.593175
690 1 0.750484 0.752113 0.676079
552 1 0.831475 0.764417 0.580893
697 1 0.995538 0.839074 0.684284
553 1 0.0111894 0.839052 0.509632
550 1 0.905283 0.756591 0.493517
532 1 0.00972322 0.758853 0.585128
694 1 0.932639 0.74884 0.669706
554 1 0.0944812 0.919019 0.485458
433 1 0.00553179 -0.00682149 0.498834
698 1 0.0834589 0.917062 0.660711
560 1 0.172211 0.916022 0.582856
439 1 0.250915 0.00445214 0.592601
702 1 0.254149 0.920705 0.664113
564 1 0.326211 0.928645 0.581935
585 1 0.322207 0.0014532 0.679355
441 1 0.326357 0.0103314 0.494022
562 1 0.400959 0.919153 0.498547
706 1 0.417761 0.927551 0.666383
566 1 0.580382 0.921007 0.497097
567 1 0.582655 0.830676 0.584735
568 1 0.504942 0.920658 0.590246
570 1 0.749413 0.901494 0.524789
713 1 0.662362 0.82645 0.681384
573 1 0.836792 0.841094 0.508153
572 1 0.663877 0.906978 0.587852
574 1 0.929177 0.921112 0.490948
576 1 0.841635 0.92384 0.583955
575 1 0.915668 0.831648 0.57343
556 1 0.992546 0.928797 0.584872
718 1 0.906685 0.915577 0.659434
578 1 0.0870515 0.0793546 0.649765
722 1 0.0823633 0.0958006 0.827961
603 1 0.0907377 0.184266 0.749357
584 1 0.155619 0.0872705 0.744392
726 1 0.246089 0.0696438 0.822713
588 1 0.330218 0.0880198 0.759486
611 1 0.4073 0.16478 0.753526
587 1 0.406409 0.0137084 0.757019
729 1 0.341299 -0.000243496 0.837487
592 1 0.503432 0.0745219 0.755323
596 1 0.673567 0.0667119 0.753794
589 1 0.512883 1.01496 0.661796
591 1 0.584743 0.996025 0.746668
594 1 0.746434 0.0745331 0.660373
600 1 0.828964 0.0924916 0.760749
580 1 0.00996122 0.100116 0.737588
742 1 0.920577 0.0895257 0.834586
605 1 0.171277 0.166547 0.659875
745 1 -0.016989 0.176828 0.828163
608 1 0.186775 0.250537 0.731863
746 1 0.0919602 0.253463 0.828698
769 1 0.0166358 0.335267 0.830024
607 1 0.249895 0.171455 0.749583
606 1 0.251837 0.251418 0.647244
750 1 0.239005 0.248273 0.839029
753 1 0.318012 0.172579 0.841945
610 1 0.419322 0.246789 0.673262
612 1 0.342522 0.248426 0.739363
635 1 0.422739 0.341744 0.745232
754 1 0.425351 0.249825 0.825027
614 1 0.585191 0.246501 0.663069
615 1 0.595864 0.16285 0.750979
616 1 0.508292 0.249968 0.746253
639 1 0.574375 0.32869 0.750921
619 1 0.734604 0.144907 0.771802
620 1 0.668163 0.251413 0.757737
643 1 0.741274 0.341373 0.744817
622 1 0.921189 0.256806 0.666132
604 1 -0.0060227 0.254896 0.754318
623 1 0.911521 0.181294 0.758583
624 1 0.833536 0.257776 0.740044
766 1 0.913505 0.257012 0.828978
647 1 0.924663 0.334239 0.746054
627 1 0.0920638 0.335864 0.749284
651 1 0.0854988 0.506885 0.756161
770 1 0.104005 0.405856 0.832578
631 1 0.255252 0.34465 0.746728
632 1 0.168053 0.414219 0.740086
655 1 0.249475 0.502996 0.745048
774 1 0.266172 0.420384 0.833576
633 1 0.331957 0.335195 0.668146
637 1 0.506611 0.345673 0.669811
634 1 0.419483 0.418865 0.67537
636 1 0.327746 0.421804 0.739965
640 1 0.50518 0.429342 0.757969
641 1 0.65592 0.332574 0.672879
638 1 0.583165 0.423486 0.662712
661 1 0.504676 0.505998 0.672152
644 1 0.666555 0.431976 0.740849
642 1 0.762198 0.430731 0.658864
786 1 0.758828 0.421639 0.834244
667 1 0.754214 0.512121 0.747439
628 1 0.0287998 0.41551 0.754454
648 1 0.841136 0.447882 0.741707
650 1 0.0846605 0.585119 0.659412
817 1 0.994704 0.676941 0.836157
656 1 0.179302 0.588832 0.763166
652 1 0.000309331 0.589401 0.755554
675 1 0.0743748 0.675212 0.755514
654 1 0.250503 0.571559 0.660263
681 1 0.335651 0.648247 0.668306
679 1 0.252319 0.663571 0.731477
658 1 0.430622 0.581576 0.6718
659 1 0.409386 0.515153 0.759661
660 1 0.333845 0.589781 0.753468
664 1 0.496144 0.576325 0.761622
802 1 0.417609 0.581112 0.846701
805 1 0.50478 0.502579 0.835491
663 1 0.593181 0.512926 0.730449
662 1 0.584177 0.589672 0.66081
806 1 0.590888 0.577114 0.810301
809 1 0.671494 0.504275 0.835856
668 1 0.671239 0.595004 0.741402
672 1 0.835974 0.590282 0.744561
693 1 0.823873 0.684099 0.655605
837 1 0.81624 0.665383 0.83162
671 1 0.923729 0.498545 0.754023
695 1 0.910723 0.676129 0.751692
674 1 0.0824499 0.753183 0.666313
818 1 0.0815974 0.755403 0.826159
821 1 0.171307 0.663601 0.836533
676 1 0.00526659 0.756741 0.753825
699 1 0.0903856 0.831124 0.750244
678 1 0.25567 0.752732 0.672136
680 1 0.176062 0.742048 0.758673
684 1 0.333409 0.754203 0.755898
682 1 0.395399 0.749146 0.675464
683 1 0.41751 0.666892 0.758075
687 1 0.571906 0.660776 0.748074
688 1 0.502149 0.758677 0.744098
692 1 0.6656 0.744314 0.756875
691 1 0.748282 0.677473 0.747807
696 1 0.833332 0.741317 0.744733
834 1 0.740508 0.76268 0.841182
717 1 0.842403 0.836679 0.676178
673 1 0.00429934 0.666295 0.665673
719 1 0.911712 0.844604 0.764501
841 1 1.00693 0.826469 0.836731
838 1 0.920617 0.757077 0.819067
577 1 1.00507 0.991663 0.680825
579 1 0.0824655 0.987535 0.748509
581 1 0.166531 1.00405 0.668288
704 1 0.172065 0.916087 0.756451
703 1 0.259603 0.841491 0.761703
583 1 0.235637 0.00853182 0.749329
845 1 0.160699 0.830865 0.834204
846 1 0.243361 0.91583 0.844179
707 1 0.411515 0.845174 0.75644
849 1 0.332002 0.837245 0.841594
708 1 0.326484 0.92794 0.7558
850 1 0.420866 0.927115 0.831963
853 1 0.486894 0.81981 0.825761
711 1 0.590609 0.838565 0.758312
712 1 0.498168 0.941599 0.764888
710 1 0.585261 0.925657 0.669682
716 1 0.654219 0.919068 0.777748
593 1 0.672611 0.984299 0.673406
857 1 0.652085 0.830373 0.836169
715 1 0.738408 0.833374 0.7567
595 1 0.745907 0.983869 0.767973
714 1 0.75525 0.91561 0.682895
858 1 0.75811 0.912948 0.846379
737 1 0.685256 0.987974 0.86001
599 1 0.926393 0.00822694 0.759747
720 1 0.844507 0.915351 0.760906
700 1 0.999064 0.916841 0.771546
862 1 0.932549 0.915975 0.848531
2 1 0.0784276 0.0821219 1.00487
728 1 0.16604 0.0821981 0.906296
33 1 0.339033 0.163484 0.997617
749 1 0.170869 0.166064 0.832342
6 1 0.250533 0.0889635 0.000547856
732 1 0.337751 0.0779084 0.919908
727 1 0.254649 0.00485048 0.914826
13 1 0.497261 0.995722 0.0178358
730 1 0.417818 0.0806402 0.842265
736 1 0.507371 0.0710323 0.935428
755 1 0.418014 0.171559 0.909931
734 1 0.598406 0.0814041 0.838548
759 1 0.582675 0.176138 0.928114
735 1 0.577009 -0.00776717 0.919414
740 1 0.654367 0.0864269 0.937478
738 1 0.739087 0.075344 0.850954
761 1 0.658612 0.164744 0.837594
763 1 0.758755 0.169733 0.916531
739 1 0.767436 0.998374 0.926076
765 1 0.830119 0.165903 0.837106
724 1 -0.00381064 0.0765233 0.913594
744 1 0.854968 0.0892417 0.922014
22 1 0.917474 0.0730128 -0.0008046
29 1 0.154969 0.167663 1.00141
747 1 0.0942419 0.181558 0.905241
752 1 0.179693 0.247022 0.923907
748 1 0.00541772 0.255656 0.907001
30 1 0.246361 0.240202 0.0100069
57 1 0.314014 0.31699 0.984204
751 1 0.245574 0.154418 0.913912
756 1 0.334691 0.237934 0.911845
781 1 0.493354 0.337894 0.84063
779 1 0.403137 0.335766 0.908667
760 1 0.493087 0.250597 0.915871
757 1 0.499079 0.159126 0.824919
758 1 0.583241 0.25285 0.83635
783 1 0.579138 0.344067 0.909131
762 1 0.761333 0.244886 0.822057
764 1 0.67052 0.242645 0.914392
767 1 0.927473 0.170363 0.922466
46 1 0.917541 0.260702 0.997026
768 1 0.842292 0.258441 0.923361
773 1 0.176985 0.330524 0.813459
771 1 0.100729 0.323239 0.916756
795 1 0.0988452 0.510239 0.893498
776 1 0.17026 0.4329 0.921374
53 1 0.167688 0.340394 0.0120127
775 1 0.231821 0.335288 0.91405
777 1 0.325107 0.30821 0.830579
778 1 0.393602 0.411187 0.842661
801 1 0.33315 0.507476 0.839996
780 1 0.32416 0.404207 0.919507
784 1 0.487396 0.421992 0.906906
89 1 0.661153 0.512892 0.991562
62 1 0.593699 0.408468 0.986812
782 1 0.591635 0.409567 0.819064
807 1 0.581392 0.508851 0.914857
788 1 0.670842 0.406568 0.906369
785 1 0.671824 0.328365 0.833161
787 1 0.761953 0.332844 0.905384
66 1 0.741695 0.404827 0.990277
789 1 0.826264 0.342858 0.823609
811 1 0.751407 0.486701 0.925561
790 1 0.920941 0.421586 0.827447
791 1 0.931599 0.339353 0.896732
772 1 1.00655 0.43295 0.913594
792 1 0.842659 0.42746 0.918942
97 1 0.0212444 0.66642 1.00352
794 1 0.0689023 0.603793 0.838996
796 1 0.988765 0.58739 0.918971
819 1 0.0881821 0.678896 0.917854
798 1 0.259833 0.583673 0.838742
77 1 0.16198 0.509463 1.00839
797 1 0.170984 0.49722 0.818914
799 1 0.261121 0.504837 0.921269
800 1 0.175445 0.592798 0.919999
81 1 0.335769 0.491396 0.00605805
82 1 0.427552 0.581304 1.02247
803 1 0.412875 0.502265 0.924546
804 1 0.328328 0.590763 0.919937
808 1 0.497097 0.587695 0.921051
829 1 0.505147 0.655528 0.836448
831 1 0.583542 0.662875 0.927623
90 1 0.753421 0.591226 -0.00688417
93 1 0.832188 0.495646 1.00469
813 1 0.839781 0.497647 0.840936
810 1 0.752503 0.574272 0.84308
812 1 0.675763 0.594913 0.911249
94 1 0.906263 0.594484 -0.00371346
793 1 0.000251497 0.496355 0.83197
814 1 0.906349 0.580427 0.826277
816 1 0.828741 0.567782 0.925184
815 1 0.917526 0.503331 0.938736
824 1 0.172252 0.754862 0.916904
820 1 -0.000171384 0.762015 0.930799
843 1 0.076899 0.826617 0.915018
101 1 0.159462 0.659311 0.0152827
102 1 0.257292 0.759165 0.0013437
105 1 0.334707 0.672699 0.00805777
822 1 0.251224 0.750042 0.830534
825 1 0.321317 0.676227 0.828665
823 1 0.252095 0.675402 0.922676
106 1 0.416056 0.75104 0.00992323
826 1 0.418442 0.732636 0.848767
828 1 0.337685 0.752434 0.931243
827 1 0.402472 0.665885 0.924842
851 1 0.418715 0.839607 0.926473
137 1 0.674388 0.82287 0.000195497
832 1 0.498121 0.75839 0.919548
830 1 0.569403 0.742936 0.830396
855 1 0.58617 0.826939 0.923685
836 1 0.664412 0.750679 0.918179
833 1 0.664887 0.675332 0.841014
835 1 0.756609 0.666489 0.914629
859 1 0.744144 0.834839 0.921468
840 1 0.839124 0.759234 0.918276
118 1 0.920036 0.744144 1.00086
121 1 0.0157491 0.841302 -3.99386e-05
839 1 0.90506 0.668053 0.905428
863 1 0.916575 0.831153 0.919803
122 1 0.100838 0.920838 1.00819
842 1 0.0815472 0.906357 0.825636
5 1 0.170965 0.0126076 0.00466416
723 1 0.0811926 0.988398 0.922596
844 1 0.00708461 0.916289 0.930022
847 1 0.26239 0.843248 0.915247
725 1 0.155916 -0.00499419 0.838584
848 1 0.160735 0.907166 0.912573
852 1 0.332889 0.920144 0.912163
733 1 0.503478 0.010335 0.851754
731 1 0.420562 0.00435927 0.922965
856 1 0.498336 0.910886 0.927558
134 1 0.574357 0.918615 0.00573781
133 1 0.50089 0.828483 0.00789726
854 1 0.571442 0.909777 0.845695
861 1 0.836015 0.830042 0.838739
860 1 0.657918 0.906074 0.931938
864 1 0.842476 0.918238 0.912709
1 1 0.0061449 0.995944 1.01184
721 1 0.0170924 0.00533946 0.831954
741 1 0.854133 0.00808682 0.855676
743 1 0.93085 1.00058 0.92957
