ITEM: TIMESTEP
12000
ITEM: NUMBER OF ATOMS
864
ITEM: BOX BOUNDS pp pp pp
0.0000000000000000e+00 3.1559999999999999e+01
0.0000000000000000e+00 3.1559999999999999e+01
0.0000000000000000e+00 3.1559999999999999e+01
ITEM: ATOMS id type xs ys zs
27 1 0.080012 0.140533 0.0868164
101 1 0.165017 0.159883 0.165017
29 1 0.157966 0.164428 0.00460808
3 1 0.0858788 0.0169991 0.0750668
8 1 0.17588 0.0807714 0.0790656
12 1 0.319273 0.0920453 0.0887496
82 1 0.415002 0.0936132 0.165853
10 1 0.431507 0.09402 0.00709272
9 1 0.336411 0.00586351 0.000724068
11 1 0.408124 0.0111128 0.0870563
16 1 0.515419 0.0811896 0.0806532
20 1 0.662411 0.0895247 0.0760643
93 1 0.831502 0.00390243 0.162501
24 1 0.828701 0.0920318 0.0841059
90 1 0.743349 0.0930072 0.160457
19 1 0.744012 0.0108096 0.089727
4 1 0.983212 0.0856998 0.065666
94 1 0.920746 0.0961461 0.165635
21 1 0.841805 0.0110016 0.00371628
26 1 0.0884065 0.245937 0.0347106
53 1 0.156901 0.333267 0.0291955
32 1 0.16298 0.251464 0.10518
25 1 0.00208488 0.183331 0.000754612
31 1 0.249956 0.175951 0.0852159
30 1 0.244989 0.250509 0.00041036
36 1 0.329612 0.265202 0.0754745
35 1 0.402654 0.181925 0.0842576
106 1 0.410411 0.259246 0.159132
109 1 0.496376 0.179826 0.161967
40 1 0.504492 0.255126 0.0874368
39 1 0.581468 0.170439 0.0860102
44 1 0.661345 0.267659 0.0791673
41 1 0.66074 0.17666 0.00862012
37 1 0.501547 0.17046 0.00365597
42 1 0.75216 0.256041 0.000996365
43 1 0.740545 0.17559 0.0753616
28 1 0.9871 0.260773 0.0980052
48 1 0.83544 0.256099 0.0953174
47 1 0.914043 0.181816 0.0836842
71 1 0.913161 0.331753 0.0709902
46 1 0.915162 0.245285 0.000579223
433 1 0.0123413 0.498246 0.00792604
51 1 0.0743888 0.343046 0.0971683
56 1 0.149396 0.421608 0.0976612
435 1 0.0704382 0.4982 0.0977819
50 1 0.0701856 0.401155 0.0133585
55 1 0.239078 0.334989 0.0900643
54 1 0.251848 0.412688 0.0188926
126 1 0.243433 0.414528 0.160516
58 1 0.410512 0.423846 0.00379406
59 1 0.42806 0.336973 0.0804926
133 1 0.495186 0.341612 0.163433
60 1 0.347717 0.419604 0.0856122
64 1 0.498471 0.43167 0.0730908
62 1 0.590158 0.432637 0.00417471
63 1 0.582253 0.338085 0.0594567
134 1 0.583004 0.409979 0.163925
68 1 0.683288 0.434422 0.0752927
67 1 0.76724 0.337754 0.0925806
72 1 0.832603 0.428804 0.078625
137 1 0.669845 0.345127 0.154728
69 1 0.825274 0.342025 0.00272019
70 1 0.92897 0.41881 0.00411224
52 1 0.99541 0.418923 0.0979233
74 1 0.0853013 0.0841021 0.178877
80 1 0.167109 0.0851678 0.259198
78 1 0.242395 0.0884675 0.173803
84 1 0.328938 0.0957906 0.245054
150 1 0.254844 0.0933771 0.330069
153 1 0.333095 0.00858838 0.332893
81 1 0.34116 0.00939261 0.173475
154 1 0.419099 0.0731858 0.312905
177 1 0.352738 0.155186 0.32805
89 1 0.658191 0.0144886 0.166803
86 1 0.583746 0.0935645 0.172631
88 1 0.500691 0.092172 0.244378
158 1 0.575254 0.085149 0.331153
85 1 0.506141 0.00643401 0.168522
185 1 0.664844 0.162222 0.332962
87 1 0.587718 0.0141156 0.256007
91 1 0.750765 0.000448156 0.267359
92 1 0.687007 0.0898908 0.244351
76 1 0.991086 0.0948258 0.262986
96 1 0.847197 0.0994779 0.247015
95 1 0.91465 0.0135644 0.253557
98 1 0.0813418 0.254817 0.170396
99 1 0.0934862 0.167549 0.250961
100 1 0.0103993 0.244528 0.267753
102 1 0.252823 0.261324 0.170204
103 1 0.254809 0.176448 0.248548
105 1 0.328717 0.167723 0.17169
104 1 0.174723 0.246904 0.244764
127 1 0.252344 0.332804 0.252987
173 1 0.173724 0.169678 0.325169
108 1 0.337061 0.24666 0.249383
107 1 0.414094 0.183887 0.242464
112 1 0.49916 0.261889 0.250277
131 1 0.407694 0.325065 0.254317
178 1 0.430148 0.258278 0.327281
110 1 0.583047 0.259071 0.170971
111 1 0.589567 0.167942 0.237879
116 1 0.665361 0.260517 0.265722
181 1 0.501801 0.170761 0.317658
114 1 0.75664 0.252821 0.171773
115 1 0.74372 0.180206 0.261689
113 1 0.669469 0.180366 0.173159
120 1 0.829402 0.248825 0.265991
97 1 0.99806 0.171404 0.171656
118 1 0.932845 0.249807 0.190185
117 1 0.843139 0.176926 0.178759
119 1 0.913005 0.174815 0.28039
143 1 0.911274 0.331537 0.27565
125 1 0.164794 0.335566 0.175529
509 1 0.165064 0.4985 0.176742
122 1 0.07287 0.410346 0.182248
123 1 0.0881388 0.33599 0.269592
124 1 0.00119229 0.422721 0.262883
128 1 0.15671 0.409393 0.251886
581 1 0.170702 0.498886 0.325954
198 1 0.245826 0.412424 0.320907
511 1 0.248038 0.491959 0.25459
129 1 0.335727 0.342692 0.172407
132 1 0.337584 0.419334 0.258551
130 1 0.41208 0.416064 0.174597
136 1 0.500891 0.43197 0.240301
135 1 0.582102 0.338923 0.248397
140 1 0.661451 0.412542 0.268448
139 1 0.754303 0.340761 0.259933
138 1 0.752726 0.420108 0.172549
144 1 0.825336 0.423524 0.258864
505 1 0.992794 0.49041 0.185125
597 1 0.835236 0.497889 0.332827
121 1 0.984529 0.337748 0.182715
141 1 0.840983 0.333862 0.175655
142 1 0.911063 0.420339 0.168213
527 1 0.921943 0.498793 0.268447
149 1 0.163998 0.00960359 0.336163
218 1 0.0771066 0.0958497 0.499435
146 1 0.0751127 0.0974865 0.336906
152 1 0.146284 0.0921017 0.422688
147 1 0.0835102 0.0127703 0.427289
151 1 0.245444 0.0147567 0.409099
156 1 0.331492 0.100086 0.418534
175 1 0.237017 0.153672 0.416487
222 1 0.244018 0.0864757 0.49638
160 1 0.493936 0.0821561 0.418824
179 1 0.425865 0.162289 0.412935
155 1 0.415654 0.0015849 0.420417
161 1 0.661797 0.00866374 0.334622
164 1 0.666537 0.0828322 0.427744
183 1 0.583785 0.165933 0.415843
159 1 0.584479 0.0117549 0.426438
230 1 0.578341 0.0875494 0.496942
163 1 0.768485 0.000420427 0.409926
162 1 0.749732 0.0902136 0.336843
234 1 0.766095 0.0829102 0.495523
165 1 0.843051 0.000977705 0.338836
145 1 0.99863 0.00696956 0.352647
167 1 0.919275 0.0170582 0.427559
148 1 0.998102 0.0890636 0.431354
168 1 0.839479 0.0911286 0.423481
166 1 0.906994 0.0891628 0.336805
169 1 0.000306866 0.183833 0.363845
170 1 0.0978771 0.241853 0.336256
171 1 0.0884871 0.185505 0.430135
172 1 0.00493612 0.271185 0.434247
197 1 0.168795 0.325319 0.34519
273 1 0.33045 0.317218 0.499351
176 1 0.176257 0.248043 0.419363
174 1 0.256157 0.238041 0.343996
199 1 0.262625 0.324258 0.422974
250 1 0.424303 0.244373 0.487351
201 1 0.336979 0.324546 0.338285
180 1 0.342807 0.242127 0.420144
184 1 0.496218 0.246477 0.403088
182 1 0.585447 0.264717 0.338628
188 1 0.658003 0.252546 0.419294
253 1 0.502918 0.174069 0.497616
186 1 0.750237 0.258198 0.336356
213 1 0.831628 0.332832 0.354001
187 1 0.744215 0.172161 0.431626
189 1 0.814683 0.177477 0.355649
192 1 0.83003 0.260569 0.437313
190 1 0.911777 0.253475 0.353102
191 1 0.912855 0.177823 0.428235
195 1 0.0945484 0.337948 0.422241
193 1 0.000931135 0.342999 0.35055
194 1 0.0937341 0.430351 0.348924
200 1 0.172945 0.414904 0.422702
661 1 0.492561 0.496991 0.496039
203 1 0.409337 0.345527 0.417907
589 1 0.494491 0.499861 0.335353
585 1 0.33337 0.499102 0.343164
202 1 0.407564 0.41333 0.337832
208 1 0.489379 0.42029 0.416945
204 1 0.33863 0.424257 0.425607
587 1 0.418023 0.497066 0.416069
207 1 0.577059 0.34762 0.417013
591 1 0.594839 0.493543 0.429598
205 1 0.505325 0.337617 0.342699
212 1 0.663447 0.410586 0.42085
278 1 0.581154 0.411769 0.497974
206 1 0.581016 0.429782 0.335625
209 1 0.656266 0.339953 0.341509
281 1 0.672317 0.334045 0.499614
595 1 0.749282 0.487337 0.426451
211 1 0.742616 0.336695 0.41776
210 1 0.745211 0.41725 0.338016
196 1 0.999028 0.424582 0.420741
216 1 0.836794 0.416903 0.428141
214 1 0.905261 0.418164 0.341074
215 1 0.911482 0.343569 0.44366
220 1 0.00668666 0.0945884 0.596767
290 1 0.0911589 0.0707943 0.666558
317 1 0.164761 0.16519 0.65882
219 1 0.0701541 0.00799184 0.58134
224 1 0.172594 0.0783202 0.57987
228 1 0.319632 0.0943647 0.597144
294 1 0.239074 0.072245 0.66409
225 1 0.325051 0.0106955 0.500817
232 1 0.494571 0.0880832 0.581095
226 1 0.422574 0.0910196 0.503067
227 1 0.406442 0.0119997 0.574052
251 1 0.418682 0.164897 0.586396
301 1 0.49705 0.0128835 0.647582
233 1 0.659802 0.00257295 0.513594
302 1 0.574274 0.084999 0.648788
231 1 0.573131 0.00325917 0.573342
236 1 0.659904 0.0869213 0.58659
255 1 0.577786 0.164721 0.578392
305 1 0.678619 0.00187973 0.648139
259 1 0.749116 0.1648 0.579167
306 1 0.761005 0.0782064 0.652645
235 1 0.758944 0.000728434 0.568788
240 1 0.844599 0.0923908 0.588196
238 1 0.926951 0.102179 0.517181
310 1 0.918865 0.0991132 0.66533
309 1 0.855714 0.00798589 0.664255
239 1 0.926131 0.00810839 0.583848
237 1 0.8456 0.0152835 0.509451
243 1 0.0820133 0.181727 0.59765
244 1 0.00683517 0.262846 0.599602
248 1 0.158365 0.256852 0.59888
241 1 0.0121948 0.17412 0.513123
242 1 0.0794791 0.263491 0.508724
245 1 0.150619 0.169143 0.52263
247 1 0.23963 0.169093 0.590351
252 1 0.328883 0.252114 0.589267
249 1 0.323309 0.167524 0.514757
271 1 0.254377 0.331914 0.571327
246 1 0.234847 0.246243 0.506586
275 1 0.418402 0.325025 0.578026
345 1 0.337226 0.332893 0.662185
256 1 0.500685 0.244995 0.587797
279 1 0.576746 0.328679 0.591881
260 1 0.663491 0.262368 0.586754
329 1 0.64262 0.188072 0.655376
257 1 0.663291 0.176267 0.50577
254 1 0.573363 0.245977 0.501138
258 1 0.735947 0.249497 0.514951
261 1 0.832101 0.176309 0.50412
285 1 0.813595 0.331473 0.511899
263 1 0.916887 0.177591 0.589931
264 1 0.842463 0.260462 0.592282
287 1 0.924495 0.330409 0.584126
262 1 0.927159 0.251947 0.514509
266 1 0.0875697 0.43321 0.518549
267 1 0.0866722 0.341401 0.589167
268 1 0.00242856 0.425478 0.592702
649 1 0.0035078 0.499532 0.512026
338 1 0.0787854 0.432722 0.658396
269 1 0.161488 0.339422 0.500519
265 1 0.0124948 0.351947 0.50379
272 1 0.170198 0.426543 0.590476
342 1 0.256787 0.423145 0.657255
653 1 0.179511 0.492264 0.5064
270 1 0.260141 0.417539 0.511064
276 1 0.355154 0.41092 0.585234
274 1 0.426276 0.417077 0.504491
733 1 0.483838 0.494611 0.665447
657 1 0.340743 0.496035 0.502976
277 1 0.507503 0.33439 0.505506
280 1 0.504912 0.413123 0.58944
663 1 0.570629 0.499743 0.577594
667 1 0.752566 0.495251 0.599986
284 1 0.671627 0.426965 0.585482
283 1 0.747603 0.343682 0.602619
288 1 0.828709 0.42461 0.593098
282 1 0.749399 0.41951 0.505865
358 1 0.913474 0.441272 0.664143
286 1 0.920869 0.416769 0.518834
362 1 0.0859422 0.0680866 0.829746
289 1 0.00292986 0.00927598 0.676096
296 1 0.168542 0.0852324 0.756488
300 1 0.324165 0.0758197 0.754393
297 1 0.329409 0.00342419 0.666818
319 1 0.247383 0.160214 0.745543
298 1 0.415541 0.0856518 0.672793
304 1 0.492559 0.0862734 0.742015
323 1 0.409367 0.166509 0.755616
397 1 0.494315 0.152541 0.826825
374 1 0.583708 0.0772013 0.82917
327 1 0.582051 0.154463 0.75236
401 1 0.664584 0.161472 0.831536
303 1 0.57733 0.010495 0.742903
381 1 0.832539 0.00292354 0.827585
308 1 0.673134 0.0828446 0.732621
378 1 0.74824 0.0787681 0.806843
307 1 0.765168 0.00458021 0.737157
292 1 0.991535 0.0996366 0.73743
311 1 0.931277 0.0164629 0.760636
312 1 0.842294 0.0831223 0.735426
314 1 0.0751071 0.273507 0.685928
315 1 0.0825861 0.170448 0.75644
320 1 0.165828 0.249553 0.736294
318 1 0.252055 0.249943 0.678298
324 1 0.327895 0.247176 0.756768
390 1 0.236587 0.25624 0.824835
393 1 0.32358 0.16811 0.833269
321 1 0.336776 0.181676 0.667937
322 1 0.418056 0.258451 0.669451
328 1 0.49428 0.256402 0.745615
347 1 0.428717 0.332865 0.770427
325 1 0.504535 0.169258 0.668626
326 1 0.57374 0.257881 0.673088
332 1 0.665144 0.247331 0.754886
349 1 0.501013 0.326302 0.672636
351 1 0.583509 0.331269 0.762735
330 1 0.741896 0.24194 0.673142
331 1 0.759006 0.171271 0.752856
333 1 0.82919 0.178052 0.671231
402 1 0.755551 0.265874 0.832694
334 1 0.912937 0.249315 0.672457
313 1 0.997207 0.179036 0.676849
335 1 0.920288 0.170919 0.758409
336 1 0.842457 0.258225 0.755003
316 1 0.999733 0.245102 0.76923
405 1 0.840328 0.177243 0.82804
339 1 0.0912191 0.369212 0.74883
409 1 0.00830172 0.342921 0.818897
343 1 0.24599 0.337556 0.736278
341 1 0.169724 0.353453 0.667662
344 1 0.183755 0.429136 0.749125
348 1 0.328875 0.417001 0.75251
417 1 0.313537 0.344287 0.827654
414 1 0.24596 0.427002 0.827014
346 1 0.414121 0.417995 0.674771
418 1 0.414547 0.422203 0.826585
731 1 0.418731 0.498264 0.753053
350 1 0.602464 0.414127 0.668011
353 1 0.66584 0.334923 0.677013
352 1 0.523797 0.415309 0.745322
356 1 0.660915 0.422875 0.750931
426 1 0.737336 0.418977 0.826813
354 1 0.74769 0.42678 0.68059
355 1 0.730635 0.333794 0.752867
429 1 0.829132 0.344051 0.831264
741 1 0.821639 0.498932 0.675326
357 1 0.835709 0.348687 0.678147
337 1 0.992729 0.353672 0.670126
359 1 0.915821 0.348393 0.754442
340 1 0.990737 0.431895 0.751926
360 1 0.837464 0.430374 0.765384
365 1 0.164588 0.00843075 0.841219
2 1 0.0807126 0.0748486 0.986174
389 1 0.157439 0.162577 0.835156
6 1 0.24743 0.0962066 0.994994
367 1 0.251056 0.00247295 0.924469
368 1 0.173345 0.0819108 0.917936
366 1 0.244861 0.0820097 0.834682
372 1 0.327237 0.0901826 0.920174
369 1 0.329115 0.000347605 0.842802
371 1 0.408239 0.0155601 0.924909
373 1 0.491078 0.0150705 0.835399
370 1 0.400262 0.087579 0.837196
376 1 0.492109 0.0914714 0.92137
395 1 0.411828 0.165813 0.923589
33 1 0.337609 0.164164 0.991737
375 1 0.577528 0.0117191 0.911927
14 1 0.581564 0.0849119 0.996964
17 1 0.663487 0.000892485 0.980347
379 1 0.742395 0.00694586 0.910655
380 1 0.672565 0.0860683 0.909624
384 1 0.832848 0.0838664 0.922948
18 1 0.748207 0.071502 0.999804
22 1 0.911633 0.101628 0.994477
383 1 0.909871 0.0060053 0.921573
364 1 0.991529 0.0961748 0.932821
382 1 0.908504 0.0902763 0.83547
361 1 0.998194 0.000896952 0.847694
387 1 0.0774594 0.173033 0.907002
386 1 0.101044 0.277756 0.841907
392 1 0.147236 0.266633 0.934182
388 1 0.00691627 0.261187 0.914439
49 1 0.0104142 0.314792 0.999765
391 1 0.237315 0.16693 0.905684
396 1 0.324106 0.247767 0.907026
61 1 0.484924 0.329047 0.986862
34 1 0.413554 0.256035 0.989875
394 1 0.420681 0.246832 0.834657
399 1 0.589762 0.172603 0.924599
400 1 0.505887 0.235342 0.917635
398 1 0.581145 0.24003 0.841545
38 1 0.580762 0.249034 0.998814
45 1 0.826281 0.173595 0.995091
403 1 0.763581 0.169586 0.90973
404 1 0.674854 0.238328 0.921767
408 1 0.830825 0.256667 0.91367
385 1 0.99919 0.167477 0.838151
406 1 0.916405 0.264544 0.835853
407 1 0.909513 0.177138 0.91093
412 1 0.00258464 0.43225 0.914482
411 1 0.0850007 0.35582 0.926825
410 1 0.0853642 0.424395 0.843109
420 1 0.331287 0.420481 0.918449
415 1 0.253839 0.345758 0.929238
413 1 0.175225 0.350638 0.853629
416 1 0.17559 0.420921 0.939664
57 1 0.332763 0.346565 0.998256
419 1 0.402192 0.335092 0.908073
424 1 0.49311 0.421024 0.935448
421 1 0.500164 0.342297 0.861476
422 1 0.582185 0.424073 0.849516
425 1 0.664166 0.335809 0.836417
423 1 0.589571 0.34428 0.926598
805 1 0.502976 0.493462 0.842313
428 1 0.667726 0.412643 0.921994
427 1 0.757757 0.351081 0.919713
66 1 0.761965 0.432308 0.994281
813 1 0.828803 0.493073 0.849406
65 1 0.68787 0.34004 0.999528
431 1 0.926956 0.33973 0.925556
432 1 0.84852 0.418366 0.927356
430 1 0.915283 0.418252 0.841649
440 1 0.164532 0.579503 0.0966917
437 1 0.163095 0.50019 0.019652
434 1 0.0787432 0.580533 0.00101263
444 1 0.316896 0.589205 0.0908595
441 1 0.331674 0.50167 0.000743121
461 1 0.167785 0.666255 0.0128477
438 1 0.23661 0.58154 0.00588526
439 1 0.255624 0.511169 0.0911962
448 1 0.492974 0.590605 0.0892497
445 1 0.49814 0.513359 0.00828756
514 1 0.412293 0.593449 0.157105
443 1 0.426367 0.503941 0.097438
452 1 0.662361 0.595853 0.0906766
447 1 0.579722 0.504665 0.0805659
518 1 0.576316 0.589882 0.160731
446 1 0.578934 0.583956 0.00337128
522 1 0.752133 0.58397 0.166209
449 1 0.668461 0.516117 0.0160521
451 1 0.760463 0.513583 0.0882485
450 1 0.745293 0.593703 0.0128797
456 1 0.841767 0.589878 0.106155
436 1 0.999738 0.594332 0.0869022
454 1 0.913134 0.592483 0.000448407
453 1 0.834991 0.506092 0.00823254
455 1 0.933164 0.505849 0.0823744
459 1 0.0821887 0.676937 0.0812317
458 1 0.0814879 0.763853 0.0193599
533 1 0.164589 0.67949 0.165099
530 1 0.0881154 0.755501 0.165917
557 1 0.161553 0.831689 0.160119
464 1 0.16821 0.748125 0.0846669
463 1 0.245267 0.68407 0.093984
487 1 0.249803 0.831332 0.0899242
465 1 0.328706 0.676866 0.0103776
462 1 0.256448 0.763838 0.00603586
468 1 0.334146 0.753985 0.0981678
467 1 0.41666 0.670155 0.0753562
472 1 0.495461 0.748952 0.0882798
466 1 0.409291 0.75832 0.00681637
471 1 0.581166 0.672201 0.0860375
476 1 0.659336 0.758094 0.083991
470 1 0.568572 0.765481 0.00487458
473 1 0.662852 0.681505 0.0115865
469 1 0.500521 0.672391 0.00226736
475 1 0.760278 0.678021 0.0864385
499 1 0.750314 0.82941 0.09648
478 1 0.915715 0.775936 0.00562125
457 1 0.984931 0.690329 0.0131199
477 1 0.838289 0.672449 0.0137262
480 1 0.835253 0.75131 0.0896188
460 1 0.987445 0.763972 0.0914062
479 1 0.922246 0.683168 0.0945904
483 1 0.0888682 0.849107 0.0771156
488 1 0.162471 0.919665 0.0843074
484 1 0.00394542 0.924569 0.0946447
553 1 0.00509745 0.835117 0.159442
482 1 0.0870971 0.925506 0.000466348
481 1 0.00181003 0.83986 0.0108725
7 1 0.2552 0.997032 0.0961487
486 1 0.255539 0.92646 0.00988205
5 1 0.16672 0.994328 0.00542317
493 1 0.497201 0.847031 0.0295143
490 1 0.429962 0.929615 0.00714054
492 1 0.333702 0.928018 0.0917114
491 1 0.419928 0.836728 0.0941167
562 1 0.417843 0.916681 0.166482
489 1 0.351081 0.850685 0.00653437
15 1 0.589382 0.998639 0.0808509
496 1 0.509656 0.92881 0.0898254
495 1 0.582042 0.8373 0.0980823
566 1 0.593597 0.923289 0.162258
494 1 0.589244 0.912661 0.00687697
13 1 0.513974 0.997267 0.00065036
501 1 0.827501 0.847974 0.00543727
498 1 0.742271 0.927861 0.00207309
500 1 0.670706 0.921422 0.083722
504 1 0.826078 0.923572 0.0812759
502 1 0.910975 0.931364 0.00272493
503 1 0.906866 0.835507 0.0940739
574 1 0.928784 0.909158 0.163378
23 1 0.912871 0.996671 0.0962421
506 1 0.0774287 0.596398 0.17051
507 1 0.0769173 0.513051 0.251314
512 1 0.166176 0.590644 0.253497
508 1 0.00721825 0.599735 0.261554
510 1 0.246445 0.602144 0.171076
516 1 0.314452 0.583832 0.262348
513 1 0.33021 0.500242 0.177916
541 1 0.498691 0.661764 0.172398
539 1 0.411091 0.649144 0.25042
515 1 0.401992 0.516623 0.247566
521 1 0.659361 0.502674 0.168271
520 1 0.506501 0.581991 0.26282
524 1 0.658257 0.583737 0.249426
517 1 0.502233 0.511707 0.168496
519 1 0.587033 0.501367 0.244186
528 1 0.828571 0.587879 0.253458
594 1 0.735327 0.588494 0.319539
523 1 0.737195 0.507935 0.25196
525 1 0.834139 0.507368 0.173932
526 1 0.929123 0.5779 0.179871
551 1 0.912778 0.665641 0.246735
531 1 0.0845706 0.671061 0.255819
602 1 0.0927157 0.742484 0.331581
532 1 0.000786429 0.751509 0.255549
534 1 0.248043 0.771626 0.176178
537 1 0.326711 0.677646 0.173737
605 1 0.173036 0.671174 0.332984
536 1 0.176058 0.770242 0.249525
535 1 0.24677 0.68249 0.253343
540 1 0.331834 0.756521 0.258765
538 1 0.418297 0.743109 0.167744
563 1 0.425104 0.833015 0.251286
609 1 0.344908 0.666844 0.330841
544 1 0.504497 0.753781 0.246917
543 1 0.589915 0.671027 0.251945
542 1 0.576921 0.768778 0.173807
548 1 0.660075 0.748906 0.254714
545 1 0.673389 0.667366 0.172681
547 1 0.747763 0.667672 0.253451
546 1 0.747792 0.74984 0.176717
571 1 0.750617 0.83134 0.266371
618 1 0.740664 0.742485 0.333261
529 1 0.998881 0.675139 0.17377
549 1 0.834103 0.684846 0.181506
552 1 0.835695 0.759488 0.26238
550 1 0.912715 0.754898 0.180094
622 1 0.918585 0.741824 0.329555
73 1 0.00354034 0.999816 0.172899
77 1 0.161046 0.997937 0.167906
555 1 0.0737497 0.840784 0.249088
554 1 0.0824311 0.922004 0.173306
560 1 0.163027 0.924387 0.252971
75 1 0.0812089 0.997175 0.255652
558 1 0.257573 0.923753 0.182538
559 1 0.25441 0.846429 0.256589
79 1 0.257327 0.996352 0.261406
561 1 0.335038 0.841913 0.172036
83 1 0.426373 0.998435 0.242016
564 1 0.348975 0.938068 0.262365
568 1 0.501735 0.919072 0.255004
565 1 0.504866 0.845601 0.169614
567 1 0.591613 0.835834 0.256193
637 1 0.506994 0.841941 0.328727
569 1 0.672012 0.839167 0.181678
570 1 0.75302 0.926985 0.178374
572 1 0.666951 0.915673 0.260055
645 1 0.835131 0.836486 0.330885
573 1 0.836252 0.838138 0.180601
556 1 0.995385 0.925276 0.266275
576 1 0.83869 0.921355 0.258657
575 1 0.917396 0.836707 0.254496
579 1 0.0876199 0.509318 0.428409
578 1 0.0816082 0.582522 0.341215
584 1 0.165312 0.579242 0.419783
580 1 0.0084236 0.575095 0.43026
582 1 0.245288 0.580731 0.341244
677 1 0.18404 0.66109 0.49725
681 1 0.319943 0.663299 0.493363
583 1 0.248138 0.500178 0.425773
654 1 0.255885 0.576447 0.499526
588 1 0.343127 0.582872 0.415677
586 1 0.419941 0.585606 0.34198
592 1 0.499179 0.589422 0.409435
590 1 0.58823 0.574687 0.339286
617 1 0.659882 0.659243 0.334863
621 1 0.824607 0.6559 0.336048
596 1 0.673081 0.582387 0.422442
600 1 0.80735 0.58118 0.422438
593 1 0.669006 0.503691 0.345084
577 1 0.995732 0.502809 0.344304
599 1 0.917335 0.501826 0.41469
598 1 0.91925 0.591551 0.339754
674 1 0.0772443 0.747329 0.499855
625 1 0.0138446 0.831638 0.340475
603 1 0.0887515 0.670834 0.420448
608 1 0.159378 0.747436 0.414011
601 1 0.00347837 0.667949 0.353677
604 1 0.0096926 0.757424 0.413398
606 1 0.25194 0.755411 0.339174
607 1 0.251703 0.66853 0.413389
631 1 0.252262 0.823816 0.416224
610 1 0.419795 0.742033 0.342828
612 1 0.338964 0.752209 0.414316
611 1 0.41656 0.667014 0.42026
616 1 0.482704 0.751301 0.426075
614 1 0.593252 0.751478 0.342031
615 1 0.578339 0.670774 0.434659
613 1 0.512691 0.681312 0.338704
620 1 0.663202 0.747956 0.44272
713 1 0.659912 0.831635 0.494636
641 1 0.672392 0.832341 0.352248
643 1 0.74961 0.826067 0.421951
619 1 0.734048 0.667168 0.416198
624 1 0.826112 0.73932 0.41585
647 1 0.921624 0.820839 0.414959
623 1 0.919673 0.669198 0.426913
626 1 0.0818598 0.932219 0.335679
629 1 0.166387 0.841044 0.340119
627 1 0.0900427 0.841215 0.41336
701 1 0.160444 0.836325 0.493393
630 1 0.249254 0.918512 0.334829
632 1 0.179706 0.924097 0.409229
636 1 0.319313 0.920492 0.414058
157 1 0.494791 0.996944 0.336937
634 1 0.424268 0.91967 0.351361
633 1 0.338292 0.845083 0.338112
635 1 0.400093 0.846775 0.424771
640 1 0.499826 0.913383 0.426898
229 1 0.494968 0.999671 0.499259
706 1 0.415387 0.931417 0.499475
710 1 0.586493 0.914559 0.498881
639 1 0.583855 0.835925 0.422575
638 1 0.584854 0.917045 0.349156
714 1 0.755437 0.92723 0.492784
642 1 0.759003 0.913668 0.337547
644 1 0.671608 0.93409 0.411702
646 1 0.911649 0.910369 0.33914
718 1 0.917646 0.917612 0.499662
648 1 0.839639 0.906599 0.409462
628 1 0.998667 0.908423 0.431563
656 1 0.16613 0.579328 0.582417
650 1 0.0934773 0.606324 0.511433
651 1 0.073514 0.522965 0.579873
673 1 0.00842064 0.665905 0.501571
655 1 0.263653 0.506998 0.594119
660 1 0.336448 0.586837 0.57193
730 1 0.407269 0.599591 0.66586
658 1 0.423855 0.588059 0.505117
659 1 0.407868 0.505904 0.580548
664 1 0.501005 0.58539 0.596913
668 1 0.659496 0.581688 0.591452
662 1 0.567151 0.582591 0.512646
689 1 0.662532 0.654698 0.512459
737 1 0.663303 0.506116 0.666222
738 1 0.739796 0.604942 0.663361
672 1 0.823576 0.585715 0.584462
666 1 0.756176 0.56713 0.516894
665 1 0.675705 0.504569 0.507137
652 1 0.999027 0.605203 0.590851
742 1 0.907902 0.587086 0.665098
669 1 0.845662 0.502906 0.500625
693 1 0.835653 0.654821 0.506201
671 1 0.907961 0.514048 0.585342
670 1 0.930165 0.58804 0.50571
675 1 0.0959341 0.670948 0.588933
676 1 0.00762102 0.747827 0.585931
680 1 0.165656 0.751704 0.574977
699 1 0.0791258 0.832552 0.579628
773 1 0.157862 0.825485 0.653976
679 1 0.254129 0.672214 0.589394
684 1 0.328877 0.755863 0.594608
678 1 0.257291 0.766349 0.508839
685 1 0.491633 0.669855 0.509801
683 1 0.414625 0.674023 0.586371
707 1 0.418187 0.831825 0.58169
688 1 0.497564 0.747581 0.593999
754 1 0.415748 0.756889 0.665331
682 1 0.410127 0.75941 0.500693
686 1 0.572347 0.749488 0.502889
687 1 0.575089 0.670564 0.581713
761 1 0.653776 0.672986 0.648762
692 1 0.663366 0.751908 0.569681
709 1 0.503029 0.831121 0.504177
690 1 0.745452 0.741121 0.503312
691 1 0.745043 0.670933 0.586504
715 1 0.747575 0.822017 0.579459
762 1 0.751291 0.756677 0.663845
696 1 0.837169 0.744088 0.577301
695 1 0.919629 0.671258 0.587907
694 1 0.918382 0.748657 0.50035
697 1 0.992834 0.832984 0.509485
719 1 0.915253 0.829612 0.584896
765 1 0.835 0.667937 0.664619
766 1 0.918556 0.748682 0.664288
698 1 0.0818519 0.911809 0.500217
770 1 0.0741685 0.930379 0.6594
702 1 0.257896 0.923415 0.506915
221 1 0.172783 0.996992 0.508647
703 1 0.254463 0.866994 0.593537
704 1 0.169503 0.928979 0.58469
223 1 0.247386 0.998756 0.582047
705 1 0.334082 0.841704 0.518956
708 1 0.344409 0.930253 0.590614
778 1 0.425467 0.920265 0.655985
711 1 0.580948 0.838059 0.589361
712 1 0.505604 0.918607 0.579219
782 1 0.583852 0.929967 0.658345
717 1 0.832351 0.833615 0.507765
789 1 0.829817 0.838327 0.652705
716 1 0.670645 0.911 0.570248
786 1 0.752418 0.931294 0.645042
700 1 0.997307 0.924672 0.587473
720 1 0.850672 0.915215 0.578611
217 1 0.997869 0.991952 0.501687
790 1 0.912889 0.915451 0.66387
723 1 0.0970229 0.505374 0.752585
722 1 0.0933486 0.597543 0.669857
724 1 0.0130124 0.600959 0.744209
725 1 0.166895 0.51533 0.667027
726 1 0.243661 0.593987 0.667166
728 1 0.179412 0.600639 0.768209
732 1 0.325731 0.591012 0.759895
729 1 0.333061 0.509946 0.668668
727 1 0.252006 0.510692 0.742418
801 1 0.339534 0.501262 0.830073
736 1 0.495709 0.578634 0.754931
755 1 0.408379 0.665425 0.750469
802 1 0.410076 0.58491 0.827998
734 1 0.587832 0.583994 0.680404
735 1 0.581876 0.505084 0.748472
806 1 0.596397 0.612468 0.83054
739 1 0.744645 0.508513 0.760629
740 1 0.671983 0.609663 0.752135
744 1 0.835301 0.587048 0.774295
743 1 0.910384 0.508829 0.760474
793 1 0.99961 0.512253 0.832379
721 1 0.985238 0.516441 0.674646
749 1 0.163053 0.694455 0.669319
747 1 0.0918088 0.679557 0.745621
746 1 0.0782676 0.757346 0.669262
745 1 0.00378432 0.682645 0.673401
752 1 0.174132 0.755698 0.760313
753 1 0.324483 0.670315 0.67703
750 1 0.242673 0.768515 0.668885
751 1 0.243803 0.679952 0.753802
757 1 0.488987 0.679225 0.686144
756 1 0.334194 0.758612 0.750736
760 1 0.498509 0.76314 0.753384
781 1 0.499757 0.827274 0.674546
759 1 0.576959 0.674946 0.747207
758 1 0.582273 0.75548 0.677789
764 1 0.664144 0.747847 0.764618
857 1 0.663562 0.830666 0.83109
763 1 0.761567 0.675854 0.74835
767 1 0.909482 0.675494 0.748654
768 1 0.833501 0.76276 0.745044
748 1 0.996246 0.759556 0.743293
771 1 0.0887144 0.837574 0.760032
291 1 0.0872321 0.994231 0.750443
841 1 0.008723 0.838421 0.821209
293 1 0.173131 0.996116 0.670727
775 1 0.247698 0.838525 0.763832
776 1 0.167745 0.916235 0.770183
774 1 0.24696 0.918757 0.681722
295 1 0.24511 0.997594 0.747738
846 1 0.25111 0.922296 0.831642
777 1 0.334958 0.839591 0.674319
779 1 0.412969 0.844045 0.74076
780 1 0.336743 0.908895 0.749792
299 1 0.409723 0.999132 0.752019
784 1 0.504695 0.92013 0.750614
854 1 0.586487 0.930542 0.825563
783 1 0.588273 0.850601 0.754411
858 1 0.75002 0.925563 0.828026
785 1 0.675167 0.851051 0.668126
788 1 0.67579 0.935941 0.747752
787 1 0.753503 0.851173 0.742901
791 1 0.918354 0.834949 0.73759
769 1 0.99771 0.840767 0.672018
772 1 0.98879 0.923474 0.751671
792 1 0.836156 0.925777 0.752624
861 1 0.845869 0.836286 0.822368
862 1 0.912069 0.921292 0.833308
795 1 0.0836215 0.50493 0.925618
794 1 0.0861177 0.587234 0.852273
797 1 0.155737 0.505439 0.840627
799 1 0.244781 0.503929 0.925058
800 1 0.172982 0.595693 0.916984
798 1 0.257813 0.587548 0.850346
442 1 0.416583 0.578588 0.998471
804 1 0.341005 0.5795 0.92275
808 1 0.497722 0.583834 0.919549
803 1 0.416842 0.503209 0.914168
807 1 0.578227 0.509068 0.918411
809 1 0.660058 0.506361 0.83963
812 1 0.65716 0.601264 0.934647
811 1 0.755159 0.504939 0.92562
810 1 0.760445 0.583858 0.847394
833 1 0.686354 0.666236 0.841889
814 1 0.920676 0.594782 0.851554
816 1 0.84748 0.589567 0.92943
815 1 0.923619 0.505354 0.910219
796 1 0.989794 0.582285 0.9257
819 1 0.0776531 0.684236 0.932252
818 1 0.0850748 0.759026 0.846577
824 1 0.15628 0.755893 0.923196
821 1 0.174562 0.68287 0.836194
823 1 0.243759 0.677679 0.93056
822 1 0.253428 0.757038 0.848637
827 1 0.402375 0.673656 0.922658
829 1 0.481054 0.681521 0.836177
825 1 0.333716 0.673197 0.836671
828 1 0.343365 0.767927 0.93094
826 1 0.402794 0.759763 0.84123
832 1 0.484546 0.760842 0.93285
830 1 0.573011 0.765627 0.838582
831 1 0.566203 0.682746 0.909142
836 1 0.65405 0.753136 0.917023
474 1 0.749923 0.772564 0.995858
834 1 0.745659 0.762536 0.840451
835 1 0.74692 0.678685 0.929707
840 1 0.833077 0.757381 0.901113
817 1 0.996393 0.675642 0.835207
837 1 0.841181 0.668466 0.849575
839 1 0.91382 0.678768 0.923845
838 1 0.927033 0.756516 0.83406
820 1 0.989993 0.769108 0.920776
1 1 0.000469329 0.993604 0.997051
844 1 0.00596697 0.908823 0.909707
363 1 0.0814499 0.993323 0.91489
843 1 0.082566 0.841962 0.92699
842 1 0.0829389 0.914388 0.842578
845 1 0.16601 0.834566 0.843671
485 1 0.16966 0.840496 0.995127
848 1 0.1743 0.927457 0.911788
847 1 0.251629 0.837491 0.923161
849 1 0.337055 0.846806 0.837206
852 1 0.333535 0.922801 0.924674
850 1 0.414245 0.917614 0.842956
851 1 0.418908 0.852634 0.926029
853 1 0.494418 0.839 0.833931
860 1 0.660303 0.915519 0.913049
855 1 0.580851 0.8456 0.927767
856 1 0.512343 0.918794 0.909722
497 1 0.667774 0.838306 0.996325
377 1 0.667547 0.994621 0.835647
864 1 0.819155 0.928941 0.904404
859 1 0.745157 0.841389 0.908983
863 1 0.906737 0.846682 0.917285
