ITEM: TIMESTEP
8000
ITEM: NUMBER OF ATOMS
864
ITEM: BOX BOUNDS pp pp pp
0.0000000000000000e+00 3.1559999999999999e+01
0.0000000000000000e+00 3.1559999999999999e+01
0.0000000000000000e+00 3.1559999999999999e+01
ITEM: ATOMS id type xs ys zs
4 1 0.991481 0.0747723 0.0663504
29 1 0.163418 0.163015 0.991465
146 1 0.102528 0.0977499 0.168086
145 1 0.0111068 0.00853915 0.156329
2 1 0.0719227 0.0845105 0.98865
8 1 0.1697 0.0765471 0.0727297
31 1 0.240729 0.171187 0.0808368
177 1 0.333061 0.16588 0.161543
173 1 0.17828 0.174712 0.170682
12 1 0.323006 0.084269 0.0812128
35 1 0.418393 0.15745 0.0808162
154 1 0.414285 0.0767914 0.15182
181 1 0.497089 0.168797 0.172045
9 1 0.332402 0.0122025 1.00006
10 1 0.453106 0.0718525 0.995179
16 1 0.505989 0.0826867 0.087829
14 1 0.586217 0.0774915 0.986219
39 1 0.59044 0.170083 0.0919314
157 1 0.483687 -0.00548992 0.163989
158 1 0.588514 0.0883723 0.173488
185 1 0.689681 0.171573 0.171443
20 1 0.667891 0.0933133 0.0957415
18 1 0.75392 0.0964663 0.0109873
162 1 0.752556 0.0900394 0.177104
24 1 0.843499 0.0763382 0.0828894
41 1 0.676767 0.171003 0.990397
43 1 0.743872 0.178876 0.0816145
166 1 0.915583 0.0715194 0.165033
47 1 0.918589 0.165853 0.0799648
189 1 0.843707 0.155409 0.167471
45 1 0.83556 0.162862 0.997219
27 1 0.0868283 0.165681 0.0731172
28 1 1.01222 0.247132 0.0942004
26 1 0.0786782 0.249461 1.01141
32 1 0.176419 0.252779 0.0702023
51 1 0.0840086 0.325721 0.0919102
49 1 1.00847 0.325372 -0.00510547
30 1 0.256347 0.246826 0.98401
53 1 0.180959 0.330404 0.993425
174 1 0.258705 0.254326 0.16552
201 1 0.320819 0.33012 0.148859
36 1 0.324661 0.239687 0.0783342
40 1 0.507907 0.244348 0.0768504
34 1 0.43369 0.235118 0.986665
57 1 0.334275 0.319537 0.996957
59 1 0.426013 0.326399 0.0639519
63 1 0.573763 0.334548 0.0803022
182 1 0.594771 0.259664 0.17202
44 1 0.662682 0.248481 0.0780905
67 1 0.735644 0.337442 0.082564
186 1 0.765378 0.243024 0.167681
209 1 0.669205 0.324019 0.157871
42 1 0.771399 0.262502 -0.00316635
48 1 0.832577 0.24269 0.08537
71 1 0.928503 0.326113 0.0798996
190 1 0.915401 0.239683 0.154124
69 1 0.85054 0.327873 1.00326
56 1 0.175322 0.409379 0.0762765
75 1 0.0928907 0.478611 0.091547
52 1 0.00413304 0.403555 0.0861437
193 1 0.996363 0.330583 0.165409
55 1 0.254061 0.335126 0.0671758
79 1 0.246606 0.490019 0.0591347
54 1 0.257218 0.414965 0.980537
60 1 0.332524 0.412381 0.0838579
202 1 0.409139 0.418629 0.15571
205 1 0.496331 0.344738 0.165118
64 1 0.493231 0.42111 0.0662304
68 1 0.665109 0.435817 0.0919631
87 1 0.587319 0.515215 0.0890632
72 1 0.830362 0.406588 0.0878092
66 1 0.748206 0.412558 0.00163978
210 1 0.741954 0.423307 0.173936
213 1 0.834585 0.321829 0.156038
95 1 0.946101 0.48212 0.0983781
80 1 0.170068 0.587004 0.0664333
99 1 0.0933318 0.656958 0.0834948
74 1 0.0878311 0.575135 0.985217
76 1 0.016749 0.573492 0.0780211
77 1 0.161291 0.493867 0.986951
222 1 0.253839 0.574965 0.151578
78 1 0.256812 0.58637 1.00895
105 1 0.327715 0.685668 0.990658
84 1 0.337415 0.58237 0.0819306
83 1 0.402483 0.500118 0.0803632
88 1 0.491169 0.591296 0.0960133
253 1 0.493863 0.668919 0.175821
111 1 0.573482 0.662694 0.0935348
230 1 0.611768 0.586433 0.179571
109 1 0.507338 0.668042 0.00581516
92 1 0.676188 0.599321 0.093341
91 1 0.767004 0.501448 0.0845123
115 1 0.748616 0.678036 0.0905232
90 1 0.752286 0.592358 0.000572221
113 1 0.652563 0.672218 -0.00172964
117 1 0.824883 0.671368 0.0112899
93 1 0.848805 0.48049 0.0191545
96 1 0.829001 0.585233 0.0655028
119 1 0.932231 0.671866 0.0721225
97 1 1.01465 0.654859 1.00736
123 1 0.085496 0.830481 0.0719765
101 1 0.172027 0.665007 0.996232
242 1 0.0903976 0.735784 0.157599
104 1 0.169678 0.742475 0.0769449
103 1 0.254363 0.684904 0.0802889
129 1 0.341008 0.839489 -0.00697219
107 1 0.416767 0.666376 0.0913931
108 1 0.335418 0.759857 0.0856368
112 1 0.518797 0.759093 0.0922746
131 1 0.41428 0.847579 0.0809117
116 1 0.652757 0.752202 0.10456
135 1 0.589563 0.854122 0.0831714
254 1 0.580873 0.762577 0.181263
133 1 0.505826 0.845694 -0.00631105
120 1 0.831649 0.75848 0.0783734
139 1 0.770861 0.842809 0.0864863
258 1 0.746463 0.747117 0.17474
281 1 0.669958 0.831646 0.169892
100 1 0.988889 0.767234 0.0885202
143 1 0.919384 0.849229 0.0893161
285 1 0.840093 0.837507 0.179744
3 1 0.0876581 0.00872397 0.0645083
128 1 0.166698 0.931227 0.0814697
124 1 0.00443462 0.919666 0.0652725
7 1 0.241158 -0.002079 0.0920185
149 1 0.161373 0.00238602 0.168897
127 1 0.249672 0.846916 0.0793129
270 1 0.266614 0.92988 0.175311
126 1 0.248062 0.915568 -0.000880437
11 1 0.415722 -0.00371423 0.0703558
132 1 0.326922 0.917169 0.0774935
136 1 0.506822 0.930657 0.0881325
273 1 0.332726 0.837219 0.178893
130 1 0.424954 0.9279 -0.00620173
15 1 0.599171 0.0060297 0.0743914
278 1 0.590402 0.90266 0.178934
13 1 0.519218 0.989574 -0.00836394
134 1 0.59738 0.922517 1.00178
140 1 0.673411 0.930423 0.0835515
19 1 0.746495 1.0114 0.0912684
282 1 0.75116 0.916008 0.172018
161 1 0.665841 0.994819 0.183013
17 1 0.676344 0.0166394 0.99966
23 1 0.918209 0.993759 0.086118
165 1 0.843153 1.00318 0.177962
144 1 0.840548 0.925215 0.0798273
142 1 0.907645 0.906803 0.982874
290 1 0.0835184 0.0891262 0.336918
152 1 0.167325 0.0925231 0.250304
148 1 -0.00236304 0.0859174 0.254131
147 1 0.0843153 0.0156322 0.249096
293 1 0.162621 0.985455 0.330926
153 1 0.343932 0.0120339 0.192245
150 1 0.253581 0.092207 0.172448
175 1 0.255689 0.182101 0.254937
321 1 0.326006 0.157026 0.34442
317 1 0.181096 0.169597 0.337711
294 1 0.243053 0.0782619 0.340126
156 1 0.336359 0.101197 0.253774
325 1 0.508537 0.172078 0.327649
298 1 0.408697 0.0873432 0.337969
160 1 0.489092 0.0848637 0.239144
302 1 0.60255 0.0834291 0.329009
183 1 0.595463 0.161582 0.236538
159 1 0.585948 -0.00259318 0.257122
301 1 0.514887 0.00751886 0.347957
305 1 0.67206 0.989489 0.3374
164 1 0.668733 0.0873756 0.254628
187 1 0.765354 0.175664 0.257952
306 1 0.749843 0.101297 0.340071
333 1 0.836974 0.167452 0.345142
168 1 0.834696 0.0789574 0.258648
310 1 0.901036 0.0702591 0.347057
170 1 0.0713326 0.228488 0.168696
171 1 0.0745875 0.167816 0.267339
172 1 0.997808 0.237361 0.248752
314 1 0.0865349 0.254706 0.343703
197 1 0.174615 0.315726 0.157827
176 1 0.170716 0.248004 0.25531
180 1 0.345361 0.247639 0.233719
199 1 0.248367 0.33158 0.248318
341 1 0.171211 0.358313 0.344988
318 1 0.234327 0.263345 0.339755
345 1 0.340807 0.327354 0.325153
178 1 0.417338 0.253607 0.15148
179 1 0.422643 0.17497 0.241949
203 1 0.41692 0.332281 0.234677
322 1 0.425114 0.242768 0.319953
184 1 0.509769 0.27163 0.240314
349 1 0.486901 0.33553 0.320739
188 1 0.678834 0.25193 0.255972
326 1 0.591096 0.267261 0.340393
211 1 0.747089 0.337042 0.245301
330 1 0.764835 0.257946 0.359203
169 1 1.00414 0.14515 0.169652
191 1 0.916938 0.166555 0.260933
192 1 0.83326 0.253015 0.272905
215 1 0.911235 0.321073 0.246587
334 1 0.910621 0.254473 0.337528
195 1 0.0712298 0.320887 0.248629
194 1 0.086673 0.398283 0.167577
196 1 1.00297 0.404904 0.245977
200 1 0.158072 0.404982 0.242761
217 1 0.0197483 0.497463 0.176944
198 1 0.235682 0.406352 0.170888
342 1 0.257998 0.429171 0.327356
204 1 0.339013 0.399299 0.233858
223 1 0.257692 0.503672 0.249843
365 1 0.161152 0.477773 0.319865
227 1 0.398132 0.500647 0.250074
346 1 0.405476 0.416386 0.333381
208 1 0.496305 0.428497 0.234778
206 1 0.585987 0.410502 0.168903
207 1 0.596083 0.336251 0.248511
212 1 0.662061 0.428499 0.251027
231 1 0.579638 0.504507 0.236418
353 1 0.671799 0.329856 0.337703
237 1 0.853585 0.502106 0.149702
216 1 0.83584 0.426658 0.236842
214 1 0.917824 0.403909 0.169727
239 1 0.928245 0.502924 0.232747
221 1 0.178341 0.498121 0.171971
219 1 0.0863676 0.500705 0.256631
218 1 0.103055 0.569416 0.141683
241 1 1.01575 0.651525 0.157511
243 1 0.107202 0.660653 0.235718
224 1 0.182672 0.584167 0.237692
245 1 0.180804 0.658255 0.158209
366 1 0.2346 0.574358 0.330425
228 1 0.321914 0.584922 0.241559
225 1 0.33518 0.504194 0.161243
226 1 0.408219 0.587161 0.157119
251 1 0.418278 0.647299 0.241407
370 1 0.410145 0.575502 0.324801
232 1 0.490179 0.570736 0.242277
229 1 0.49359 0.501103 0.157832
236 1 0.678747 0.595163 0.259789
255 1 0.577239 0.663026 0.248886
373 1 0.498668 0.505877 0.326348
233 1 0.68647 0.508399 0.165445
234 1 0.773103 0.592684 0.163846
235 1 0.757952 0.498042 0.249269
378 1 0.760868 0.580418 0.332308
405 1 0.845584 0.670391 0.334194
238 1 0.917542 0.598833 0.155307
385 1 0.0186022 0.666311 0.32539
240 1 0.834452 0.601377 0.248146
220 1 1.00034 0.581744 0.240644
382 1 0.934272 0.601498 0.343324
244 1 0.00236155 0.744375 0.235994
249 1 0.331088 0.67855 0.159507
247 1 0.253449 0.674582 0.242022
389 1 0.176349 0.682035 0.333053
246 1 0.241438 0.748108 0.164885
248 1 0.170919 0.770075 0.247427
252 1 0.337543 0.739979 0.254429
271 1 0.250619 0.835945 0.241885
250 1 0.419768 0.754333 0.168324
277 1 0.506746 0.843311 0.149078
256 1 0.492468 0.759226 0.243687
279 1 0.563849 0.838216 0.265094
398 1 0.57575 0.74593 0.327922
259 1 0.755811 0.670065 0.265833
257 1 0.671293 0.673129 0.171608
260 1 0.672378 0.746853 0.256836
283 1 0.756582 0.8363 0.265144
264 1 0.827522 0.742014 0.250778
261 1 0.834327 0.686608 0.163699
262 1 0.915306 0.768665 0.160531
263 1 0.915184 0.679485 0.242397
266 1 0.0905272 0.928613 0.161463
269 1 0.177773 0.837217 0.155616
265 1 0.00545863 0.852679 0.153344
267 1 0.0917039 0.845518 0.224549
268 1 1.0047 0.917056 0.254419
151 1 0.236499 0.00928678 0.259732
272 1 0.180418 0.914948 0.255048
276 1 0.344927 0.918407 0.263395
297 1 0.336052 -0.00747662 0.339655
275 1 0.413938 0.846245 0.256186
274 1 0.399556 0.923973 0.163395
155 1 0.420716 -0.00199403 0.269167
418 1 0.425847 0.915047 0.336229
280 1 0.491383 0.911913 0.23478
421 1 0.49994 0.836799 0.355156
284 1 0.659757 0.899604 0.259629
422 1 0.57578 0.926918 0.328847
163 1 0.734462 1.00431 0.253091
426 1 0.744234 0.910716 0.36388
286 1 0.924043 0.924944 0.177128
287 1 0.9108 0.823319 0.262249
309 1 0.804666 -0.00887817 0.342152
167 1 0.934995 1.01137 0.26251
288 1 0.829966 0.920226 0.270114
315 1 0.101269 0.177815 0.420551
296 1 0.17072 0.0799728 0.424233
289 1 0.0145215 1.00263 0.327363
438 1 0.254384 0.0647761 0.499042
295 1 0.238922 0.988516 0.421536
300 1 0.32948 0.0620463 0.425598
323 1 0.410372 0.177836 0.423486
299 1 0.433588 0.0047634 0.420337
304 1 0.501799 0.105017 0.414155
442 1 0.418859 0.0832838 0.495832
441 1 0.343045 0.980894 0.501336
303 1 0.591258 1.00423 0.427983
327 1 0.576664 0.179346 0.412522
446 1 0.589118 0.0956082 0.477921
329 1 0.657659 0.172696 0.330236
308 1 0.673527 0.0770908 0.414922
312 1 0.82394 0.0817373 0.423508
292 1 0.995215 0.0857347 0.423698
335 1 0.909878 0.163985 0.424638
313 1 0.980478 0.171082 0.340527
311 1 0.920168 1.00254 0.421672
461 1 0.179194 0.165053 0.506443
320 1 0.172409 0.264206 0.426791
316 1 0.00359047 0.237992 0.419602
339 1 0.0555859 0.334759 0.410227
458 1 0.0666598 0.251005 0.513994
485 1 0.173146 0.339814 0.520405
319 1 0.250134 0.174001 0.422702
343 1 0.258308 0.340123 0.425396
324 1 0.319018 0.252295 0.410904
462 1 0.250161 0.263874 0.496674
347 1 0.42188 0.324329 0.410096
465 1 0.322697 0.153421 0.494796
466 1 0.412701 0.251449 0.50088
493 1 0.49412 0.330555 0.498838
328 1 0.498955 0.249587 0.402701
351 1 0.569414 0.337388 0.422353
332 1 0.66933 0.254762 0.423254
331 1 0.743598 0.168299 0.427611
474 1 0.755881 0.263752 0.496952
355 1 0.749393 0.342936 0.419696
336 1 0.836864 0.247543 0.429004
359 1 0.890986 0.339091 0.400614
478 1 0.912501 0.255206 0.501352
338 1 0.0766909 0.406456 0.322417
482 1 0.0863125 0.394017 0.49925
340 1 1.00278 0.425497 0.402023
344 1 0.173698 0.413904 0.434958
509 1 0.160667 0.498647 0.506548
369 1 0.319164 0.506017 0.336227
367 1 0.24878 0.487075 0.411457
486 1 0.258752 0.432912 0.504928
348 1 0.331578 0.408301 0.404217
371 1 0.409578 0.49869 0.404921
352 1 0.493933 0.414213 0.405954
513 1 0.347889 0.498487 0.494027
377 1 0.665034 0.497458 0.325742
350 1 0.575764 0.42592 0.337523
494 1 0.576506 0.424741 0.492316
356 1 0.673239 0.420665 0.406743
354 1 0.742494 0.419826 0.329635
379 1 0.744361 0.502228 0.401699
360 1 0.834936 0.438926 0.406536
381 1 0.854186 0.50287 0.317248
337 1 -0.0127841 0.325537 0.327766
358 1 0.915827 0.421812 0.320129
357 1 0.821966 0.353579 0.324039
502 1 0.912019 0.41924 0.499268
361 1 1.00772 0.505265 0.324306
362 1 0.0994733 0.593701 0.325445
363 1 0.0741514 0.497197 0.421966
505 1 0.0141399 0.492488 0.522181
364 1 0.0194617 0.591287 0.419412
506 1 0.0803693 0.573005 0.508887
529 1 0.0115349 0.664016 0.51503
368 1 0.150288 0.56765 0.414625
391 1 0.234507 0.656537 0.426496
533 1 0.152913 0.662134 0.50368
372 1 0.316895 0.569714 0.425907
537 1 0.32281 0.659442 0.495702
514 1 0.414415 0.577805 0.492165
395 1 0.420528 0.656479 0.406705
376 1 0.493087 0.580286 0.418609
517 1 0.500371 0.509738 0.499069
401 1 0.662284 0.678022 0.339586
374 1 0.57925 0.578658 0.323967
375 1 0.579045 0.505971 0.414164
518 1 0.576856 0.573402 0.499421
380 1 0.672923 0.585979 0.412534
403 1 0.76872 0.658863 0.42989
384 1 0.849622 0.567664 0.402191
522 1 0.758151 0.569108 0.485904
383 1 0.932956 0.509544 0.431884
407 1 0.932107 0.677417 0.434267
387 1 0.0942577 0.671848 0.416789
386 1 0.093764 0.744783 0.318367
392 1 0.169512 0.750922 0.424287
411 1 0.093088 0.829221 0.419572
393 1 0.324324 0.654085 0.344217
390 1 0.243999 0.756323 0.315922
396 1 0.333814 0.744144 0.415323
394 1 0.405736 0.731412 0.330195
397 1 0.495911 0.67219 0.318628
419 1 0.407641 0.828985 0.420368
400 1 0.491446 0.742311 0.402302
417 1 0.336263 0.823076 0.325128
541 1 0.506799 0.656515 0.498387
399 1 0.585632 0.656275 0.411148
542 1 0.57473 0.743238 0.486276
402 1 0.764995 0.743962 0.342719
404 1 0.662225 0.753048 0.426765
425 1 0.669429 0.827001 0.338501
388 1 0.0153811 0.748892 0.413457
409 1 0.0242509 0.823911 0.316197
408 1 0.844762 0.72874 0.42626
406 1 0.938375 0.741361 0.329783
431 1 0.925487 0.80748 0.429268
550 1 0.936496 0.745706 0.524488
553 1 0.00668138 0.818692 0.516282
413 1 0.173461 0.829439 0.336557
410 1 0.0883356 0.911888 0.322672
291 1 0.101228 -0.00861497 0.426596
433 1 0.0044858 -0.00552438 0.489146
415 1 0.259646 0.820057 0.404773
414 1 0.255168 0.924196 0.338199
416 1 0.17245 0.913186 0.421368
420 1 0.336185 0.908238 0.408604
561 1 0.338986 0.811181 0.507369
562 1 0.421659 0.908764 0.504825
424 1 0.49701 0.923136 0.42111
423 1 0.581053 0.835369 0.433203
566 1 0.573885 0.920251 0.511349
565 1 0.49902 0.813558 0.491014
427 1 0.766634 0.829486 0.422428
428 1 0.656379 0.922691 0.430824
307 1 0.743134 1.00564 0.438387
569 1 0.674831 0.832256 0.502729
449 1 0.668519 -0.00521346 0.509139
430 1 0.92305 0.906747 0.340169
429 1 0.835982 0.823699 0.341284
412 1 0.0137539 0.912965 0.400897
432 1 0.839977 0.903344 0.426138
573 1 0.848543 0.832349 0.516895
434 1 0.0780782 0.085844 0.493898
578 1 0.0719609 0.0807579 0.655844
436 1 0.996665 0.0739344 0.578851
435 1 0.0811788 1.00074 0.580855
437 1 0.165532 0.000600863 0.502796
440 1 0.165839 0.0824153 0.577879
444 1 0.344694 0.0540094 0.582248
439 1 0.250624 0.987048 0.582504
445 1 0.513991 0.0097618 0.495956
469 1 0.501506 0.174174 0.500367
448 1 0.500465 0.0913178 0.579912
467 1 0.420294 0.166796 0.580637
443 1 0.440689 1.00195 0.584311
452 1 0.661789 0.077276 0.591622
447 1 0.583946 1.00503 0.593752
450 1 0.748025 0.0861867 0.511066
594 1 0.753549 0.0857543 0.663018
453 1 0.845698 0.98577 0.501766
473 1 0.666634 0.175576 0.511971
454 1 0.902306 0.0822062 0.497985
457 1 -0.00427761 0.169361 0.507208
456 1 0.827252 0.0746922 0.579794
455 1 0.919306 0.99037 0.578948
598 1 0.918335 0.0777898 0.66835
459 1 0.0570626 0.169929 0.586808
481 1 0.990987 0.336452 0.502082
483 1 0.0538568 0.327136 0.594134
605 1 0.17572 0.157958 0.664792
463 1 0.272014 0.152071 0.588318
464 1 0.18055 0.235328 0.594475
487 1 0.261271 0.337647 0.584314
606 1 0.2547 0.236796 0.670631
629 1 0.171641 0.32416 0.6592
468 1 0.328857 0.242888 0.564935
472 1 0.505762 0.251614 0.580127
491 1 0.414395 0.329104 0.571682
470 1 0.581615 0.249452 0.497246
497 1 0.661809 0.340488 0.481607
471 1 0.576719 0.176655 0.580872
476 1 0.666701 0.266488 0.568582
495 1 0.585594 0.323411 0.575606
641 1 0.663397 0.335322 0.659058
621 1 0.83351 0.167718 0.660945
475 1 0.751831 0.170376 0.577536
499 1 0.760791 0.33604 0.584371
480 1 0.836925 0.260563 0.573721
477 1 0.828509 0.169111 0.502549
479 1 0.905893 0.166641 0.579959
460 1 0.984412 0.245134 0.594738
503 1 0.929833 0.338387 0.596871
626 1 0.0765298 0.414999 0.674749
507 1 0.0864032 0.490623 0.598012
484 1 0.993816 0.421965 0.5873
625 1 1.00417 0.315899 0.685466
649 1 -0.00158257 0.503695 0.675517
489 1 0.33642 0.330575 0.50137
488 1 0.172856 0.41547 0.590092
511 1 0.257197 0.507789 0.582465
653 1 0.169004 0.498777 0.671351
490 1 0.408363 0.403907 0.481918
633 1 0.345602 0.326922 0.664549
492 1 0.330324 0.418395 0.594769
657 1 0.329487 0.503016 0.683204
515 1 0.414117 0.491253 0.579176
496 1 0.510603 0.407924 0.572576
500 1 0.667073 0.407316 0.573315
519 1 0.57826 0.490025 0.595742
665 1 0.670327 0.488673 0.659544
498 1 0.777021 0.421598 0.499963
642 1 0.757057 0.410143 0.668037
501 1 0.841419 0.347848 0.506883
504 1 0.839296 0.414763 0.585814
527 1 0.914327 0.493534 0.585213
646 1 0.92329 0.417383 0.676797
669 1 0.844582 0.495025 0.669511
508 1 -0.000302895 0.573282 0.593683
531 1 0.0914075 0.658468 0.597341
650 1 0.0903479 0.577646 0.66894
510 1 0.23653 0.578127 0.505505
512 1 0.16781 0.57595 0.59234
516 1 0.334042 0.581325 0.56677
658 1 0.432066 0.577077 0.655544
685 1 0.518469 0.658998 0.668741
521 1 0.67043 0.489293 0.49498
520 1 0.49552 0.580472 0.573365
662 1 0.606839 0.583286 0.65107
543 1 0.588288 0.659157 0.570347
523 1 0.744271 0.494011 0.588518
545 1 0.680676 0.667807 0.478357
524 1 0.674673 0.570637 0.564048
547 1 0.742585 0.664385 0.564332
528 1 0.819417 0.576756 0.586756
526 1 0.937966 0.585187 0.513996
525 1 0.847581 0.522668 0.503774
551 1 0.924405 0.664244 0.584501
670 1 0.920467 0.588469 0.661661
530 1 0.0959897 0.759041 0.501569
557 1 0.170119 0.840914 0.503508
532 1 0.015103 0.73634 0.599473
555 1 0.0817949 0.839028 0.584911
535 1 0.253037 0.659819 0.591598
536 1 0.163148 0.745652 0.583616
534 1 0.25345 0.73885 0.506201
540 1 0.34729 0.746105 0.592018
538 1 0.41487 0.743067 0.484823
539 1 0.418662 0.666479 0.569533
544 1 0.50689 0.736757 0.578444
682 1 0.42257 0.752486 0.663242
689 1 0.685296 0.661878 0.665237
548 1 0.674602 0.740998 0.577352
549 1 0.852713 0.650799 0.503489
546 1 0.761226 0.743164 0.496349
552 1 0.845075 0.736904 0.582718
575 1 0.927376 0.825524 0.597096
717 1 0.842179 0.828547 0.661586
554 1 0.07846 0.898937 0.503795
698 1 0.0964276 0.924276 0.653906
558 1 0.255431 0.895249 0.498815
581 1 0.166865 0.00175842 0.657077
560 1 0.177889 0.913162 0.572896
559 1 0.250805 0.814091 0.586503
564 1 0.333542 0.901106 0.590093
585 1 0.335704 0.978684 0.668382
563 1 0.434087 0.823708 0.583101
568 1 0.523986 0.919304 0.60081
589 1 0.501994 1.00165 0.678815
706 1 0.426025 0.904454 0.665051
567 1 0.600758 0.829276 0.589853
713 1 0.672775 0.821296 0.669689
710 1 0.59631 0.902777 0.672374
572 1 0.665514 0.91225 0.583934
593 1 0.660257 0.990781 0.668444
451 1 0.746905 0.973837 0.595262
571 1 0.75539 0.827313 0.582972
570 1 0.759874 0.906522 0.496239
714 1 0.759011 0.906197 0.676121
556 1 0.990322 0.915054 0.587148
576 1 0.837755 0.914065 0.572669
574 1 0.930347 0.89364 0.500551
722 1 0.0774972 0.0891745 0.825705
584 1 0.183253 0.075897 0.746843
721 1 0.982167 0.0114668 0.827181
725 1 0.16478 0.997119 0.821836
609 1 0.34258 0.146503 0.665247
582 1 0.259269 0.0659652 0.663323
583 1 0.253893 -0.0110876 0.75515
613 1 0.496963 0.161283 0.664639
588 1 0.319641 0.0779929 0.755817
586 1 0.409641 0.0604394 0.674732
611 1 0.40921 0.139062 0.754315
590 1 0.582318 0.0905641 0.6609
592 1 0.513117 0.0906931 0.764521
615 1 0.587404 0.16917 0.741473
596 1 0.664792 0.0846451 0.737446
761 1 0.665297 0.175341 0.828489
595 1 0.746663 1.01669 0.741608
600 1 0.821219 0.0859682 0.7426
597 1 0.830525 0.99495 0.664795
577 1 0.998142 1.01307 0.670019
580 1 1.00305 0.0921103 0.745934
599 1 0.907852 0.991792 0.75093
603 1 0.0802527 0.164873 0.742636
602 1 0.096332 0.240845 0.657772
627 1 0.0882342 0.327374 0.747739
745 1 -0.0111951 0.153095 0.842491
608 1 0.155805 0.234949 0.756103
607 1 0.245093 0.162744 0.749236
612 1 0.352778 0.248688 0.736225
631 1 0.249584 0.319741 0.744402
610 1 0.427799 0.24871 0.661041
616 1 0.507834 0.256398 0.747677
637 1 0.501198 0.331348 0.661096
617 1 0.67323 0.171123 0.665734
614 1 0.587163 0.255218 0.673225
620 1 0.681835 0.262634 0.73721
639 1 0.588682 0.341107 0.751326
618 1 0.750759 0.253757 0.661749
619 1 0.756799 0.16983 0.751828
624 1 0.832593 0.240253 0.764771
643 1 0.759695 0.330795 0.753488
762 1 0.760206 0.264552 0.836801
601 1 0.993868 0.161302 0.669195
623 1 0.905722 0.16171 0.743726
622 1 0.898706 0.243677 0.661713
604 1 1.00334 0.238088 0.764034
769 1 0.00949763 0.321548 0.838036
766 1 0.91932 0.252509 0.841751
632 1 0.172491 0.419633 0.743601
628 1 0.00875663 0.400568 0.755526
651 1 0.076205 0.489347 0.750247
770 1 0.0887555 0.404012 0.834906
797 1 0.168329 0.508813 0.832795
630 1 0.252393 0.400704 0.674687
635 1 0.432399 0.338476 0.739724
636 1 0.337444 0.409094 0.749681
634 1 0.415866 0.411416 0.668567
661 1 0.491652 0.479316 0.651207
640 1 0.507133 0.419565 0.752111
638 1 0.589323 0.412209 0.666447
782 1 0.603688 0.428766 0.840434
663 1 0.595911 0.491826 0.749457
785 1 0.678055 0.337567 0.818023
645 1 0.848168 0.327655 0.669672
644 1 0.675183 0.417934 0.744617
667 1 0.763669 0.504802 0.772731
648 1 0.843481 0.43275 0.757607
786 1 0.756824 0.418906 0.834651
647 1 0.907788 0.332936 0.761357
671 1 0.93729 0.491571 0.75678
793 1 0.996169 0.492084 0.848476
790 1 0.939059 0.405703 0.837177
673 1 0.0112796 0.66431 0.683062
656 1 0.170446 0.586449 0.746187
675 1 0.0878436 0.668262 0.767205
794 1 0.0807656 0.578048 0.851463
677 1 0.173716 0.665093 0.678224
654 1 0.245465 0.586698 0.667907
655 1 0.248192 0.509712 0.762505
798 1 0.270167 0.584949 0.823327
679 1 0.267761 0.663742 0.74533
659 1 0.423378 0.48915 0.75393
660 1 0.349288 0.586949 0.74972
664 1 0.507107 0.570803 0.73594
805 1 0.520329 0.508457 0.82916
687 1 0.587803 0.65284 0.737446
666 1 0.755518 0.571705 0.678205
693 1 0.834633 0.661304 0.673081
813 1 0.854738 0.500207 0.833819
668 1 0.664239 0.576702 0.735868
810 1 0.776134 0.593273 0.854824
833 1 0.692165 0.647709 0.835198
652 1 0.0143901 0.584001 0.765303
672 1 0.848158 0.580716 0.755463
695 1 0.933343 0.655019 0.747682
817 1 0.995094 0.660265 0.834788
814 1 0.926037 0.579287 0.831187
674 1 0.097342 0.751426 0.670183
818 1 0.0734654 0.752776 0.83671
676 1 0.00526809 0.753116 0.751609
841 1 -0.00503667 0.841422 0.819587
681 1 0.348867 0.653023 0.64752
680 1 0.170867 0.756666 0.760385
678 1 0.267869 0.741822 0.675854
703 1 0.242985 0.827491 0.765485
684 1 0.342044 0.759465 0.744435
701 1 0.181671 0.834384 0.659671
683 1 0.428253 0.65936 0.734622
705 1 0.337784 0.833324 0.669882
707 1 0.438833 0.818607 0.740618
686 1 0.608576 0.735371 0.677241
688 1 0.514304 0.735669 0.753115
692 1 0.677788 0.733541 0.752176
829 1 0.496984 0.668057 0.838667
830 1 0.602271 0.740045 0.83175
691 1 0.757659 0.654591 0.754686
690 1 0.763609 0.740669 0.670871
834 1 0.75142 0.731681 0.83122
696 1 0.853198 0.742869 0.744952
837 1 0.864296 0.671767 0.840336
861 1 0.8329 0.825215 0.831366
694 1 0.929818 0.737802 0.672492
719 1 0.908824 0.830679 0.737704
838 1 0.925206 0.753498 0.83674
697 1 0.00656109 0.839379 0.675278
579 1 0.0865471 1.00659 0.754572
699 1 0.0862296 0.832858 0.748585
704 1 0.16289 0.910835 0.756642
702 1 0.24812 0.913698 0.682348
846 1 0.250346 0.917328 0.836405
708 1 0.344305 0.898334 0.750658
709 1 0.523409 0.811659 0.675607
587 1 0.412416 0.97555 0.742903
850 1 0.420317 0.893831 0.829248
591 1 0.580997 -0.0052504 0.748325
711 1 0.59263 0.826327 0.755453
712 1 0.515198 0.907691 0.749717
854 1 0.605737 0.902776 0.848343
715 1 0.759133 0.822332 0.745477
716 1 0.679049 0.919306 0.740888
858 1 0.756311 0.913542 0.846224
700 1 1.00723 0.930605 0.748883
718 1 0.914471 0.911788 0.665804
720 1 0.824429 0.916925 0.761873
862 1 0.915542 0.908433 0.81718
724 1 1.0016 0.0783983 0.91042
728 1 0.165688 0.0793984 0.916223
25 1 1.00318 0.166312 0.984109
723 1 0.0814111 1.00654 0.909864
6 1 0.239422 0.0814622 0.000106626
33 1 0.325145 0.157125 -0.00180569
749 1 0.168387 0.156611 0.833603
726 1 0.254391 0.0683262 0.843902
732 1 0.35202 0.0818261 0.923595
751 1 0.240551 0.167706 0.910533
753 1 0.329684 0.149581 0.840493
730 1 0.42325 0.0538018 0.814638
757 1 0.508868 0.185488 0.826292
37 1 0.513197 0.159569 0.99799
734 1 0.603282 0.0759204 0.827393
736 1 0.499848 0.0896183 0.886132
759 1 0.598505 0.160962 0.908937
765 1 0.825932 0.15743 0.828034
738 1 0.736542 0.0895211 0.820844
740 1 0.674915 0.0798203 0.911666
763 1 0.746349 0.158039 0.913252
1 1 -0.0202753 1.00451 0.986466
744 1 0.812542 0.0823979 0.914106
742 1 0.90845 0.0867254 0.812354
22 1 0.909976 0.0802966 0.989408
741 1 0.827728 0.0106543 0.819728
743 1 0.901977 0.000829841 0.907349
747 1 0.0953885 0.166398 0.919796
746 1 0.0769966 0.233506 0.837511
748 1 0.998412 0.252594 0.915009
773 1 0.182718 0.320017 0.823818
750 1 0.270997 0.239881 0.828708
752 1 0.173624 0.255166 0.923607
756 1 0.342335 0.242383 0.908225
755 1 0.43121 0.162763 0.904434
754 1 0.414442 0.235122 0.821441
779 1 0.449801 0.312744 0.906276
781 1 0.515215 0.338434 0.827916
38 1 0.583305 0.240773 -0.002418
758 1 0.598524 0.258855 0.827059
61 1 0.502942 0.32698 1.00351
760 1 0.521681 0.24116 0.917398
783 1 0.58695 0.336583 0.908292
764 1 0.669665 0.260592 0.918157
65 1 0.664974 0.344655 0.999842
46 1 0.923582 0.237574 1.00751
789 1 0.837665 0.341714 0.840135
768 1 0.843042 0.250003 0.914844
767 1 0.899603 0.160605 0.90691
50 1 0.0882517 0.408109 -0.00543183
73 1 0.0112367 0.48829 -0.000765178
771 1 0.0907444 0.325645 0.924437
795 1 0.081438 0.480891 0.918594
772 1 0.00211052 0.411476 0.92223
777 1 0.345936 0.322265 0.812489
775 1 0.243299 0.333369 0.901395
776 1 0.178176 0.410519 0.903809
774 1 0.256595 0.414999 0.835538
778 1 0.426594 0.417011 0.832004
58 1 0.431479 0.393917 0.975341
780 1 0.341383 0.38562 0.903224
803 1 0.418845 0.500345 0.915964
784 1 0.503085 0.430242 0.911303
62 1 0.57565 0.411827 0.994581
807 1 0.593333 0.514895 0.91248
85 1 0.500285 0.504496 0.00257114
89 1 0.671168 0.501148 -0.00511405
788 1 0.679483 0.439488 0.915037
787 1 0.749303 0.343142 0.919465
811 1 0.765625 0.498701 0.926243
70 1 0.935927 0.412394 0.00807139
791 1 0.924935 0.328223 0.920002
792 1 0.82532 0.415029 0.931846
815 1 0.909861 0.476687 0.916974
819 1 0.0732534 0.663391 0.913049
800 1 0.181635 0.585618 0.903041
796 1 -0.00973504 0.573751 0.916266
799 1 0.252853 0.505034 0.907175
821 1 0.182632 0.673122 0.818108
823 1 0.249596 0.669632 0.911071
801 1 0.34949 0.505305 0.819039
81 1 0.340099 0.483031 0.996834
804 1 0.331325 0.578176 0.924188
82 1 0.414669 0.571102 -0.00464451
802 1 0.425171 0.589328 0.830248
825 1 0.351092 0.678188 0.824702
827 1 0.422258 0.661275 0.923726
806 1 0.58335 0.590826 0.841079
86 1 0.595243 0.582394 0.0142495
808 1 0.495896 0.584303 0.917452
812 1 0.686268 0.566878 0.912749
809 1 0.672316 0.50287 0.830148
816 1 0.84501 0.571202 0.928495
94 1 0.928061 0.557885 0.0078034
839 1 0.91767 0.66309 0.925004
98 1 0.0836514 0.74167 0.00674818
820 1 -0.0139063 0.745608 0.918274
843 1 0.0722022 0.821303 0.915257
824 1 0.155478 0.745526 0.914302
102 1 0.259991 0.762601 -0.000123362
822 1 0.265496 0.747155 0.822273
849 1 0.327081 0.846657 0.838623
847 1 0.251679 0.837723 0.929242
106 1 0.419386 0.757045 -0.00303401
826 1 0.413053 0.752758 0.842788
828 1 0.328963 0.764168 0.904221
851 1 0.425704 0.840422 0.925157
831 1 0.573277 0.666016 0.925185
832 1 0.492616 0.752478 0.914171
110 1 0.567806 0.756159 -0.00299367
855 1 0.588865 0.821944 0.92327
853 1 0.499695 0.821586 0.826742
114 1 0.744011 0.759905 1.00385
836 1 0.665672 0.752778 0.92345
137 1 0.674047 0.843851 1.00213
835 1 0.759866 0.677113 0.918353
859 1 0.752756 0.812695 0.906545
121 1 0.99745 0.832483 0.993398
118 1 0.922893 0.756514 0.010362
840 1 0.838767 0.758226 0.91819
141 1 0.833663 0.827959 0.991839
863 1 0.921421 0.825073 0.918419
125 1 0.156288 0.837203 0.00339385
122 1 0.0794539 0.910774 0.981598
842 1 0.0821559 0.908394 0.846009
845 1 0.176146 0.825276 0.849462
844 1 0.994519 0.922098 0.917589
5 1 0.170074 -0.000897424 -0.00197533
848 1 0.171806 0.926154 0.917128
727 1 0.259288 -0.000137816 0.92516
733 1 0.514999 0.987204 0.839259
729 1 0.334691 0.980682 0.816605
731 1 0.411888 0.986903 0.892152
852 1 0.338409 0.919324 0.922226
856 1 0.512611 0.909909 0.90747
857 1 0.677641 0.825348 0.82682
735 1 0.587684 0.995707 0.914923
737 1 0.673368 0.992881 0.836132
138 1 0.758126 0.923766 0.000219859
739 1 0.748787 1.00714 0.911288
860 1 0.676725 0.916725 0.925578
21 1 0.825952 1.00191 0.987423
864 1 0.831128 0.914611 0.921343
