ITEM: TIMESTEP
5500
ITEM: NUMBER OF ATOMS
864
ITEM: BOX BOUNDS pp pp pp
0.0000000000000000e+00 3.1559999999999999e+01
0.0000000000000000e+00 3.1559999999999999e+01
0.0000000000000000e+00 3.1559999999999999e+01
ITEM: ATOMS id type xs ys zs
146 1 0.0769025 0.0737574 0.169151
4 1 0.990012 0.0788953 0.091399
8 1 0.162946 0.0799228 0.0799013
12 1 0.354205 0.0914698 0.0649507
150 1 0.24289 0.0791944 0.173329
173 1 0.156947 0.167807 0.17048
11 1 0.411368 0.00813822 0.0853708
16 1 0.49201 0.0875996 0.0709466
35 1 0.426401 0.176402 0.068863
154 1 0.42837 0.0895133 0.168203
10 1 0.41581 0.0883496 0.985854
157 1 0.497951 0.993133 0.171698
15 1 0.585162 0.00431258 0.0804083
14 1 0.581097 0.085542 0.977449
41 1 0.680742 0.162579 1.00115
20 1 0.684273 0.0910191 0.0795339
162 1 0.763332 0.0787519 0.161382
17 1 0.656156 0.00881565 0.996163
19 1 0.75286 -0.00235975 0.0724994
18 1 0.754026 0.0760424 0.999074
24 1 0.843858 0.0720941 0.0835814
23 1 0.923323 0.997898 0.0792112
166 1 0.908979 0.0954556 0.174318
27 1 0.082091 0.163134 0.0814696
169 1 -0.00643206 0.165224 0.166634
32 1 0.179804 0.245665 0.0900437
28 1 0.00573398 0.233003 0.0791147
193 1 0.00566608 0.345505 0.163094
31 1 0.257577 0.164686 0.0858957
55 1 0.257632 0.331301 0.0743747
174 1 0.264271 0.243691 0.169066
33 1 0.338217 0.18017 1.00368
30 1 0.253799 0.251074 0.9923
36 1 0.340033 0.252121 0.0793709
59 1 0.436291 0.346907 0.0779975
34 1 0.426931 0.260934 0.991123
40 1 0.514988 0.240931 0.0761666
57 1 0.349342 0.329253 1.00134
178 1 0.419014 0.251254 0.156764
39 1 0.5887 0.152634 0.0891959
44 1 0.669037 0.260001 0.0794111
38 1 0.587108 0.240268 0.990863
182 1 0.587124 0.242329 0.171684
43 1 0.764136 0.17047 0.0797636
186 1 0.736788 0.243073 0.165275
48 1 0.843655 0.25783 0.0903189
42 1 0.760419 0.254241 -0.0041837
47 1 0.916872 0.180475 0.0823932
190 1 0.922503 0.250139 0.175612
51 1 0.0735069 0.333046 0.0858909
52 1 0.00410853 0.424637 0.0939909
49 1 0.0103745 0.324508 -0.00840288
73 1 -0.00676115 0.513709 0.0118965
56 1 0.16723 0.412038 0.0724658
79 1 0.25716 0.490285 0.0716115
198 1 0.270052 0.425354 0.161761
54 1 0.248431 0.416357 -0.0144534
60 1 0.339658 0.418043 0.0721592
197 1 0.170231 0.336464 0.150345
83 1 0.421012 0.503574 0.0680935
205 1 0.496636 0.344544 0.166767
58 1 0.426638 0.410356 0.990019
64 1 0.514144 0.412259 0.05999
63 1 0.584672 0.322164 0.100538
206 1 0.579373 0.423779 0.151872
229 1 0.505645 0.506075 0.162763
67 1 0.753554 0.345978 0.10042
68 1 0.662464 0.419044 0.083776
91 1 0.74116 0.50002 0.0954089
209 1 0.663428 0.344356 0.179013
71 1 0.925495 0.342435 0.0944743
72 1 0.822067 0.416888 0.0816493
95 1 0.913091 0.491803 0.0869415
214 1 0.911458 0.426909 0.173526
75 1 0.0902714 0.492031 0.0836754
217 1 0.0164906 0.500287 0.179569
99 1 0.0900582 0.665806 0.0910973
218 1 0.0977583 0.575271 0.166516
80 1 0.171364 0.579584 0.0896426
76 1 1.00439 0.56667 0.100367
97 1 0.00467761 0.667109 0.00759793
81 1 0.339707 0.495155 0.993284
222 1 0.260699 0.576709 0.165322
77 1 0.162558 0.49683 1.00593
78 1 0.246276 0.589997 0.00594801
225 1 0.343027 0.507364 0.159116
101 1 0.167087 0.666688 0.996662
84 1 0.334572 0.567188 0.0704038
107 1 0.411496 0.66693 0.08287
226 1 0.413478 0.589691 0.149973
87 1 0.583388 0.523642 0.0736016
88 1 0.497337 0.577905 0.0683279
230 1 0.582699 0.578259 0.168713
109 1 0.50108 0.669613 0.0035228
111 1 0.584854 0.664684 0.101319
253 1 0.498668 0.659683 0.16098
92 1 0.665882 0.588564 0.0979584
96 1 0.838539 0.574252 0.0820454
233 1 0.659127 0.500871 0.174331
90 1 0.754781 0.595546 0.0156836
261 1 0.819372 0.660367 0.164816
119 1 0.91281 0.674829 0.102765
104 1 0.166327 0.748993 0.0914311
100 1 0.00925296 0.744702 0.0803162
123 1 0.0845531 0.822949 0.0854595
125 1 0.171688 0.830733 1.00224
103 1 0.250378 0.659218 0.0939206
108 1 0.335691 0.748804 0.0781328
127 1 0.255423 0.837199 0.0753357
112 1 0.49899 0.742875 0.0860585
131 1 0.42846 0.823349 0.0778289
250 1 0.412991 0.741038 0.158216
249 1 0.330216 0.666659 0.169894
254 1 0.568048 0.743631 0.174021
135 1 0.60118 0.829436 0.0877569
115 1 0.743153 0.678258 0.0890898
116 1 0.667057 0.7491 0.0847402
139 1 0.736234 0.842775 0.10543
114 1 0.75299 0.743538 0.00119098
137 1 0.667337 0.816963 1.00669
120 1 0.818626 0.757868 0.0990524
143 1 0.917758 0.824343 0.0778465
285 1 0.819716 0.825872 0.163149
3 1 0.0624657 0.99335 0.0765154
128 1 0.157509 0.919235 0.0620227
266 1 0.0896741 0.911901 0.14438
5 1 0.176182 1.00627 1.0014
122 1 0.0679712 0.908559 -0.00089087
7 1 0.264967 0.0140896 0.0776055
132 1 0.344886 0.925733 0.0894255
273 1 0.34021 0.831481 0.150018
270 1 0.241385 0.931342 0.141571
153 1 0.368681 0.984919 0.177577
136 1 0.514202 0.9159 0.0684719
277 1 0.514525 0.836767 0.154485
274 1 0.436583 0.898787 0.15308
140 1 0.657307 0.927219 0.0746465
278 1 0.591126 0.916117 0.15944
282 1 0.732234 0.927903 0.163086
161 1 0.665041 0.0128243 0.149965
145 1 0.982807 0.00181378 0.176202
1 1 1.00502 1.00262 -0.0161895
124 1 0.991642 0.90193 0.0832308
144 1 0.803176 0.907828 0.0752977
286 1 0.915259 0.901868 0.154375
152 1 0.177318 0.0874144 0.271564
171 1 0.0857153 0.17147 0.252893
148 1 1.0033 0.0864741 0.243946
313 1 0.00126856 0.17736 0.329514
149 1 0.14995 1.00086 0.157979
175 1 0.260654 0.163326 0.26476
177 1 0.353553 0.15218 0.166053
321 1 0.353995 0.16549 0.33332
294 1 0.267236 0.0651648 0.330743
156 1 0.338133 0.0721669 0.248331
158 1 0.574688 0.0712993 0.1728
160 1 0.501912 0.0839904 0.259078
159 1 0.581123 0.994896 0.257502
164 1 0.647245 0.0884853 0.258625
302 1 0.573928 0.0848655 0.338239
187 1 0.744477 0.160493 0.240175
305 1 0.662127 1.00107 0.334014
306 1 0.743788 0.0828462 0.322177
168 1 0.835667 0.0743931 0.239822
167 1 0.903891 -0.0212578 0.261224
165 1 0.837358 -0.0111552 0.152267
170 1 0.0969749 0.251563 0.173248
172 1 0.00586792 0.267899 0.245767
195 1 0.101745 0.341 0.247296
176 1 0.173009 0.251518 0.249363
345 1 0.337103 0.318697 0.334813
179 1 0.42798 0.15204 0.260288
180 1 0.343545 0.238364 0.241108
201 1 0.356465 0.338658 0.164599
322 1 0.429136 0.248839 0.328952
181 1 0.511158 0.157324 0.172144
325 1 0.497513 0.165259 0.336076
183 1 0.577011 0.173752 0.261032
184 1 0.497388 0.24335 0.242464
188 1 0.658927 0.255142 0.24797
185 1 0.665004 0.152991 0.169091
333 1 0.840247 0.161584 0.322502
330 1 0.751387 0.241622 0.340688
192 1 0.814198 0.25717 0.239199
189 1 0.835307 0.173771 0.168879
191 1 0.92949 0.173536 0.251249
334 1 0.8978 0.255177 0.328524
194 1 0.0990084 0.417172 0.165803
200 1 0.181857 0.416436 0.246465
196 1 0.0132517 0.403279 0.250196
337 1 1.00842 0.333209 0.338957
199 1 0.278379 0.338939 0.247266
342 1 0.270034 0.414814 0.334021
202 1 0.43099 0.429776 0.148316
203 1 0.410258 0.335385 0.253945
204 1 0.351061 0.418749 0.231452
369 1 0.339303 0.5016 0.331095
227 1 0.419167 0.496081 0.248215
353 1 0.672702 0.330618 0.328336
208 1 0.492945 0.416345 0.236709
207 1 0.577971 0.338944 0.248701
212 1 0.672476 0.426609 0.261272
350 1 0.585123 0.420379 0.341056
210 1 0.741438 0.425807 0.182433
211 1 0.750192 0.330769 0.251484
235 1 0.753657 0.505323 0.255542
213 1 0.847762 0.33411 0.166817
215 1 0.926604 0.342044 0.253248
216 1 0.844449 0.429183 0.256474
239 1 0.913602 0.505404 0.243643
381 1 0.840617 0.512848 0.330072
219 1 0.087961 0.48838 0.255108
220 1 0.0170473 0.586063 0.244398
243 1 0.0873914 0.674695 0.24077
221 1 0.190265 0.495129 0.167032
245 1 0.164876 0.673101 0.166601
223 1 0.261555 0.50248 0.258467
224 1 0.184668 0.589137 0.235826
228 1 0.344549 0.574004 0.241819
370 1 0.437427 0.570809 0.336484
232 1 0.509353 0.582356 0.243122
231 1 0.587269 0.503662 0.254365
236 1 0.662364 0.577295 0.25997
255 1 0.584562 0.65554 0.242092
374 1 0.565096 0.588776 0.33818
257 1 0.669993 0.661857 0.173567
234 1 0.742688 0.579615 0.182039
259 1 0.749921 0.661331 0.257229
378 1 0.749943 0.579606 0.343103
238 1 0.918647 0.590528 0.175645
240 1 0.834246 0.592032 0.241954
237 1 0.822737 0.509746 0.166365
263 1 0.9217 0.669508 0.243863
242 1 0.0839174 0.753503 0.163023
267 1 0.0692945 0.83956 0.238216
246 1 0.255213 0.760398 0.162102
248 1 0.17807 0.750929 0.257292
389 1 0.153964 0.666052 0.324553
247 1 0.254498 0.681465 0.237207
252 1 0.34618 0.742716 0.247032
413 1 0.182104 0.825022 0.333251
390 1 0.260872 0.747073 0.321979
393 1 0.34132 0.658045 0.320995
251 1 0.421834 0.662171 0.23951
394 1 0.414772 0.748922 0.342617
397 1 0.493404 0.665937 0.325702
256 1 0.490265 0.745865 0.258863
398 1 0.57783 0.745183 0.340113
260 1 0.667317 0.734831 0.260192
258 1 0.743416 0.744569 0.178536
281 1 0.660293 0.831597 0.187245
283 1 0.749869 0.827537 0.256035
265 1 0.00149654 0.825728 0.167063
241 1 0.00514718 0.667979 0.166911
385 1 -0.00540862 0.663596 0.320164
244 1 0.00600427 0.746133 0.252389
264 1 0.831456 0.74046 0.261634
262 1 0.927854 0.755269 0.177163
287 1 0.904484 0.824435 0.252787
409 1 1.00413 0.835181 0.313014
269 1 0.170751 0.833084 0.161773
147 1 0.0822577 0.00641679 0.25548
272 1 0.158012 0.91759 0.252176
410 1 0.0702946 0.920762 0.332978
151 1 0.246689 0.990086 0.266452
271 1 0.259956 0.838272 0.235726
414 1 0.246872 0.918862 0.351327
276 1 0.344674 0.91178 0.243947
275 1 0.417985 0.817667 0.239581
155 1 0.420933 0.00766369 0.277642
280 1 0.499628 0.916302 0.249268
421 1 0.51077 0.838452 0.348429
279 1 0.568414 0.819933 0.265593
422 1 0.600817 0.901988 0.343879
163 1 0.735077 0.0204424 0.242481
284 1 0.682614 0.913265 0.252325
425 1 0.659309 0.818422 0.337334
426 1 0.74168 0.917882 0.340764
288 1 0.824061 0.915943 0.239491
268 1 -0.0100562 0.921065 0.233867
289 1 0.99796 0.00730487 0.331092
290 1 0.0752022 0.0792361 0.342431
296 1 0.156221 0.0817205 0.41345
315 1 0.0728465 0.165331 0.416455
317 1 0.159922 0.180597 0.334847
319 1 0.262479 0.144417 0.414822
295 1 0.251219 0.00628727 0.433982
461 1 0.184368 0.17586 0.482929
301 1 0.517167 0.982758 0.345001
300 1 0.346274 0.0604607 0.412896
298 1 0.431947 0.0785039 0.350274
304 1 0.512343 0.0912841 0.423424
327 1 0.583378 0.182952 0.41542
308 1 0.662842 0.089735 0.423935
303 1 0.597011 0.0111068 0.420535
329 1 0.658435 0.183255 0.337515
331 1 0.760389 0.157836 0.416275
450 1 0.757917 0.0813901 0.505175
312 1 0.84095 0.072774 0.396885
307 1 0.740357 0.00491703 0.416883
310 1 0.911081 0.0829916 0.325747
292 1 0.00274273 0.0799873 0.42783
335 1 0.914241 0.168716 0.410547
314 1 0.0872294 0.262838 0.331301
341 1 0.165168 0.351104 0.33443
316 1 1.00596 0.247575 0.415901
339 1 0.0821015 0.341957 0.419463
320 1 0.158955 0.253658 0.408862
318 1 0.253567 0.228035 0.353472
343 1 0.256226 0.349955 0.423782
323 1 0.424704 0.173175 0.412886
324 1 0.336801 0.237025 0.431368
347 1 0.424255 0.346 0.405403
326 1 0.580926 0.259402 0.327507
328 1 0.491076 0.263362 0.419853
470 1 0.594289 0.264164 0.519311
477 1 0.824877 0.164928 0.501532
332 1 0.684749 0.245838 0.420256
355 1 0.746035 0.347038 0.409126
497 1 0.682251 0.333006 0.513568
336 1 0.831678 0.247984 0.408276
457 1 1.00211 0.169827 0.506297
478 1 0.913125 0.256184 0.493501
338 1 0.0932195 0.422336 0.34774
365 1 0.163638 0.511838 0.327224
340 1 1.01204 0.423415 0.417832
363 1 0.077069 0.509657 0.418876
344 1 0.178352 0.43626 0.411494
486 1 0.25823 0.432295 0.494786
348 1 0.348605 0.423746 0.413178
346 1 0.418526 0.410582 0.32269
349 1 0.513664 0.337731 0.3384
373 1 0.499807 0.481424 0.321867
371 1 0.439839 0.490313 0.408267
490 1 0.418239 0.413111 0.507558
351 1 0.59658 0.32993 0.428228
352 1 0.517208 0.411435 0.420073
356 1 0.668734 0.409124 0.424811
375 1 0.57705 0.499537 0.42351
493 1 0.500587 0.339633 0.515862
357 1 0.836856 0.343092 0.332979
354 1 0.752842 0.419314 0.339305
501 1 0.826097 0.353758 0.495828
379 1 0.747114 0.498702 0.416091
360 1 0.847649 0.426649 0.410571
359 1 0.92421 0.340246 0.42301
358 1 0.923387 0.417604 0.330796
525 1 0.845928 0.508767 0.503413
502 1 0.916995 0.431913 0.498151
362 1 0.0839258 0.579263 0.326037
361 1 1.00695 0.492759 0.339683
364 1 0.00250407 0.589291 0.412347
387 1 0.0927539 0.680401 0.406026
366 1 0.25708 0.594592 0.320155
509 1 0.182938 0.515302 0.484059
368 1 0.164178 0.595108 0.404278
367 1 0.259956 0.520666 0.402617
510 1 0.269504 0.582456 0.493312
533 1 0.178316 0.660471 0.499132
372 1 0.352651 0.592358 0.410693
395 1 0.429664 0.666401 0.410901
513 1 0.342154 0.508978 0.490791
377 1 0.664268 0.499945 0.350725
376 1 0.501225 0.582371 0.426073
399 1 0.576341 0.671362 0.419526
380 1 0.658082 0.580887 0.428364
545 1 0.650429 0.651365 0.504601
401 1 0.649017 0.657862 0.335661
403 1 0.752353 0.66704 0.419717
384 1 0.82699 0.593565 0.420465
405 1 0.84399 0.656224 0.342801
382 1 0.931572 0.579966 0.315216
383 1 0.924622 0.518591 0.410086
386 1 0.0894224 0.77033 0.344049
388 1 -0.00401832 0.743683 0.416836
529 1 0.00617528 0.664642 0.498839
411 1 0.0875383 0.857787 0.431011
530 1 0.0815784 0.756549 0.484123
391 1 0.266276 0.657558 0.41303
392 1 0.180283 0.750114 0.414307
557 1 0.174471 0.830782 0.501942
534 1 0.253836 0.736688 0.503038
396 1 0.341574 0.747478 0.429093
419 1 0.419809 0.826168 0.420332
538 1 0.420221 0.754445 0.503512
537 1 0.338154 0.674514 0.508061
400 1 0.496283 0.743378 0.419963
423 1 0.581628 0.818033 0.431415
404 1 0.661678 0.734525 0.420594
402 1 0.759013 0.743476 0.338075
429 1 0.827365 0.840632 0.328786
573 1 0.821966 0.833019 0.50975
408 1 0.839343 0.754868 0.418155
427 1 0.74936 0.840665 0.410811
546 1 0.747558 0.749826 0.489361
406 1 0.927726 0.754206 0.351216
407 1 0.9179 0.663635 0.420802
550 1 0.91916 0.742004 0.506753
431 1 0.908747 0.826646 0.439384
291 1 0.0829316 1.00047 0.422594
412 1 0.994607 0.915719 0.411888
554 1 0.0855193 0.926176 0.50764
433 1 0.994593 0.991585 0.49456
293 1 0.157506 0.975147 0.339732
417 1 0.32602 0.838149 0.33707
416 1 0.169 0.92383 0.428801
415 1 0.263484 0.826562 0.429125
558 1 0.259049 0.925865 0.51095
297 1 0.336543 0.979073 0.340422
299 1 0.420841 0.969562 0.411992
420 1 0.335278 0.913489 0.415127
418 1 0.419207 0.898427 0.317894
561 1 0.34337 0.838579 0.507664
562 1 0.424326 0.910534 0.504245
565 1 0.498582 0.82783 0.503247
424 1 0.512171 0.911115 0.432121
566 1 0.595639 0.917391 0.497305
428 1 0.671292 0.92898 0.42423
449 1 0.669162 0.00933638 0.504962
570 1 0.750483 0.914315 0.494757
453 1 0.852594 0.994104 0.512997
309 1 0.817923 0.990551 0.332815
430 1 0.926182 0.915838 0.336709
311 1 0.923984 1.00004 0.416319
432 1 0.82386 0.921183 0.418295
574 1 0.926911 0.907133 0.506487
434 1 0.0932816 0.092133 0.497016
459 1 0.0949464 0.184296 0.569165
440 1 0.156329 0.093683 0.594468
435 1 0.0782513 0.000760863 0.582894
578 1 0.0620099 0.0784622 0.673226
605 1 0.159027 0.160281 0.669679
438 1 0.248612 0.0908356 0.50304
463 1 0.238191 0.165543 0.601402
442 1 0.431234 0.103243 0.495263
444 1 0.337602 0.0701342 0.589367
586 1 0.415594 0.0740831 0.659926
609 1 0.351762 0.164115 0.672266
446 1 0.592759 0.0926787 0.503603
448 1 0.513551 0.0823283 0.583803
452 1 0.685455 0.0783816 0.592372
593 1 0.684748 0.99884 0.679705
594 1 0.761914 0.0708334 0.676461
456 1 0.845184 0.0910977 0.605654
475 1 0.764045 0.167231 0.607271
451 1 0.767573 0.99725 0.577371
454 1 0.914368 0.0849787 0.506129
597 1 0.835934 0.989377 0.662751
436 1 -0.000718494 0.0811961 0.574559
479 1 0.921439 0.180321 0.58107
598 1 0.936979 0.0831418 0.669757
601 1 0.0154037 0.177407 0.642268
458 1 0.0988291 0.266183 0.501539
483 1 0.0890144 0.344899 0.580521
602 1 0.0792156 0.248224 0.679026
464 1 0.176484 0.25894 0.587125
629 1 0.169542 0.336768 0.65676
481 1 0.000692959 0.339127 0.491147
485 1 0.16411 0.350744 0.49805
462 1 0.260094 0.255624 0.516131
487 1 0.251594 0.353335 0.567208
606 1 0.262439 0.258498 0.661321
633 1 0.329052 0.347402 0.67014
469 1 0.515744 0.185288 0.501538
465 1 0.324767 0.16894 0.513684
467 1 0.43765 0.166952 0.578806
466 1 0.420688 0.255067 0.499106
468 1 0.35478 0.240064 0.587175
491 1 0.399859 0.335497 0.578269
471 1 0.61462 0.163685 0.581112
473 1 0.690256 0.182328 0.495763
617 1 0.674753 0.169988 0.670997
472 1 0.507114 0.256502 0.584411
476 1 0.678463 0.24516 0.585078
621 1 0.84767 0.172521 0.678243
474 1 0.769878 0.259065 0.497521
618 1 0.763744 0.258208 0.662108
480 1 0.834369 0.24719 0.582455
460 1 0.0110122 0.266475 0.587822
625 1 0.995018 0.330802 0.681908
622 1 0.926726 0.24887 0.668253
503 1 0.914185 0.342759 0.566147
482 1 0.0902856 0.426792 0.487016
626 1 0.0763704 0.417148 0.666036
489 1 0.339609 0.334717 0.486365
488 1 0.176472 0.418365 0.58838
630 1 0.24845 0.415028 0.66502
492 1 0.335937 0.43329 0.59696
515 1 0.424575 0.503367 0.585951
661 1 0.500696 0.487175 0.677357
496 1 0.497613 0.411724 0.599374
494 1 0.589781 0.415069 0.503424
517 1 0.500097 0.492561 0.500763
495 1 0.589575 0.345101 0.578912
519 1 0.576141 0.491253 0.584125
498 1 0.75408 0.437224 0.506536
499 1 0.765401 0.33484 0.587338
500 1 0.668083 0.422977 0.574466
504 1 0.844071 0.420305 0.586589
484 1 0.0060013 0.411243 0.586069
505 1 0.00111726 0.507938 0.492267
649 1 0.00601433 0.507117 0.670186
646 1 0.925179 0.414661 0.655568
527 1 0.918302 0.504987 0.581524
506 1 0.0936804 0.599726 0.502156
507 1 0.0886957 0.497946 0.572399
677 1 0.160809 0.668674 0.658645
508 1 0.0101039 0.578644 0.577417
673 1 0.0106508 0.658626 0.659461
650 1 0.0909056 0.572575 0.66895
511 1 0.261259 0.513716 0.59232
657 1 0.3277 0.504572 0.684604
512 1 0.165084 0.587205 0.578649
654 1 0.255215 0.59541 0.674734
653 1 0.179534 0.513863 0.666422
514 1 0.423842 0.574269 0.50284
516 1 0.345912 0.590979 0.573579
520 1 0.503227 0.582821 0.594443
518 1 0.575325 0.571924 0.510543
521 1 0.663953 0.502589 0.496044
662 1 0.582182 0.584881 0.663121
541 1 0.50848 0.671165 0.501798
549 1 0.829186 0.668803 0.505783
523 1 0.75924 0.515391 0.586645
522 1 0.755191 0.581056 0.489425
524 1 0.656139 0.578934 0.587914
547 1 0.738569 0.665697 0.57692
526 1 0.925446 0.589112 0.493503
528 1 0.850353 0.595818 0.577977
670 1 0.928507 0.579947 0.652018
531 1 0.083839 0.671596 0.577655
553 1 0.0124085 0.837302 0.509659
555 1 0.0862095 0.830164 0.595081
532 1 0.00287793 0.762702 0.577871
697 1 -0.00784959 0.828199 0.658894
535 1 0.260637 0.651294 0.577774
536 1 0.172058 0.757952 0.587987
678 1 0.258365 0.740099 0.671775
701 1 0.167079 0.825009 0.680213
539 1 0.423089 0.670559 0.5701
540 1 0.333631 0.757191 0.597447
563 1 0.426269 0.830297 0.591423
569 1 0.66926 0.835738 0.496505
543 1 0.57626 0.667445 0.588296
542 1 0.574208 0.751232 0.5121
544 1 0.50317 0.754159 0.588176
686 1 0.592188 0.749231 0.663909
709 1 0.49833 0.835785 0.668702
567 1 0.578112 0.83415 0.59843
548 1 0.665593 0.749553 0.563702
552 1 0.835425 0.738389 0.578106
571 1 0.747419 0.844052 0.574375
713 1 0.682315 0.830663 0.661847
690 1 0.755647 0.733134 0.663105
717 1 0.818567 0.831357 0.658064
693 1 0.852032 0.668158 0.662594
551 1 0.925382 0.669414 0.587145
694 1 0.916925 0.746228 0.663143
575 1 0.909734 0.827635 0.583959
556 1 0.99428 0.920316 0.597153
698 1 0.0739554 0.90385 0.670222
437 1 0.165322 0.0178463 0.498748
439 1 0.232692 1.00661 0.595827
559 1 0.263497 0.82811 0.574294
560 1 0.174284 0.892344 0.584205
705 1 0.318638 0.847563 0.669331
441 1 0.343219 0.993789 0.49799
564 1 0.349192 0.920528 0.588131
443 1 0.425177 0.00757159 0.571348
445 1 0.511794 0.996737 0.508654
447 1 0.600473 1.00415 0.584932
568 1 0.506943 0.911367 0.584954
572 1 0.667427 0.919292 0.598741
576 1 0.830449 0.904811 0.587881
455 1 0.912577 1.00501 0.598471
577 1 0.996005 0.987553 0.672759
749 1 0.165394 0.163429 0.838765
581 1 0.147277 0.983997 0.663972
603 1 0.0792823 0.158724 0.738425
582 1 0.25893 0.0857663 0.669677
584 1 0.154124 0.0663662 0.729594
607 1 0.252094 0.180282 0.739692
583 1 0.238888 0.995599 0.753688
753 1 0.336208 0.163876 0.830124
588 1 0.326854 0.0702237 0.749442
730 1 0.421739 0.0900963 0.831009
729 1 0.31608 -0.00624134 0.824312
587 1 0.401703 1.00111 0.737532
590 1 0.594361 0.0819181 0.660098
592 1 0.501275 0.0874489 0.724966
596 1 0.678109 0.0725094 0.757186
600 1 0.856131 0.0668345 0.743887
595 1 0.756249 0.982771 0.753173
580 1 1.00184 0.0665616 0.758221
742 1 0.925188 0.0758869 0.834188
623 1 0.939606 0.161983 0.742986
745 1 0.00761804 0.159171 0.827364
608 1 0.16889 0.252597 0.734997
627 1 0.0968628 0.341209 0.751626
612 1 0.341635 0.250868 0.743475
750 1 0.259026 0.24318 0.82093
613 1 0.502344 0.174312 0.659951
611 1 0.426076 0.155552 0.748312
610 1 0.415677 0.278736 0.668982
635 1 0.41253 0.332707 0.768268
614 1 0.596047 0.244703 0.656999
615 1 0.596842 0.164622 0.738841
616 1 0.503685 0.249597 0.74471
639 1 0.57906 0.335842 0.749547
620 1 0.68427 0.264488 0.73895
645 1 0.847116 0.338575 0.657577
619 1 0.760907 0.180889 0.735709
643 1 0.755348 0.341742 0.737073
624 1 0.862123 0.247825 0.753344
604 1 1.00447 0.254945 0.756093
765 1 0.836033 0.156906 0.81714
769 1 0.0105033 0.341616 0.836629
628 1 0.994474 0.417054 0.752426
632 1 0.164348 0.417906 0.732152
631 1 0.250288 0.334483 0.74741
636 1 0.336714 0.417443 0.750684
655 1 0.245012 0.475091 0.753888
797 1 0.161264 0.499697 0.828176
634 1 0.420366 0.407627 0.667096
637 1 0.515807 0.325799 0.665732
778 1 0.407445 0.415836 0.845651
659 1 0.420775 0.489056 0.757278
640 1 0.496394 0.407155 0.750483
638 1 0.579981 0.418179 0.663431
665 1 0.683519 0.508886 0.66113
663 1 0.592777 0.501557 0.742139
644 1 0.669158 0.422111 0.7479
641 1 0.675614 0.34133 0.66047
809 1 0.664172 0.494511 0.825494
642 1 0.743891 0.421498 0.657792
786 1 0.759702 0.434529 0.822502
669 1 0.840268 0.501419 0.661488
789 1 0.831666 0.343818 0.814969
647 1 0.910523 0.335118 0.751786
648 1 0.836444 0.420379 0.742354
790 1 0.920392 0.410027 0.843027
651 1 0.0840834 0.491689 0.746783
817 1 1.00011 0.652958 0.846951
652 1 0.0050923 0.571593 0.745731
675 1 0.0727425 0.668196 0.773253
794 1 0.0805927 0.581321 0.830417
801 1 0.328829 0.489041 0.843784
656 1 0.172761 0.574845 0.754621
821 1 0.170385 0.652624 0.827304
798 1 0.24797 0.568861 0.823317
658 1 0.420281 0.577951 0.661399
685 1 0.498201 0.670617 0.672478
660 1 0.346066 0.585796 0.749238
664 1 0.495453 0.582797 0.729999
681 1 0.347828 0.661474 0.651818
829 1 0.496643 0.655607 0.826746
687 1 0.583958 0.67044 0.737309
689 1 0.671847 0.666195 0.662216
806 1 0.567975 0.586579 0.821586
668 1 0.662962 0.576923 0.739887
666 1 0.744853 0.59415 0.653909
667 1 0.769081 0.518352 0.738063
810 1 0.737868 0.565657 0.82683
833 1 0.656451 0.668543 0.823139
813 1 0.85512 0.50673 0.840648
671 1 0.914579 0.507692 0.753918
672 1 0.844824 0.593503 0.75151
674 1 0.076021 0.746447 0.66683
676 1 -0.0121611 0.748148 0.753168
818 1 0.0670929 0.744884 0.852679
845 1 0.164974 0.833991 0.848836
679 1 0.254603 0.670223 0.756149
680 1 0.161774 0.742868 0.746791
703 1 0.255249 0.83318 0.755341
822 1 0.235021 0.746981 0.843627
683 1 0.418198 0.673757 0.740191
684 1 0.327722 0.752639 0.767104
682 1 0.404602 0.754323 0.671979
707 1 0.407321 0.828768 0.763148
826 1 0.419805 0.755467 0.833625
688 1 0.498668 0.757673 0.743033
711 1 0.571493 0.830595 0.741147
692 1 0.677085 0.73686 0.745001
830 1 0.581767 0.748661 0.829407
691 1 0.738521 0.657002 0.747606
715 1 0.760048 0.82214 0.74017
861 1 0.84034 0.818901 0.838194
695 1 0.93523 0.649782 0.755214
837 1 0.84331 0.636278 0.849364
696 1 0.844146 0.731582 0.765073
719 1 0.909877 0.822206 0.752943
838 1 0.914382 0.747798 0.845658
579 1 0.0778058 0.985279 0.747079
725 1 0.161971 0.991797 0.834642
699 1 0.0859509 0.826849 0.757173
841 1 0.996601 0.822433 0.833907
704 1 0.160263 0.912401 0.761775
842 1 0.0888685 0.916669 0.840689
702 1 0.242762 0.917084 0.665722
846 1 0.239471 0.908232 0.832024
585 1 0.324333 0.990251 0.668399
708 1 0.334444 0.91536 0.753195
706 1 0.421324 0.905312 0.672959
589 1 0.48264 1.00114 0.666275
710 1 0.583852 0.915095 0.674674
591 1 0.57647 -0.00221293 0.734194
712 1 0.49942 0.919846 0.746241
716 1 0.682441 0.902 0.75384
854 1 0.590363 0.912979 0.831548
733 1 0.506983 1.01654 0.831135
714 1 0.755331 0.917747 0.657748
741 1 0.827703 0.991955 0.827372
720 1 0.82867 0.898409 0.74948
858 1 0.731868 0.908459 0.849589
718 1 0.905096 0.90933 0.671832
721 1 1.00339 0.978303 0.830632
599 1 0.905274 0.975766 0.755866
700 1 0.994063 0.894435 0.756099
862 1 0.912949 0.913131 0.840597
722 1 0.0887862 0.0745637 0.83663
2 1 0.082105 0.0810159 0.00830899
728 1 0.165716 0.084189 0.92245
29 1 0.160993 0.165225 0.988675
747 1 0.07482 0.1514 0.9172
6 1 0.258158 0.0989146 -0.001396
726 1 0.24359 0.087516 0.817731
751 1 0.245336 0.173951 0.90279
727 1 0.258523 0.990855 0.916923
732 1 0.325066 0.0769137 0.90679
755 1 0.421829 0.16876 0.922752
731 1 0.428443 0.00800495 0.901182
734 1 0.607972 0.0810213 0.834327
13 1 0.506694 0.00544138 0.994053
736 1 0.497084 0.0872854 0.91544
735 1 0.596901 0.00379034 0.905636
37 1 0.498535 0.16861 0.993337
738 1 0.760495 0.0786136 0.824098
740 1 0.674756 0.0848386 0.916768
763 1 0.762422 0.180065 0.925842
21 1 0.839022 0.996106 0.990587
22 1 0.908638 0.0887514 0.995839
724 1 -0.00709631 0.0839078 0.917391
744 1 0.838017 0.0884733 0.915387
746 1 0.0863956 0.252178 0.833299
26 1 0.0864883 0.240547 0.00451429
748 1 0.0155325 0.250437 0.917681
25 1 0.99199 0.159919 0.0079179
752 1 0.155173 0.251799 0.914105
756 1 0.339318 0.241719 0.908379
754 1 0.424195 0.238989 0.834088
781 1 0.517355 0.328594 0.836491
777 1 0.33145 0.332728 0.83818
760 1 0.507718 0.244478 0.907571
758 1 0.596807 0.248617 0.81641
757 1 0.513809 0.159855 0.837252
759 1 0.602763 0.174873 0.897557
783 1 0.596901 0.326523 0.907389
761 1 0.690164 0.156435 0.823552
764 1 0.674509 0.251765 0.902789
762 1 0.757452 0.271558 0.827113
45 1 0.844196 0.172689 -0.0139302
768 1 0.84049 0.24727 0.897989
46 1 0.922774 0.256642 0.0004306
766 1 0.933898 0.254369 0.848282
767 1 0.933406 0.164777 0.917512
69 1 0.828827 0.341204 1.01461
791 1 0.905599 0.34282 0.927708
50 1 0.0857263 0.42252 0.995626
770 1 0.0989106 0.41492 0.83349
53 1 0.156925 0.335547 0.00432379
771 1 0.0905721 0.352412 0.918341
795 1 0.0839277 0.49919 0.91163
772 1 0.0076397 0.405853 0.923269
773 1 0.169906 0.326441 0.823516
774 1 0.227336 0.414528 0.846941
775 1 0.249338 0.32433 0.91579
776 1 0.164831 0.426995 0.927393
799 1 0.249129 0.503656 0.91645
779 1 0.417418 0.323462 0.905185
780 1 0.33123 0.404884 0.917751
803 1 0.419409 0.493759 0.913835
784 1 0.501966 0.405911 0.912815
85 1 0.509986 0.499195 0.997193
65 1 0.664609 0.331001 0.994276
782 1 0.589418 0.415298 0.811988
61 1 0.520627 0.326115 0.998244
62 1 0.603229 0.417516 0.998341
807 1 0.576034 0.481759 0.898886
787 1 0.758806 0.343298 0.916691
788 1 0.675068 0.427393 0.919182
785 1 0.676053 0.349956 0.826463
66 1 0.746708 0.406242 1.00927
811 1 0.747555 0.509148 0.92345
792 1 0.832086 0.420388 0.913957
70 1 0.911716 0.415772 0.0198814
93 1 0.832569 0.492723 0.00162721
793 1 0.007155 0.497542 0.839429
74 1 0.0908443 0.580025 0.00690968
819 1 0.0815094 0.666622 0.929262
105 1 0.324635 0.664989 1.00851
800 1 0.157469 0.572954 0.911429
804 1 0.321077 0.586352 0.93191
802 1 0.406139 0.566315 0.83688
82 1 0.414663 0.582199 -0.0177221
827 1 0.416161 0.676765 0.912041
808 1 0.486647 0.581848 0.905551
86 1 0.576161 0.591993 0.990366
89 1 0.666746 0.51853 0.00234968
805 1 0.495025 0.500087 0.829595
831 1 0.577047 0.68024 0.914807
113 1 0.662317 0.662401 0.0138248
812 1 0.666715 0.582935 0.917424
835 1 0.75125 0.653818 0.92557
814 1 0.92449 0.577134 0.842873
117 1 0.836876 0.672263 0.0141762
816 1 0.830847 0.573737 0.947842
796 1 0.00706022 0.576405 0.920204
94 1 0.917522 0.59198 0.0121457
815 1 0.919364 0.488783 0.926312
839 1 0.920705 0.652476 0.923979
98 1 0.0970556 0.755807 0.00401676
824 1 0.159166 0.745851 0.919006
820 1 0.989108 0.746311 0.9295
849 1 0.336033 0.832843 0.847294
823 1 0.241378 0.654308 0.909553
102 1 0.253344 0.745351 1.00264
828 1 0.323626 0.749536 0.920727
847 1 0.247571 0.831334 0.927994
129 1 0.336181 0.857206 -0.0133318
133 1 0.498606 0.819244 1.00691
825 1 0.327807 0.651977 0.842881
106 1 0.404224 0.755743 -0.00331339
851 1 0.410159 0.831895 0.918505
110 1 0.588803 0.741865 0.00598105
832 1 0.498013 0.753252 0.90926
853 1 0.501352 0.827857 0.83176
857 1 0.666973 0.830192 0.824911
855 1 0.585983 0.813381 0.907936
141 1 0.845994 0.825528 1.00771
834 1 0.749032 0.747716 0.819176
836 1 0.677118 0.740695 0.913541
840 1 0.831839 0.749934 0.915193
118 1 0.90979 0.745018 -0.000870934
863 1 0.912235 0.833353 0.916937
121 1 0.995515 0.819947 0.999732
843 1 0.0764708 0.840544 0.913666
723 1 0.0884753 0.996487 0.926193
848 1 0.151368 0.919571 0.927836
126 1 0.24764 0.925468 0.010426
850 1 0.419613 0.92269 0.822618
9 1 0.327662 0.011291 -0.00958689
130 1 0.420322 0.926273 -5.96714e-05
852 1 0.32656 0.91838 0.892034
856 1 0.49547 0.910512 0.924731
134 1 0.576451 0.93079 0.994022
860 1 0.650507 0.886577 0.927792
737 1 0.672613 0.993969 0.829453
739 1 0.742628 1.01591 0.904233
859 1 0.737958 0.820644 0.91297
138 1 0.727462 0.909366 0.999483
844 1 0.988606 0.914987 0.919125
743 1 0.917962 0.998787 0.914503
864 1 0.823854 0.909127 0.92447
142 1 0.916976 0.920344 0.000424706
