ITEM: TIMESTEP
5750
ITEM: NUMBER OF ATOMS
864
ITEM: BOX BOUNDS pp pp pp
0.0000000000000000e+00 3.1559999999999999e+01
0.0000000000000000e+00 3.1559999999999999e+01
0.0000000000000000e+00 3.1559999999999999e+01
ITEM: ATOMS id type xs ys zs
27 1 0.0657547 0.174284 0.0903345
146 1 0.0733565 0.0847777 0.169878
2 1 0.0825561 0.0882874 0.00899458
1 1 0.978258 0.0125304 0.00151142
8 1 0.15931 0.0862996 0.0918816
12 1 0.351383 0.0755049 0.0899559
29 1 0.164156 0.160516 0.00501178
31 1 0.239634 0.164951 0.111399
177 1 0.329917 0.153684 0.170463
10 1 0.402344 0.0933637 0.00169222
154 1 0.433613 0.101776 0.163781
181 1 0.508418 0.187969 0.161799
157 1 0.517147 0.00679869 0.15693
16 1 0.509018 0.0991744 0.0846842
39 1 0.600427 0.163672 0.0702277
158 1 0.594648 0.0903316 0.154776
14 1 0.594407 0.072534 1.00387
20 1 0.678463 0.10204 0.0785164
21 1 0.839605 -0.0031657 0.990579
189 1 0.853844 0.178754 0.17081
162 1 0.758778 0.0809719 0.177657
185 1 0.690332 0.175136 0.162061
4 1 0.983459 0.0928403 0.100335
24 1 0.837826 0.0812867 0.096313
166 1 0.910586 0.0832863 0.178467
22 1 0.910239 0.098672 1.01236
145 1 0.989071 0.0010638 0.170431
25 1 0.997418 0.172084 1.00358
26 1 0.0792461 0.256668 0.997377
32 1 0.150976 0.241756 0.0865787
173 1 0.14435 0.17122 0.168441
170 1 0.0670415 0.259739 0.165491
169 1 0.00453412 0.17372 0.185907
33 1 0.321435 0.156837 0.0161908
30 1 0.235611 0.234879 0.0111875
55 1 0.231606 0.322914 0.0939658
174 1 0.231324 0.254916 0.179608
35 1 0.412392 0.160774 0.0819138
37 1 0.515624 0.169622 0.98978
36 1 0.330991 0.256149 0.0958152
40 1 0.49359 0.249091 0.0684436
41 1 0.692385 0.169209 -0.00629023
44 1 0.679507 0.246048 0.0881633
43 1 0.781579 0.18152 0.0864156
186 1 0.76347 0.25131 0.179145
28 1 0.986668 0.269213 0.0783582
47 1 0.907808 0.185099 0.0761942
48 1 0.828179 0.272948 0.0811106
46 1 0.901461 0.261915 0.995972
49 1 0.993445 0.32556 0.988865
51 1 0.0809421 0.337726 0.0806345
194 1 0.0749906 0.413508 0.165172
193 1 0.988879 0.339437 0.172536
53 1 0.166903 0.317994 1.00645
56 1 0.159062 0.40594 0.0883876
60 1 0.345259 0.419665 0.0846388
197 1 0.161061 0.345041 0.178768
59 1 0.416703 0.33201 0.0653826
58 1 0.415242 0.400272 0.993956
225 1 0.335975 0.503251 0.181198
64 1 0.484961 0.425332 0.0794219
63 1 0.574234 0.326864 0.0853796
229 1 0.488127 0.500742 0.157333
87 1 0.58678 0.510709 0.0955777
68 1 0.662192 0.432841 0.0865128
67 1 0.764809 0.350466 0.0937484
213 1 0.856561 0.33462 0.166024
71 1 0.92515 0.34976 0.0813933
52 1 0.00161285 0.424969 0.0840123
72 1 0.839692 0.433392 0.0786548
95 1 0.918833 0.501544 0.0892379
75 1 0.086332 0.488464 0.0876997
218 1 0.103008 0.597046 0.143849
99 1 0.083123 0.678711 0.0657637
80 1 0.185982 0.573156 0.087642
79 1 0.254972 0.476716 0.0851061
222 1 0.253565 0.573063 0.177809
81 1 0.335478 0.495653 1.00475
84 1 0.326022 0.573811 0.0841395
83 1 0.406632 0.508662 0.0944609
88 1 0.492583 0.582132 0.0801277
107 1 0.39886 0.663941 0.083772
82 1 0.411643 0.57718 0.0119799
86 1 0.576804 0.586781 0.999336
92 1 0.663714 0.592284 0.0802815
91 1 0.741017 0.504554 0.0857232
96 1 0.820681 0.574772 0.0791459
233 1 0.653536 0.503218 0.184736
237 1 0.820886 0.506887 0.180876
234 1 0.739189 0.576232 0.162744
89 1 0.646338 0.496552 0.999496
76 1 -0.00420642 0.581585 0.0772765
238 1 0.914976 0.58921 0.1695
245 1 0.173327 0.671267 0.154824
104 1 0.154539 0.755097 0.0822203
125 1 0.156843 0.83319 0.997048
100 1 -0.000515884 0.751281 0.0752953
265 1 1.00425 0.832776 0.179163
103 1 0.252285 0.668453 0.0697016
102 1 0.236183 0.753646 0.97662
246 1 0.241154 0.751143 0.155673
108 1 0.339385 0.753396 0.0722083
105 1 0.329877 0.651743 0.997357
112 1 0.48473 0.75007 0.080352
131 1 0.406512 0.835926 0.0619304
250 1 0.398043 0.751714 0.168714
111 1 0.580023 0.658202 0.0780942
113 1 0.669585 0.672215 1.00335
116 1 0.66746 0.756093 0.0721657
109 1 0.498348 0.655685 0.988998
115 1 0.750409 0.667589 0.0870158
137 1 0.664403 0.824052 0.98506
281 1 0.672516 0.823813 0.15688
120 1 0.825096 0.75049 0.0761977
114 1 0.745335 0.759596 1.00403
139 1 0.757175 0.845808 0.0907752
141 1 0.835772 0.832518 1.0068
119 1 0.919613 0.657327 0.0768916
143 1 0.929532 0.840472 0.0800459
123 1 0.0644802 0.83738 0.0792654
3 1 0.0748787 0.00476842 0.0838127
266 1 0.0730286 0.91223 0.157121
128 1 0.152654 0.898923 0.0955343
5 1 0.158219 -0.0153741 0.00786845
127 1 0.234796 0.83101 0.0861958
269 1 0.149332 0.816045 0.172212
7 1 0.255865 1.01422 0.0863757
126 1 0.250849 0.923749 0.00606089
11 1 0.425781 0.00093264 0.098751
13 1 0.496873 0.0237925 0.00788419
132 1 0.325126 0.919663 0.08128
277 1 0.506438 0.831038 0.157177
274 1 0.402644 0.909035 0.16549
9 1 0.329819 1.01049 0.00975945
135 1 0.580125 0.820987 0.0675929
136 1 0.515277 0.905966 0.0714755
15 1 0.582838 -0.00594521 0.0759097
278 1 0.587939 0.910043 0.154047
17 1 0.668726 -0.00304539 0.000664164
19 1 0.74655 0.00473934 0.0743999
140 1 0.663592 0.896273 0.0754308
144 1 0.835851 0.910159 0.0896555
23 1 0.910797 0.998046 0.0861323
124 1 0.987156 0.930229 0.0874954
142 1 0.921917 0.917 -0.00556417
286 1 0.910748 0.9077 0.167923
121 1 1.00843 0.832317 0.983754
171 1 0.0751973 0.171178 0.271191
317 1 0.165897 0.168431 0.334045
290 1 0.0949441 0.0786915 0.332737
149 1 0.16662 1.0017 0.157036
152 1 0.16835 0.084032 0.232358
150 1 0.255951 0.0790745 0.161162
156 1 0.350994 0.0883059 0.262899
294 1 0.242251 0.0782011 0.337183
293 1 0.16798 1.00337 0.315549
297 1 0.350868 1.01364 0.331991
155 1 0.426362 0.00155659 0.233965
298 1 0.436473 0.0848585 0.316518
160 1 0.513118 0.0977843 0.248682
161 1 0.666371 0.0127562 0.140425
302 1 0.584781 0.0753848 0.332042
301 1 0.511631 1.00011 0.319294
164 1 0.676509 0.0763937 0.243212
187 1 0.765966 0.166084 0.245904
163 1 0.749525 0.985261 0.242591
168 1 0.831381 0.0801255 0.261028
148 1 0.993896 0.0894963 0.252457
167 1 0.917591 0.012434 0.261064
310 1 0.90699 0.0945026 0.355779
165 1 0.834458 1.0051 0.179783
176 1 0.143952 0.247624 0.258422
314 1 0.0791064 0.244839 0.343971
172 1 -0.0011681 0.260522 0.252217
337 1 0.995564 0.341715 0.338668
341 1 0.172613 0.333047 0.327325
175 1 0.24142 0.171563 0.249678
180 1 0.332063 0.236867 0.244234
318 1 0.242842 0.250131 0.328143
179 1 0.426299 0.18484 0.246682
178 1 0.415547 0.245277 0.153522
184 1 0.529277 0.249101 0.252696
201 1 0.346763 0.335787 0.162218
203 1 0.410421 0.314732 0.244336
322 1 0.416122 0.235712 0.344835
183 1 0.606574 0.162441 0.22471
205 1 0.500029 0.309962 0.165583
182 1 0.60068 0.2472 0.154344
207 1 0.594212 0.335345 0.231609
209 1 0.665449 0.343275 0.14897
326 1 0.595062 0.23815 0.341049
329 1 0.673046 0.164841 0.32506
188 1 0.668278 0.257654 0.24357
192 1 0.836997 0.243264 0.25696
190 1 0.927674 0.250733 0.169477
191 1 0.912178 0.165233 0.260363
195 1 0.0729246 0.339694 0.264402
219 1 0.0651214 0.484327 0.245514
200 1 0.158528 0.41674 0.25936
221 1 0.155123 0.503543 0.176975
199 1 0.268906 0.33248 0.250149
198 1 0.249716 0.401584 0.171849
342 1 0.250732 0.413681 0.331216
204 1 0.335624 0.415793 0.254238
202 1 0.42256 0.411888 0.177599
227 1 0.427096 0.503886 0.257738
373 1 0.505331 0.501254 0.330464
346 1 0.410884 0.405863 0.334064
345 1 0.335701 0.319882 0.335452
206 1 0.579925 0.416208 0.163669
353 1 0.652702 0.34465 0.328055
208 1 0.503216 0.388398 0.252473
212 1 0.67183 0.422478 0.257622
231 1 0.566997 0.495459 0.245068
350 1 0.568474 0.422597 0.32975
210 1 0.755852 0.428054 0.170242
211 1 0.775991 0.33045 0.250778
235 1 0.745174 0.510601 0.249478
377 1 0.665621 0.505831 0.31941
214 1 0.905456 0.431062 0.170226
215 1 0.906306 0.326155 0.263289
357 1 0.841009 0.334331 0.345592
216 1 0.831568 0.423286 0.252902
196 1 0.98621 0.41565 0.255816
358 1 0.911471 0.425757 0.345819
241 1 0.000202629 0.660285 0.156363
224 1 0.156342 0.581717 0.241714
362 1 0.0696552 0.575259 0.326312
365 1 0.164461 0.515019 0.348482
220 1 1.00211 0.588483 0.240924
243 1 0.0785017 0.664882 0.246982
249 1 0.307245 0.66466 0.175628
223 1 0.223746 0.501709 0.261912
366 1 0.245826 0.587156 0.336294
389 1 0.160593 0.65723 0.348093
226 1 0.425273 0.579778 0.186209
228 1 0.3373 0.588969 0.252877
232 1 0.50317 0.601611 0.251563
370 1 0.429145 0.591788 0.330533
251 1 0.408972 0.677884 0.251356
253 1 0.50479 0.670526 0.156494
230 1 0.571205 0.585123 0.167832
236 1 0.658955 0.595465 0.241937
374 1 0.587349 0.582131 0.340776
378 1 0.74248 0.588716 0.328666
257 1 0.661303 0.66383 0.15453
401 1 0.663554 0.678535 0.325236
261 1 0.845945 0.685013 0.16373
239 1 0.920046 0.510349 0.248869
240 1 0.83136 0.58409 0.256793
217 1 0.00325464 0.512888 0.171154
263 1 0.92749 0.679465 0.240679
242 1 0.0701039 0.741979 0.165434
248 1 0.151143 0.741377 0.27038
413 1 0.163483 0.830738 0.331148
244 1 0.0121069 0.751181 0.265756
409 1 0.00592468 0.838841 0.335238
247 1 0.223443 0.659084 0.263758
271 1 0.238364 0.838493 0.242796
390 1 0.245987 0.746446 0.340529
252 1 0.31585 0.749835 0.248793
275 1 0.407205 0.825476 0.247826
256 1 0.488256 0.746967 0.241547
397 1 0.505069 0.671997 0.320931
255 1 0.584186 0.681258 0.238422
254 1 0.589744 0.749885 0.14834
260 1 0.666909 0.742341 0.228032
421 1 0.499136 0.842482 0.32287
258 1 0.752959 0.749662 0.165428
259 1 0.750392 0.655041 0.239744
264 1 0.841399 0.756484 0.243896
402 1 0.754019 0.745983 0.319197
262 1 0.931892 0.763411 0.168494
287 1 0.930828 0.838059 0.261905
406 1 0.922057 0.761232 0.329666
147 1 0.0709662 0.00738569 0.256139
267 1 0.0839565 0.826619 0.252625
272 1 0.148117 0.90939 0.252092
410 1 0.0860568 0.914391 0.345038
153 1 0.325468 0.996489 0.1679
151 1 0.244946 0.989365 0.247807
270 1 0.245375 0.905897 0.165757
414 1 0.250204 0.927175 0.332239
273 1 0.318237 0.83117 0.16933
276 1 0.336582 0.913171 0.254287
280 1 0.501069 0.915024 0.229115
159 1 0.590049 0.979677 0.244376
279 1 0.574205 0.834057 0.243332
425 1 0.666959 0.831252 0.329715
429 1 0.837995 0.825456 0.332994
284 1 0.672444 0.905691 0.249671
283 1 0.756103 0.839194 0.238885
282 1 0.743125 0.928413 0.151569
285 1 0.839649 0.836033 0.160631
268 1 1.00094 0.918698 0.256335
288 1 0.848376 0.912141 0.252836
296 1 0.153942 0.0825372 0.413708
434 1 0.0702293 0.0837267 0.502923
461 1 0.167626 0.1545 0.495841
437 1 0.162237 0.0105986 0.487459
438 1 0.264446 0.0966346 0.499969
295 1 0.271042 0.999299 0.401976
300 1 0.328039 0.0922074 0.402955
299 1 0.399827 0.000808533 0.421467
442 1 0.422748 0.0795307 0.502729
445 1 0.508324 0.986462 0.494194
304 1 0.507217 0.0622908 0.419809
308 1 0.66357 0.0765129 0.423702
303 1 0.597619 0.992574 0.421908
446 1 0.585887 0.0724423 0.505272
449 1 0.656237 -0.0116284 0.515078
306 1 0.751384 0.0787531 0.330171
312 1 0.831584 0.0777049 0.438142
331 1 0.747143 0.156915 0.414725
305 1 0.67769 0.988647 0.333051
309 1 0.82981 0.992441 0.33178
292 1 -0.0141811 0.0806672 0.43174
289 1 -0.000278859 1.01751 0.331297
315 1 0.0767869 0.158527 0.421516
339 1 0.0925753 0.338481 0.411794
458 1 0.0909948 0.245838 0.499604
320 1 0.1712 0.2558 0.424198
319 1 0.236113 0.157142 0.417436
321 1 0.313334 0.167426 0.326314
324 1 0.326369 0.233102 0.408167
462 1 0.244302 0.240372 0.499235
323 1 0.418232 0.140044 0.422746
347 1 0.416825 0.328862 0.414734
328 1 0.498421 0.234265 0.42414
465 1 0.343507 0.159835 0.496672
325 1 0.510617 0.168444 0.342735
327 1 0.589348 0.154223 0.424335
332 1 0.667434 0.241316 0.432247
330 1 0.730443 0.262572 0.335694
336 1 0.827421 0.248983 0.412108
313 1 -0.00366846 0.156371 0.34425
333 1 0.827103 0.169732 0.345671
316 1 1.00145 0.249482 0.412842
334 1 0.921593 0.257361 0.339474
335 1 0.907972 0.176628 0.423712
359 1 0.924801 0.333154 0.416942
338 1 0.0909132 0.427691 0.347817
340 1 1.00438 0.434455 0.432462
482 1 0.0861605 0.413451 0.500728
343 1 0.260478 0.322876 0.411454
344 1 0.173989 0.406997 0.418459
513 1 0.350244 0.499482 0.505145
486 1 0.252607 0.423402 0.504026
369 1 0.341996 0.499804 0.32954
349 1 0.505963 0.318926 0.339051
348 1 0.336682 0.418529 0.411026
371 1 0.42122 0.515204 0.408898
352 1 0.498965 0.406871 0.414203
351 1 0.574664 0.331117 0.415429
375 1 0.591866 0.485632 0.407091
521 1 0.684963 0.502082 0.495099
497 1 0.671512 0.329146 0.509343
354 1 0.760233 0.412488 0.332031
355 1 0.748332 0.334878 0.415583
356 1 0.682564 0.415808 0.425242
498 1 0.747547 0.399246 0.510942
360 1 0.830536 0.418542 0.421346
383 1 0.906763 0.504395 0.438151
502 1 0.911333 0.410806 0.500734
361 1 0.990796 0.499461 0.332552
363 1 0.0911462 0.505123 0.435141
364 1 -0.007182 0.587484 0.421599
368 1 0.164981 0.583928 0.434526
367 1 0.24948 0.499377 0.415824
391 1 0.254907 0.652969 0.419281
372 1 0.343014 0.589758 0.417842
393 1 0.334015 0.654593 0.330304
376 1 0.505307 0.585667 0.412455
395 1 0.426416 0.661381 0.424939
537 1 0.341408 0.665645 0.499007
541 1 0.524128 0.687492 0.495548
399 1 0.595809 0.666018 0.408737
379 1 0.74746 0.503705 0.402851
380 1 0.67218 0.576062 0.417025
384 1 0.844716 0.587544 0.409773
403 1 0.749575 0.681917 0.398609
545 1 0.680634 0.67545 0.485704
381 1 0.83724 0.50742 0.331928
405 1 0.839843 0.669484 0.324935
385 1 -0.00152029 0.658612 0.334586
382 1 0.924949 0.58663 0.330052
526 1 0.917772 0.601399 0.494729
387 1 0.0770817 0.654089 0.434574
386 1 0.0800214 0.738389 0.362057
411 1 0.0825539 0.836377 0.42188
553 1 0.00940967 0.828689 0.501146
530 1 0.0890125 0.750031 0.501728
392 1 0.167424 0.741074 0.427168
396 1 0.327695 0.72802 0.412511
394 1 0.408026 0.752916 0.339394
417 1 0.334898 0.833655 0.327769
538 1 0.40517 0.753398 0.483251
398 1 0.58606 0.74638 0.313486
400 1 0.499289 0.762055 0.413071
423 1 0.586339 0.845031 0.405101
542 1 0.592218 0.763861 0.489756
404 1 0.66257 0.748201 0.401084
546 1 0.753986 0.749065 0.48797
408 1 0.842388 0.763808 0.428555
569 1 0.683228 0.827616 0.503016
407 1 0.909616 0.679454 0.414015
388 1 -0.00431771 0.752924 0.422957
433 1 0.984281 0.998383 0.514733
291 1 0.0799418 0.994384 0.4269
416 1 0.172887 0.929049 0.420219
412 1 1.00457 0.912125 0.416062
415 1 0.244897 0.833461 0.403511
558 1 0.239428 0.927199 0.505944
420 1 0.33197 0.910397 0.412968
561 1 0.322218 0.827907 0.488566
441 1 0.325697 1.00411 0.506287
419 1 0.415738 0.839792 0.413968
418 1 0.414773 0.914195 0.334625
562 1 0.394062 0.920177 0.498698
565 1 0.500787 0.839866 0.498831
424 1 0.504863 0.917142 0.41612
422 1 0.585949 0.915807 0.329562
566 1 0.578446 0.910483 0.50758
426 1 0.757871 0.915182 0.320924
307 1 0.745696 1.00034 0.420219
427 1 0.746348 0.816229 0.397614
428 1 0.681227 0.909411 0.41643
570 1 0.753191 0.916507 0.51071
311 1 0.912494 0.990443 0.407867
573 1 0.841535 0.833445 0.505899
432 1 0.838951 0.913551 0.431646
431 1 0.926221 0.829273 0.433204
430 1 0.91872 0.910444 0.342303
574 1 0.91975 0.906265 0.513553
457 1 0.997323 0.176505 0.50093
436 1 1.00137 0.100672 0.573724
435 1 0.0849547 1.0005 0.570574
440 1 0.164137 0.0807751 0.600802
463 1 0.233849 0.160543 0.592718
582 1 0.245829 0.084549 0.675935
444 1 0.3352 0.075039 0.592161
448 1 0.506667 0.086382 0.591647
471 1 0.592642 0.157959 0.586588
452 1 0.670263 0.0734861 0.591342
590 1 0.599659 0.087341 0.671565
450 1 0.749134 0.086171 0.494767
594 1 0.74625 0.0877995 0.677425
454 1 0.919383 0.0913324 0.500367
456 1 0.840824 0.0958672 0.569451
479 1 0.923788 0.163075 0.593593
455 1 0.904837 0.0147763 0.586694
459 1 0.0750095 0.174283 0.588967
460 1 1.00551 0.250573 0.597019
602 1 0.090314 0.243055 0.660449
605 1 0.162734 0.166225 0.677603
489 1 0.332211 0.318732 0.496868
464 1 0.159842 0.246852 0.577191
468 1 0.333141 0.254453 0.582099
609 1 0.323628 0.169678 0.670387
467 1 0.42433 0.164565 0.588908
469 1 0.50854 0.153444 0.513899
466 1 0.417501 0.246713 0.490945
491 1 0.431081 0.328147 0.577684
637 1 0.497291 0.339072 0.666686
473 1 0.659764 0.15751 0.509465
472 1 0.508978 0.238473 0.567493
470 1 0.592517 0.232484 0.500039
495 1 0.57488 0.315855 0.573346
476 1 0.662975 0.247815 0.599804
493 1 0.509562 0.338718 0.49692
474 1 0.735874 0.235723 0.512659
475 1 0.748089 0.162144 0.587501
480 1 0.846675 0.234162 0.586756
617 1 0.664718 0.165858 0.666028
477 1 0.834517 0.178451 0.502851
478 1 0.920071 0.248714 0.504207
503 1 0.91099 0.330135 0.590657
505 1 1.00938 0.517557 0.503388
483 1 0.072542 0.337359 0.579974
507 1 0.0875719 0.491885 0.573633
626 1 0.0833874 0.418556 0.654917
488 1 0.166779 0.40317 0.586153
485 1 0.163056 0.336354 0.497718
509 1 0.168912 0.50067 0.513689
487 1 0.243129 0.319486 0.570717
511 1 0.258585 0.501805 0.597138
490 1 0.413269 0.411663 0.490703
492 1 0.340503 0.403365 0.58162
496 1 0.505955 0.411196 0.572236
515 1 0.425989 0.510794 0.591927
517 1 0.516292 0.498299 0.49762
494 1 0.590426 0.421062 0.489809
500 1 0.659727 0.420225 0.571511
665 1 0.671745 0.479256 0.65738
519 1 0.567525 0.495715 0.589169
499 1 0.762615 0.315307 0.586133
523 1 0.747944 0.490313 0.582553
501 1 0.834423 0.329523 0.502315
481 1 1.00146 0.318199 0.490105
525 1 0.822605 0.49897 0.503574
484 1 0.998375 0.412744 0.562706
504 1 0.840846 0.410565 0.570215
506 1 0.0831787 0.583325 0.509059
653 1 0.156064 0.494298 0.662845
508 1 1.00305 0.588027 0.588376
677 1 0.178863 0.659697 0.655814
510 1 0.261636 0.562875 0.508079
512 1 0.177229 0.570605 0.592865
654 1 0.268208 0.585199 0.67654
516 1 0.353582 0.594466 0.595414
514 1 0.442899 0.585818 0.505312
539 1 0.421347 0.681269 0.593606
658 1 0.401987 0.571772 0.6863
681 1 0.330636 0.663502 0.683841
685 1 0.488956 0.651721 0.675504
518 1 0.590021 0.578864 0.479578
520 1 0.50391 0.584856 0.597278
524 1 0.671136 0.589829 0.564925
522 1 0.753096 0.584606 0.47742
528 1 0.819292 0.588921 0.567314
549 1 0.837226 0.664875 0.487
666 1 0.734887 0.575667 0.668698
529 1 0.00786215 0.665063 0.516057
527 1 0.911348 0.504877 0.587746
551 1 0.919389 0.660154 0.577196
693 1 0.822124 0.662042 0.668759
531 1 0.098831 0.665825 0.58205
536 1 0.188261 0.751651 0.588923
532 1 0.00645507 0.747993 0.580335
533 1 0.175774 0.653001 0.504416
534 1 0.251498 0.749813 0.4952
535 1 0.263112 0.651513 0.591687
540 1 0.326137 0.753144 0.579672
559 1 0.253185 0.837096 0.579591
544 1 0.491766 0.753607 0.579213
709 1 0.49742 0.822904 0.657288
543 1 0.583764 0.660123 0.581326
567 1 0.578905 0.821749 0.575436
686 1 0.5624 0.738694 0.664179
713 1 0.669484 0.832051 0.659679
548 1 0.648279 0.740503 0.596593
547 1 0.742301 0.674396 0.592658
571 1 0.755876 0.832704 0.5807
690 1 0.758619 0.763332 0.659355
550 1 0.91926 0.751683 0.514239
552 1 0.830656 0.744577 0.583571
694 1 0.915589 0.741206 0.659008
717 1 0.847421 0.845796 0.656628
554 1 0.0874227 0.914391 0.494344
555 1 0.0886797 0.831009 0.580122
556 1 0.0063598 0.920312 0.588514
698 1 0.0828747 0.915887 0.670872
560 1 0.162116 0.926685 0.587493
557 1 0.179736 0.829872 0.500087
439 1 0.244348 0.0117301 0.592817
564 1 0.322146 0.922899 0.586025
581 1 0.166631 1.00653 0.683924
702 1 0.242225 0.927903 0.678361
705 1 0.334517 0.831927 0.659223
443 1 0.434314 0.987274 0.580651
563 1 0.4143 0.832536 0.580697
706 1 0.420896 0.919147 0.667973
447 1 0.575154 1.00823 0.598007
568 1 0.506217 0.906372 0.589847
710 1 0.580546 0.907269 0.671217
572 1 0.663831 0.91221 0.587193
589 1 0.502194 0.00315288 0.682754
451 1 0.741986 1.00228 0.581692
576 1 0.837542 0.918822 0.581641
593 1 0.66932 -0.0114206 0.666185
575 1 0.936983 0.834232 0.586473
453 1 0.833497 -0.0115677 0.506041
597 1 0.818556 0.0171462 0.655485
718 1 0.937186 0.933598 0.666251
578 1 0.0876912 0.0813939 0.676253
722 1 0.0834081 0.0719288 0.842432
601 1 0.00960802 0.177959 0.671761
721 1 0.00388999 1.00197 0.839451
584 1 0.171538 0.0772205 0.760308
588 1 0.347576 0.0927151 0.754328
586 1 0.413577 0.0862058 0.6687
611 1 0.418462 0.168571 0.742755
592 1 0.508157 0.0834971 0.748998
613 1 0.512551 0.168178 0.66814
615 1 0.612774 0.18387 0.750631
757 1 0.507926 0.165862 0.843954
596 1 0.6614 0.0957316 0.750748
600 1 0.837273 0.099893 0.754971
619 1 0.746575 0.171981 0.753821
595 1 0.750065 0.00410808 0.742426
580 1 -0.00533891 0.0677069 0.755639
621 1 0.844571 0.166083 0.678684
598 1 0.931091 0.0843202 0.663417
603 1 0.0817326 0.162294 0.755762
604 1 0.0130686 0.254074 0.757287
627 1 0.0882642 0.335861 0.747098
606 1 0.256779 0.256056 0.672405
607 1 0.258171 0.150183 0.760034
608 1 0.163404 0.237013 0.7658
612 1 0.330849 0.244775 0.749056
610 1 0.428795 0.251781 0.650424
754 1 0.417761 0.249808 0.827957
616 1 0.511913 0.240913 0.760349
614 1 0.582675 0.254278 0.665454
641 1 0.663743 0.34591 0.659121
785 1 0.675841 0.336593 0.843668
781 1 0.515129 0.340834 0.835719
645 1 0.834437 0.333522 0.669849
620 1 0.682329 0.262314 0.743847
618 1 0.765589 0.239583 0.667732
762 1 0.751128 0.253986 0.839032
625 1 0.00395346 0.331744 0.663859
622 1 0.917887 0.25305 0.671203
624 1 0.834335 0.248808 0.750831
623 1 0.929 0.171751 0.745356
647 1 0.906527 0.338663 0.754553
651 1 0.0775651 0.491064 0.739643
770 1 0.0800814 0.412148 0.830575
628 1 0.00450579 0.414066 0.741877
632 1 0.167393 0.409364 0.751291
629 1 0.17005 0.325688 0.66795
633 1 0.349339 0.337492 0.655423
630 1 0.254272 0.407758 0.674771
657 1 0.334725 0.487041 0.685277
631 1 0.247576 0.329188 0.76373
636 1 0.339417 0.400217 0.751399
634 1 0.428206 0.419635 0.655063
635 1 0.422289 0.32394 0.746113
640 1 0.502941 0.403649 0.748516
661 1 0.497614 0.496299 0.668731
638 1 0.576549 0.420619 0.663016
639 1 0.604456 0.326887 0.75381
644 1 0.670529 0.416275 0.758415
663 1 0.585829 0.486793 0.749949
642 1 0.75572 0.405693 0.662044
669 1 0.826887 0.521101 0.658257
643 1 0.761663 0.336362 0.750437
648 1 0.839076 0.423386 0.747224
649 1 1.00903 0.499702 0.65309
646 1 0.909935 0.409812 0.659475
790 1 0.92051 0.405017 0.826283
793 1 -0.00134567 0.490107 0.826086
671 1 0.916345 0.492315 0.722038
650 1 0.0869986 0.577778 0.65682
673 1 0.993483 0.659015 0.662524
652 1 -0.00518646 0.578821 0.745685
675 1 0.0899413 0.653952 0.728249
655 1 0.243274 0.492788 0.746227
656 1 0.17743 0.567227 0.746223
660 1 0.329397 0.558502 0.76903
659 1 0.419996 0.480038 0.756005
805 1 0.497633 0.472268 0.839414
683 1 0.402226 0.6659 0.75855
664 1 0.51864 0.5658 0.744349
662 1 0.596151 0.577584 0.64948
806 1 0.58339 0.589944 0.82768
833 1 0.661075 0.658625 0.836018
667 1 0.748837 0.485285 0.738749
668 1 0.66912 0.579881 0.749002
672 1 0.807057 0.579393 0.750293
810 1 0.741944 0.590206 0.827931
813 1 0.821536 0.507928 0.823724
670 1 0.912672 0.589709 0.667927
814 1 0.913563 0.559347 0.80275
674 1 0.0844364 0.740639 0.653735
701 1 0.173883 0.836087 0.67204
818 1 0.0731791 0.736677 0.817283
678 1 0.250618 0.746945 0.681528
679 1 0.240104 0.655873 0.760844
680 1 0.160858 0.733611 0.751284
822 1 0.257016 0.762025 0.831242
703 1 0.255885 0.851895 0.760767
684 1 0.345418 0.774254 0.763189
682 1 0.40709 0.743395 0.674907
688 1 0.491121 0.758582 0.758771
707 1 0.429876 0.843104 0.755973
689 1 0.665967 0.665527 0.675838
687 1 0.588089 0.664756 0.748031
692 1 0.668754 0.750558 0.738832
830 1 0.603032 0.761884 0.838812
691 1 0.74137 0.669572 0.743848
696 1 0.819399 0.75582 0.747465
715 1 0.746983 0.840573 0.750442
834 1 0.740255 0.760212 0.832782
857 1 0.671519 0.847564 0.831159
837 1 0.832074 0.663568 0.839038
695 1 0.887264 0.663133 0.74555
817 1 1.00144 0.659587 0.836293
676 1 -0.0127895 0.741886 0.737956
697 1 0.0105176 0.829538 0.667159
579 1 0.0872521 1.00912 0.76184
699 1 0.0763428 0.819558 0.746279
577 1 1.00856 0.0148249 0.644432
700 1 0.00963096 0.914036 0.761762
704 1 0.152832 0.926906 0.750752
583 1 0.252383 1.00126 0.760863
585 1 0.338312 -0.00449718 0.671624
587 1 0.431281 0.00351758 0.761826
708 1 0.333677 0.922216 0.74804
712 1 0.514337 0.915899 0.753399
711 1 0.588468 0.839793 0.763129
591 1 0.587707 1.00007 0.745924
716 1 0.657603 0.922047 0.74865
737 1 0.673059 0.00500574 0.817164
854 1 0.587951 0.93818 0.835686
714 1 0.756864 0.907613 0.652225
858 1 0.758043 0.930881 0.832644
719 1 0.932395 0.833749 0.735743
720 1 0.833494 0.922834 0.746639
599 1 0.896939 0.0128406 0.735375
741 1 0.85299 0.0104817 0.835413
861 1 0.83131 0.831327 0.828127
724 1 -0.0151774 0.084518 0.924409
747 1 0.0837791 0.157124 0.925499
6 1 0.246981 0.0862623 0.0199364
725 1 0.17562 -0.0113206 0.836944
728 1 0.152962 0.0828849 0.932115
726 1 0.241615 0.0769242 0.846455
751 1 0.239661 0.157485 0.929893
727 1 0.244732 0.00700758 0.93284
729 1 0.330557 0.0163201 0.846928
753 1 0.335259 0.166963 0.840561
732 1 0.32299 0.0929822 0.925553
730 1 0.424222 0.0919238 0.824562
755 1 0.412759 0.177928 0.918115
736 1 0.500167 0.0932527 0.921608
734 1 0.587331 0.0860035 0.827102
759 1 0.587888 0.165198 0.913241
735 1 0.594318 0.000458528 0.920427
18 1 0.76042 0.0700924 0.999109
761 1 0.669504 0.163991 0.838407
740 1 0.67406 0.0877311 0.921056
738 1 0.751582 0.0815078 0.830618
744 1 0.835148 0.0872494 0.92491
739 1 0.757641 0.00610407 0.912359
745 1 0.99818 0.17288 0.839692
742 1 0.923111 0.0992888 0.829114
767 1 0.908385 0.173683 0.931837
746 1 0.0845117 0.254078 0.832491
752 1 0.160056 0.246711 0.922094
749 1 0.160348 0.1578 0.849362
750 1 0.244573 0.243846 0.833623
34 1 0.409294 0.238553 0.00653237
756 1 0.313333 0.240693 0.91845
760 1 0.497314 0.260986 0.904251
38 1 0.59608 0.253837 0.991646
758 1 0.591958 0.257257 0.842185
764 1 0.672573 0.250444 0.923031
783 1 0.606107 0.33952 0.930485
42 1 0.750765 0.272156 1.00925
763 1 0.760481 0.164636 0.912159
789 1 0.830142 0.331304 0.825529
45 1 0.825703 0.171263 -0.00836654
766 1 0.911144 0.25439 0.849268
769 1 0.00220648 0.339535 0.832657
748 1 0.995809 0.247105 0.914112
765 1 0.837424 0.180018 0.832599
69 1 0.829404 0.343779 1.01223
768 1 0.826368 0.262216 0.923739
791 1 0.913502 0.33872 0.908277
50 1 0.0864214 0.417158 -0.000508854
773 1 0.164391 0.322152 0.830645
771 1 0.0772508 0.332694 0.911245
776 1 0.162689 0.405325 0.921361
795 1 0.0853518 0.486115 0.916491
54 1 0.239649 0.40176 1.00469
774 1 0.238133 0.411592 0.838256
777 1 0.331347 0.314095 0.83439
775 1 0.243214 0.320552 0.911946
780 1 0.331483 0.406715 0.925414
57 1 0.326877 0.320634 -0.00792425
778 1 0.422452 0.391618 0.840706
779 1 0.402967 0.307855 0.913883
784 1 0.509117 0.409369 0.920133
61 1 0.500452 0.322563 0.991205
65 1 0.66993 0.335577 0.026333
62 1 0.565466 0.428427 0.0210588
782 1 0.59706 0.411429 0.836665
809 1 0.65914 0.51173 0.826452
788 1 0.669793 0.433497 0.904434
85 1 0.493289 0.501504 -0.00643012
787 1 0.735196 0.343781 0.933018
66 1 0.74157 0.421302 0.0027827
786 1 0.757045 0.419892 0.814341
792 1 0.819137 0.411384 0.910735
93 1 0.824906 0.495897 0.989359
772 1 1.00312 0.426876 0.919942
70 1 0.900765 0.420103 0.982703
815 1 0.891883 0.500177 0.899984
101 1 0.167644 0.653937 0.98413
797 1 0.17677 0.490974 0.848124
794 1 0.0908945 0.57428 0.821856
77 1 0.173878 0.490526 1.0054
74 1 0.086713 0.55723 1.00123
801 1 0.34103 0.467411 0.835103
798 1 0.241263 0.57823 0.841363
78 1 0.248441 0.57051 1.00608
799 1 0.261072 0.487639 0.923661
800 1 0.142424 0.572105 0.916701
804 1 0.360408 0.574952 0.927684
823 1 0.251055 0.655045 0.916749
803 1 0.414811 0.487172 0.914441
802 1 0.442543 0.574813 0.823291
827 1 0.419075 0.666482 0.905202
808 1 0.496378 0.582712 0.916418
807 1 0.571498 0.50772 0.909802
831 1 0.578582 0.671859 0.903625
812 1 0.661879 0.579544 0.922781
90 1 0.75279 0.605906 -0.00940686
811 1 0.744945 0.504961 0.920103
816 1 0.833269 0.600403 0.922742
835 1 0.746072 0.670237 0.90567
73 1 0.995495 0.503791 -0.00259399
796 1 0.98475 0.564912 0.913499
94 1 0.905469 0.580881 1.00561
841 1 0.986349 0.832412 0.831631
821 1 0.161557 0.657471 0.837142
819 1 0.0799302 0.666105 0.91378
98 1 0.0793918 0.755241 0.997418
843 1 0.0781071 0.828227 0.915004
845 1 0.164103 0.838311 0.846291
129 1 0.321444 0.827808 -0.00427575
825 1 0.338604 0.645726 0.83247
824 1 0.148489 0.745487 0.90748
828 1 0.328477 0.726706 0.911286
847 1 0.254467 0.851764 0.927253
106 1 0.419059 0.756975 0.989521
826 1 0.415892 0.761609 0.848408
853 1 0.497015 0.84175 0.845102
851 1 0.416553 0.843525 0.923743
849 1 0.34549 0.851888 0.843919
829 1 0.490822 0.672154 0.827983
110 1 0.574503 0.739367 0.00736177
832 1 0.512669 0.752177 0.910592
133 1 0.498626 0.829492 -0.0113315
117 1 0.837066 0.670459 1.00073
836 1 0.666713 0.739592 0.92438
840 1 0.823232 0.755424 0.924363
118 1 0.92463 0.747919 -0.00935066
838 1 0.918574 0.733353 0.825789
97 1 -0.00931427 0.659221 -0.00442255
839 1 0.924388 0.668655 0.912216
820 1 3.25316e-05 0.738049 0.914063
122 1 0.0683265 0.918133 0.00988907
842 1 0.0848045 0.916959 0.841888
723 1 0.0703163 1.00033 0.930356
844 1 -0.000814256 0.915337 0.919948
848 1 0.164342 0.918828 0.931071
846 1 0.270905 0.926957 0.842844
852 1 0.339446 0.936114 0.926138
130 1 0.412493 0.934239 0.0229718
731 1 0.415159 0.0180842 0.931741
850 1 0.416058 0.930212 0.850111
134 1 0.58922 0.921124 0.998467
855 1 0.591431 0.85976 0.903069
856 1 0.491088 0.933221 0.934459
733 1 0.505615 0.998114 0.842915
860 1 0.677711 0.920389 0.920144
138 1 0.757958 0.911106 -0.0175822
859 1 0.762838 0.838885 0.907488
743 1 0.91566 -0.00403993 0.913408
863 1 0.908142 0.835667 0.911429
864 1 0.840011 0.920957 0.906445
862 1 0.926613 0.937398 0.824424
