ITEM: TIMESTEP
8250
ITEM: NUMBER OF ATOMS
864
ITEM: BOX BOUNDS pp pp pp
0.0000000000000000e+00 3.1559999999999999e+01
0.0000000000000000e+00 3.1559999999999999e+01
0.0000000000000000e+00 3.1559999999999999e+01
ITEM: ATOMS id type xs ys zs
74 1 0.0814922 0.0812094 0.171056
27 1 0.0732759 0.171209 0.097968
216 1 0.840093 0.427036 0.428582
8 1 0.161 0.0986063 0.0936154
7 1 0.253387 0.00488508 0.100132
515 1 0.416799 0.497941 0.263988
12 1 0.337438 0.0896588 0.0895817
16 1 0.500804 0.103104 0.0811979
226 1 0.410688 0.0765374 0.499155
11 1 0.41201 0.0144092 0.0904407
77 1 0.165643 0.0127353 0.177404
20 1 0.667038 0.0947685 0.0766132
86 1 0.560818 0.107632 0.176317
113 1 0.656725 0.160302 0.169778
15 1 0.584627 0.0254512 0.084821
24 1 0.820957 0.0904499 0.0743779
19 1 0.744334 0.00572289 0.0744689
25 1 0.00419323 0.156789 0.00910109
4 1 0.997512 0.0663623 0.0916227
233 1 0.662345 0.0127719 0.486409
47 1 0.912429 0.154493 0.0806979
97 1 0.97804 0.155861 0.170937
32 1 0.164321 0.252581 0.0919679
51 1 0.0740706 0.3364 0.0786497
98 1 0.0764889 0.253503 0.162035
451 1 0.742216 0.490466 0.0771402
26 1 0.0846176 0.246178 0.00688674
31 1 0.257828 0.17097 0.0972708
36 1 0.334696 0.26465 0.0906457
30 1 0.251258 0.242709 0.0114094
33 1 0.332977 0.16476 0.0105462
34 1 0.409218 0.258486 0.00399872
35 1 0.405669 0.17584 0.094785
40 1 0.49143 0.254355 0.0910721
39 1 0.572456 0.169756 0.073791
44 1 0.666615 0.259723 0.0847778
37 1 0.484877 0.178266 0.000363588
439 1 0.252957 0.499163 0.0705719
43 1 0.746098 0.178271 0.0835845
114 1 0.750313 0.260856 0.163841
67 1 0.733578 0.350348 0.0809145
211 1 0.757412 0.34299 0.420054
28 1 0.991729 0.237041 0.0792727
48 1 0.835932 0.254031 0.0835221
71 1 0.920027 0.317125 0.0597403
118 1 0.913037 0.256425 0.162659
56 1 0.158075 0.420804 0.0708805
435 1 0.0655433 0.488376 0.0845272
209 1 0.648591 0.349737 0.33035
55 1 0.239495 0.335152 0.101563
60 1 0.323391 0.41596 0.0735395
126 1 0.240493 0.431053 0.163065
591 1 0.580105 0.497897 0.416573
59 1 0.412645 0.342514 0.0890617
58 1 0.412576 0.410891 0.010914
57 1 0.313292 0.333092 0.00612607
286 1 0.918644 0.422604 0.495256
157 1 0.488364 0.00163948 0.330752
64 1 0.500983 0.420401 0.102024
63 1 0.5795 0.327397 0.0901024
68 1 0.652271 0.421937 0.0845011
72 1 0.830837 0.415966 0.0799441
141 1 0.8211 0.340985 0.159379
53 1 0.172955 0.324821 0.0153618
52 1 0.982573 0.408935 0.080327
142 1 0.913171 0.407607 0.164594
85 1 0.499465 0.0102624 0.170655
149 1 0.173556 0.00576545 0.329193
146 1 0.069541 0.0966588 0.324566
78 1 0.232411 0.0934119 0.180647
79 1 0.246365 0.00667606 0.251707
81 1 0.341886 0.0214579 0.164162
167 1 0.922635 0.00855734 0.398684
80 1 0.160045 0.104019 0.259603
84 1 0.330598 0.0887551 0.254649
153 1 0.333016 0.00551321 0.333986
82 1 0.426701 0.0954486 0.166629
107 1 0.416594 0.174209 0.25992
154 1 0.412584 0.0866421 0.336511
89 1 0.660524 0.0321348 0.1688
2 1 0.0897755 0.0864267 0.0203689
88 1 0.499762 0.088905 0.256217
185 1 0.678663 0.176311 0.331959
90 1 0.751588 0.0920945 0.174543
92 1 0.659492 0.0941803 0.261487
96 1 0.833925 0.0944701 0.25346
91 1 0.746896 0.0120391 0.250098
94 1 0.891094 0.0831006 0.154745
93 1 0.817396 0.00280717 0.168657
76 1 0.992482 0.0881958 0.250759
509 1 0.157351 0.498343 0.164419
166 1 0.91501 0.103331 0.333121
101 1 0.167815 0.175591 0.158202
173 1 0.174533 0.183841 0.347834
99 1 0.0812658 0.178795 0.241511
170 1 0.0795932 0.264549 0.335347
129 1 0.326484 0.334163 0.164827
103 1 0.235185 0.17603 0.250059
104 1 0.175292 0.258304 0.249005
102 1 0.257885 0.252167 0.167345
108 1 0.337736 0.248784 0.255561
125 1 0.155093 0.343198 0.169378
127 1 0.24884 0.339417 0.243716
105 1 0.335271 0.17138 0.184852
109 1 0.486858 0.17693 0.172375
106 1 0.406795 0.250786 0.173759
133 1 0.497912 0.3426 0.16611
181 1 0.496244 0.182959 0.333014
112 1 0.474853 0.263247 0.251952
111 1 0.57726 0.167807 0.262206
110 1 0.578695 0.240697 0.16383
117 1 0.83559 0.18474 0.16192
115 1 0.753626 0.179537 0.252487
116 1 0.661967 0.252436 0.247983
119 1 0.899595 0.176915 0.248052
120 1 0.836116 0.268163 0.250265
100 1 0.99253 0.249328 0.239389
189 1 0.830611 0.176888 0.333127
193 1 0.98733 0.344936 0.33628
190 1 0.919243 0.266512 0.327074
123 1 0.0670116 0.323277 0.253468
121 1 0.997766 0.335782 0.166147
122 1 0.0787102 0.413595 0.15989
194 1 0.0802435 0.408397 0.323365
128 1 0.164109 0.412872 0.240841
124 1 0.995099 0.422057 0.242478
197 1 0.176682 0.337651 0.345273
455 1 0.905617 0.489689 0.0842524
132 1 0.317509 0.436487 0.239918
42 1 0.732624 0.251877 0.00817229
130 1 0.397029 0.426568 0.170654
131 1 0.385223 0.35453 0.255851
3 1 0.0955914 0.0021177 0.0895172
589 1 0.506798 0.499932 0.330952
50 1 0.0665065 0.423504 0.0074138
134 1 0.585469 0.416379 0.178609
137 1 0.657906 0.327782 0.170922
136 1 0.481037 0.410077 0.249421
135 1 0.567804 0.328912 0.251364
140 1 0.671123 0.42983 0.254802
139 1 0.750749 0.349329 0.255914
138 1 0.73636 0.413767 0.168965
210 1 0.748509 0.437278 0.33831
213 1 0.834669 0.365784 0.341342
144 1 0.831153 0.428649 0.245515
143 1 0.9109 0.343656 0.25249
257 1 0.671086 0.165669 0.494627
152 1 0.152067 0.086961 0.411833
169 1 0.00212766 0.18298 0.32067
171 1 0.0698224 0.17821 0.407436
147 1 0.0702333 0.0104843 0.427826
218 1 0.0806055 0.0934449 0.493304
281 1 0.6666 0.335234 0.49948
150 1 0.25126 0.0847062 0.321681
156 1 0.338661 0.0900733 0.416021
177 1 0.339025 0.17444 0.340886
151 1 0.250927 0.00335262 0.405012
145 1 0.00239332 0.0127361 0.329723
179 1 0.419592 0.168285 0.423143
160 1 0.502847 0.0802102 0.426343
155 1 0.416619 0.00590239 0.413959
5 1 0.177077 0.0155002 0.0203161
587 1 0.416287 0.499914 0.432853
21 1 0.834952 0.00296339 0.00169452
161 1 0.658199 0.00223755 0.322122
158 1 0.577666 0.0767093 0.330933
164 1 0.667206 0.0870033 0.398232
445 1 0.502983 0.494578 0.0156693
237 1 0.837807 0.00802523 0.49768
162 1 0.750829 0.0920968 0.322748
168 1 0.835132 0.0801639 0.407926
163 1 0.75048 0.0160966 0.410173
234 1 0.754571 0.0866105 0.49069
69 1 0.834436 0.338315 0.00593077
159 1 0.584243 0.000834987 0.417589
148 1 0.996725 0.0862402 0.421766
176 1 0.160336 0.267389 0.425006
195 1 0.0712175 0.349838 0.425038
95 1 0.922749 0.00671488 0.231619
201 1 0.315233 0.327264 0.327502
174 1 0.256641 0.24776 0.33697
175 1 0.250154 0.159028 0.416692
180 1 0.347443 0.250708 0.420032
199 1 0.254722 0.330887 0.424381
215 1 0.918906 0.338678 0.423253
178 1 0.418905 0.25618 0.33758
205 1 0.495488 0.334237 0.331619
184 1 0.499007 0.26909 0.417508
182 1 0.591841 0.251518 0.340492
183 1 0.569738 0.175518 0.419912
254 1 0.585037 0.257738 0.485823
188 1 0.681913 0.248864 0.409963
186 1 0.761011 0.260045 0.334705
187 1 0.757169 0.167801 0.417596
191 1 0.917307 0.167603 0.423002
192 1 0.830608 0.243967 0.423216
172 1 0.998844 0.257304 0.417622
1 1 0.990223 0.00873179 0.00412961
585 1 0.33459 0.498376 0.335081
214 1 0.915464 0.444591 0.322238
196 1 0.998482 0.442017 0.426196
200 1 0.166384 0.41511 0.433416
198 1 0.244544 0.437348 0.329369
204 1 0.321099 0.419461 0.415539
437 1 0.152502 0.497532 0.00132347
75 1 0.0826184 0.00249103 0.256749
9 1 0.336249 0.019001 0.0138059
202 1 0.414694 0.416295 0.348374
208 1 0.496294 0.424127 0.425053
203 1 0.403813 0.337748 0.429222
87 1 0.578829 0.00596163 0.243214
6 1 0.249759 0.0967788 0.0184901
207 1 0.573701 0.351452 0.407782
206 1 0.57852 0.426538 0.32038
212 1 0.66826 0.440422 0.421988
41 1 0.65515 0.176538 0.00123267
581 1 0.156229 0.496184 0.337509
38 1 0.584356 0.254413 0.000149412
220 1 0.0116611 0.0974597 0.588709
290 1 0.0835463 0.0820201 0.671024
219 1 0.0794453 0.00578213 0.582087
224 1 0.164149 0.0915898 0.608033
294 1 0.262513 0.0772006 0.669676
278 1 0.598266 0.434004 0.513115
419 1 0.426884 0.339544 0.910503
428 1 0.668296 0.402863 0.901929
228 1 0.327585 0.079364 0.575879
430 1 0.898971 0.414918 0.836484
238 1 0.914135 0.0840705 0.502178
232 1 0.487258 0.0892114 0.584009
383 1 0.907953 0.000977085 0.927088
236 1 0.677924 0.0916935 0.592131
235 1 0.751511 0.00420093 0.568234
329 1 0.665916 0.167567 0.667265
70 1 0.919372 0.418865 0.989174
240 1 0.828074 0.0858397 0.583758
65 1 0.661194 0.327885 0.997223
243 1 0.0823804 0.171873 0.599466
244 1 0.995999 0.257676 0.588356
242 1 0.0847153 0.241025 0.510894
247 1 0.250355 0.149869 0.595579
248 1 0.16758 0.246778 0.581038
252 1 0.325206 0.240714 0.589002
325 1 0.482293 0.161663 0.670134
251 1 0.409547 0.163304 0.575114
322 1 0.410302 0.2519 0.665605
371 1 0.40999 0.00902644 0.921224
412 1 0.991651 0.416722 0.909627
256 1 0.499235 0.238176 0.595964
255 1 0.589021 0.167187 0.578308
260 1 0.670735 0.234975 0.588395
62 1 0.583217 0.403735 0.990348
326 1 0.584237 0.257641 0.658237
223 1 0.241489 0.0100521 0.581306
259 1 0.759561 0.176298 0.607928
283 1 0.745136 0.333137 0.582453
258 1 0.744028 0.249549 0.507143
230 1 0.590924 0.090538 0.500338
261 1 0.832023 0.173181 0.503853
333 1 0.841602 0.176095 0.672157
263 1 0.912364 0.158621 0.585511
264 1 0.833675 0.253627 0.576435
267 1 0.0705104 0.344986 0.593661
268 1 0.991071 0.434841 0.57543
338 1 0.0749841 0.432429 0.665432
272 1 0.174735 0.434791 0.595199
269 1 0.161701 0.336523 0.515548
265 1 0.00747624 0.32114 0.500539
266 1 0.0880487 0.428104 0.525826
271 1 0.249123 0.337908 0.587684
273 1 0.328888 0.341268 0.506853
342 1 0.250544 0.411761 0.670866
276 1 0.337349 0.424738 0.587157
275 1 0.421914 0.336722 0.579151
345 1 0.339236 0.346833 0.676297
346 1 0.431643 0.424089 0.673846
349 1 0.496244 0.328869 0.65789
29 1 0.163021 0.165162 0.993085
280 1 0.506389 0.416578 0.593704
279 1 0.590226 0.335204 0.572498
350 1 0.591871 0.412299 0.665004
663 1 0.602356 0.49803 0.595994
284 1 0.673036 0.415323 0.58286
354 1 0.760728 0.417075 0.654041
353 1 0.678531 0.323474 0.670361
282 1 0.753819 0.41976 0.502536
288 1 0.839648 0.424333 0.578461
287 1 0.92856 0.343632 0.582279
305 1 0.6549 0.00796548 0.657026
277 1 0.512562 0.344072 0.502809
291 1 0.0951619 0.004235 0.744116
424 1 0.50462 0.415252 0.918728
296 1 0.175928 0.10158 0.748947
319 1 0.258497 0.176417 0.762539
298 1 0.414405 0.071094 0.67084
300 1 0.330613 0.0780387 0.760175
323 1 0.411157 0.182073 0.753617
304 1 0.504598 0.0829114 0.759513
302 1 0.566526 0.0842265 0.649872
285 1 0.841963 0.345145 0.507273
306 1 0.767731 0.0867934 0.673423
308 1 0.672073 0.089662 0.744304
312 1 0.839121 0.084751 0.750631
378 1 0.758483 0.0784723 0.826118
449 1 0.662513 0.49164 0.994068
401 1 0.654873 0.159144 0.835765
310 1 0.926575 0.0860387 0.668903
292 1 0.0134152 0.0684568 0.749897
10 1 0.416698 0.0945114 0.996682
382 1 0.908881 0.0715985 0.830696
314 1 0.0747332 0.267845 0.670564
313 1 0.00671526 0.163555 0.678039
337 1 0.992243 0.341939 0.675563
315 1 0.0901132 0.171794 0.766667
316 1 0.00836633 0.243683 0.745446
317 1 0.167774 0.17487 0.670329
320 1 0.153856 0.262508 0.757627
318 1 0.249464 0.253223 0.657741
390 1 0.245755 0.242033 0.839935
413 1 0.157474 0.352413 0.840358
343 1 0.250485 0.352076 0.760686
321 1 0.342023 0.151309 0.667107
324 1 0.327421 0.252096 0.737271
328 1 0.50013 0.239593 0.740596
394 1 0.407097 0.260071 0.827064
397 1 0.494497 0.170427 0.831035
421 1 0.497528 0.337724 0.831595
327 1 0.589493 0.16215 0.74926
332 1 0.6709 0.243248 0.759802
351 1 0.583894 0.324389 0.747732
331 1 0.740569 0.165698 0.766943
330 1 0.750564 0.240409 0.683069
336 1 0.836879 0.245686 0.747772
355 1 0.759205 0.33688 0.751706
405 1 0.830887 0.161458 0.836674
402 1 0.750949 0.249173 0.835435
334 1 0.919941 0.250762 0.674087
335 1 0.924031 0.155338 0.755825
357 1 0.838912 0.339747 0.648237
339 1 0.0672815 0.330646 0.751219
340 1 0.979544 0.421596 0.757487
429 1 0.822101 0.327739 0.846408
341 1 0.15955 0.345392 0.665715
344 1 0.165199 0.421902 0.75198
348 1 0.345491 0.422751 0.769866
414 1 0.251032 0.433817 0.843764
417 1 0.323757 0.331322 0.839433
347 1 0.418135 0.338613 0.748973
352 1 0.51447 0.422353 0.740112
422 1 0.578571 0.400587 0.817277
735 1 0.600525 0.492747 0.740863
805 1 0.507193 0.497808 0.836361
249 1 0.33473 0.158163 0.506825
426 1 0.765916 0.415956 0.830256
432 1 0.832958 0.416257 0.931938
356 1 0.681238 0.410724 0.735055
358 1 0.916441 0.430046 0.66004
359 1 0.905316 0.328432 0.757561
360 1 0.841788 0.413867 0.744174
362 1 0.0919509 0.0750412 0.836948
387 1 0.0731537 0.152202 0.929216
61 1 0.50583 0.327542 0.991455
366 1 0.256955 0.0799192 0.851671
217 1 0.99267 0.0105006 0.520059
368 1 0.161857 0.0841154 0.926751
372 1 0.317038 0.0900065 0.93834
377 1 0.675549 0.00974084 0.831422
425 1 0.675565 0.33551 0.814261
299 1 0.422216 0.00256298 0.761984
370 1 0.417745 0.0892027 0.83041
376 1 0.485199 0.105922 0.91575
807 1 0.583876 0.492625 0.915987
13 1 0.498504 0.00699622 0.992183
17 1 0.671248 0.00340736 0.996217
14 1 0.579208 0.0883196 0.987978
374 1 0.580165 0.0825541 0.844281
399 1 0.561976 0.17221 0.919841
221 1 0.156788 0.0115812 0.507626
18 1 0.737608 0.0865472 0.992286
380 1 0.659741 0.084655 0.915337
384 1 0.83103 0.0869221 0.915115
809 1 0.681327 0.479698 0.821385
241 1 0.997465 0.175313 0.50379
364 1 0.994583 0.0861682 0.919956
407 1 0.914989 0.160391 0.901375
386 1 0.0815916 0.249876 0.838256
392 1 0.157274 0.253978 0.912778
49 1 0.99986 0.323236 0.999826
393 1 0.337571 0.163814 0.843816
389 1 0.177373 0.15561 0.838472
391 1 0.249695 0.17633 0.920578
396 1 0.334508 0.261692 0.909553
395 1 0.404272 0.176743 0.928007
398 1 0.586575 0.252671 0.825466
400 1 0.485406 0.251964 0.911633
404 1 0.65756 0.255936 0.906642
423 1 0.579744 0.324037 0.906382
427 1 0.74417 0.326305 0.923456
379 1 0.760082 0.0190851 0.905793
403 1 0.737941 0.164812 0.916702
408 1 0.817055 0.243323 0.920824
303 1 0.585322 0.00565446 0.752143
45 1 0.815964 0.163538 0.995148
431 1 0.915738 0.323976 0.923483
46 1 0.905814 0.227755 0.987466
385 1 0.00577896 0.157033 0.830717
388 1 0.00919014 0.235591 0.922974
406 1 0.909753 0.251932 0.837801
799 1 0.233153 0.498249 0.934045
274 1 0.423228 0.423493 0.51366
409 1 0.988305 0.314941 0.849518
410 1 0.0683393 0.428017 0.829524
375 1 0.573533 0.00657774 0.915774
222 1 0.246161 0.0897864 0.506673
411 1 0.0787941 0.338102 0.925954
367 1 0.257374 0.011804 0.942574
253 1 0.503101 0.15526 0.504697
416 1 0.149651 0.422052 0.933495
415 1 0.244984 0.330067 0.917686
54 1 0.234176 0.407129 0.999695
813 1 0.837488 0.498371 0.833001
418 1 0.430773 0.413529 0.834895
66 1 0.750062 0.43022 0.98655
22 1 0.909769 0.0950981 0.984616
420 1 0.346911 0.413077 0.913544
301 1 0.4999 0.00741484 0.673939
262 1 0.924484 0.24982 0.503303
245 1 0.162329 0.176013 0.505095
250 1 0.4216 0.242006 0.505193
373 1 0.497445 0.0044159 0.839411
433 1 0.993825 0.497549 0.998798
246 1 0.242672 0.241137 0.503847
229 1 0.481874 0.000337552 0.511579
270 1 0.239353 0.435173 0.508566
739 1 0.760674 0.494798 0.744616
729 1 0.337544 0.489275 0.684173
440 1 0.161372 0.577573 0.0932795
436 1 0.988935 0.576643 0.0945156
465 1 0.335881 0.666626 0.0152829
657 1 0.320533 0.51314 0.498966
444 1 0.324371 0.573385 0.0759538
501 1 0.815811 0.83644 0.00262726
467 1 0.421745 0.668406 0.0881709
519 1 0.579511 0.511487 0.232986
644 1 0.671026 0.934331 0.412079
448 1 0.497361 0.5901 0.0911351
452 1 0.672552 0.595639 0.0897614
494 1 0.5695 0.917842 0.00364555
456 1 0.845564 0.593333 0.0732703
475 1 0.759759 0.668237 0.0757344
453 1 0.827739 0.504971 0.000234996
521 1 0.672274 0.505351 0.162006
526 1 0.901982 0.593365 0.166587
438 1 0.248739 0.589457 0.00868863
459 1 0.0755823 0.664796 0.0787243
464 1 0.160131 0.751436 0.0611971
533 1 0.154325 0.6709 0.163068
497 1 0.655885 0.8409 0.00433714
463 1 0.239417 0.668854 0.0901825
523 1 0.746815 0.504554 0.251064
468 1 0.31943 0.749814 0.092512
472 1 0.509429 0.743793 0.101864
471 1 0.580967 0.653835 0.0817259
476 1 0.662484 0.739283 0.0700438
495 1 0.576928 0.837456 0.0822158
83 1 0.42257 0.9945 0.242813
569 1 0.665601 0.840778 0.165541
546 1 0.755035 0.750226 0.161446
549 1 0.828385 0.667737 0.150906
460 1 0.998138 0.74281 0.0906631
479 1 0.918676 0.665414 0.0845917
480 1 0.840236 0.747266 0.0682139
550 1 0.90831 0.754031 0.160539
483 1 0.0787281 0.845421 0.076497
685 1 0.496601 0.67452 0.498781
482 1 0.0813232 0.926991 0.00255804
579 1 0.0800382 0.521673 0.422619
487 1 0.252366 0.83582 0.096264
488 1 0.175996 0.926498 0.0783257
558 1 0.249045 0.911038 0.179586
492 1 0.33809 0.920751 0.116073
645 1 0.827199 0.834629 0.339045
490 1 0.407699 0.914778 0.0224572
491 1 0.402737 0.829044 0.0915974
493 1 0.48565 0.817372 0.0199885
562 1 0.434772 0.919726 0.161425
496 1 0.50012 0.942189 0.0841402
566 1 0.581947 0.931688 0.158843
511 1 0.231148 0.508524 0.233366
458 1 0.0651348 0.756178 0.0059959
499 1 0.752437 0.828601 0.0909346
500 1 0.653411 0.929195 0.0689645
570 1 0.745359 0.932017 0.172901
504 1 0.821141 0.918427 0.0766289
573 1 0.818854 0.832155 0.172165
517 1 0.4905 0.5113 0.162729
484 1 0.977817 0.919141 0.0719473
503 1 0.899078 0.831267 0.0721959
574 1 0.903475 0.916443 0.16077
23 1 0.915796 0.996279 0.0895405
506 1 0.0776609 0.587643 0.16894
512 1 0.149261 0.581546 0.253005
507 1 0.0734988 0.505538 0.24896
665 1 0.683971 0.517327 0.49763
510 1 0.243473 0.588389 0.160009
582 1 0.239259 0.554446 0.331044
516 1 0.3217 0.574368 0.24303
514 1 0.413868 0.584047 0.168767
520 1 0.481247 0.586049 0.249174
539 1 0.404193 0.664288 0.239075
541 1 0.501248 0.659587 0.17756
518 1 0.586152 0.603748 0.174823
466 1 0.40611 0.749617 0.00191041
694 1 0.917033 0.755443 0.49799
522 1 0.749562 0.586796 0.158099
524 1 0.668856 0.596845 0.248057
528 1 0.821015 0.593862 0.243697
545 1 0.677179 0.678513 0.168796
593 1 0.681285 0.517303 0.330324
508 1 0.0031383 0.589524 0.250539
598 1 0.922068 0.588489 0.3356
527 1 0.90435 0.521669 0.238906
530 1 0.0841243 0.77459 0.165851
531 1 0.0937696 0.682349 0.254191
602 1 0.0968595 0.753548 0.349814
534 1 0.247132 0.747246 0.174482
535 1 0.243268 0.64738 0.251292
536 1 0.176917 0.747794 0.258319
540 1 0.33118 0.746384 0.246663
537 1 0.332118 0.659136 0.161791
538 1 0.427072 0.748752 0.169317
544 1 0.499831 0.740377 0.242391
610 1 0.410156 0.758677 0.331742
543 1 0.588684 0.673031 0.269544
542 1 0.597665 0.747524 0.168608
548 1 0.658283 0.758554 0.257295
614 1 0.571946 0.760311 0.334322
547 1 0.753315 0.684916 0.244481
552 1 0.842664 0.751818 0.249905
617 1 0.667758 0.669894 0.336762
618 1 0.746125 0.75454 0.329978
601 1 0.00234402 0.673098 0.336326
529 1 0.0198605 0.670062 0.17282
532 1 0.992525 0.752937 0.258633
551 1 0.908647 0.672408 0.255356
678 1 0.265156 0.751822 0.497728
554 1 0.0966738 0.911939 0.170312
553 1 0.985956 0.841019 0.151499
555 1 0.081943 0.844981 0.257322
626 1 0.0753592 0.920782 0.349402
557 1 0.163408 0.840315 0.161257
561 1 0.335298 0.82946 0.169487
560 1 0.169569 0.901616 0.257697
559 1 0.255816 0.826801 0.256925
564 1 0.329856 0.930656 0.24622
647 1 0.916084 0.841189 0.418269
563 1 0.425979 0.841876 0.247308
565 1 0.499268 0.828333 0.160674
567 1 0.585671 0.82756 0.236492
568 1 0.516137 0.909684 0.257102
513 1 0.324261 0.504217 0.159809
637 1 0.494512 0.842489 0.343498
641 1 0.669413 0.836952 0.324312
638 1 0.581571 0.926744 0.348192
572 1 0.655766 0.919451 0.256005
571 1 0.755552 0.830381 0.256236
576 1 0.839308 0.922896 0.240305
642 1 0.744729 0.924887 0.333352
73 1 0.0184338 0.978279 0.161679
625 1 0.00107322 0.826679 0.344799
575 1 0.919914 0.834706 0.248426
556 1 0.987788 0.912186 0.256614
646 1 0.905371 0.899587 0.335167
505 1 0.000468513 0.500116 0.175084
713 1 0.671046 0.857911 0.492529
578 1 0.0729606 0.588815 0.338023
580 1 0.998869 0.598815 0.424169
470 1 0.58142 0.743343 0.00176745
481 1 0.998255 0.833567 0.00239643
434 1 0.0720243 0.575816 0.0147916
583 1 0.24182 0.507069 0.41918
584 1 0.162889 0.592037 0.420734
607 1 0.245192 0.670982 0.416659
588 1 0.333662 0.582497 0.408869
586 1 0.425355 0.583625 0.340474
592 1 0.505125 0.581916 0.415152
577 1 0.991175 0.513064 0.352513
662 1 0.581623 0.578 0.498638
590 1 0.594728 0.571581 0.327724
596 1 0.661661 0.587157 0.420434
474 1 0.748109 0.747625 0.00430701
594 1 0.76154 0.596637 0.333401
595 1 0.759731 0.510147 0.421797
443 1 0.404145 0.503951 0.0882269
597 1 0.833326 0.509846 0.348061
599 1 0.913156 0.516677 0.425987
648 1 0.834852 0.921665 0.421316
600 1 0.834595 0.593855 0.411631
603 1 0.085938 0.668712 0.428004
653 1 0.161095 0.501893 0.492764
442 1 0.424012 0.593231 0.00461399
605 1 0.163418 0.668341 0.335266
606 1 0.252547 0.742398 0.336804
608 1 0.175577 0.743894 0.41996
612 1 0.34289 0.752311 0.418013
613 1 0.496102 0.675922 0.331829
609 1 0.327221 0.661731 0.339876
611 1 0.411447 0.65803 0.418733
486 1 0.268444 0.917278 0.00990695
686 1 0.574367 0.754783 0.483124
615 1 0.574852 0.666707 0.402245
616 1 0.476882 0.746808 0.414657
619 1 0.741373 0.692647 0.413822
620 1 0.656001 0.758535 0.411343
447 1 0.57229 0.501655 0.0918747
622 1 0.915372 0.768194 0.349832
623 1 0.90934 0.676604 0.417021
621 1 0.834101 0.666246 0.333917
624 1 0.839823 0.756833 0.427946
604 1 0.0104696 0.75349 0.425085
701 1 0.183198 0.835069 0.495917
525 1 0.828427 0.506875 0.16597
629 1 0.166684 0.836283 0.339146
628 1 0.999907 0.92585 0.432522
632 1 0.16948 0.916005 0.421635
627 1 0.0833677 0.838521 0.434414
714 1 0.754344 0.9321 0.491055
631 1 0.256687 0.840169 0.422322
630 1 0.252029 0.915281 0.328502
636 1 0.343186 0.916023 0.415732
702 1 0.253493 0.924495 0.482216
633 1 0.33629 0.848766 0.33255
634 1 0.41539 0.927686 0.341884
635 1 0.421225 0.83634 0.424043
640 1 0.495091 0.936302 0.422091
710 1 0.593117 0.925964 0.496269
666 1 0.758941 0.599881 0.494367
639 1 0.592571 0.846275 0.42018
643 1 0.742779 0.842877 0.411659
485 1 0.183382 0.847922 0.00057699
165 1 0.834101 0.999361 0.331596
489 1 0.342975 0.837779 0.000522788
461 1 0.161619 0.65481 0.00837733
462 1 0.272556 0.757708 0.000130142
651 1 0.0828316 0.517471 0.591691
725 1 0.166493 0.519597 0.669832
656 1 0.159926 0.599114 0.587682
726 1 0.261127 0.605985 0.665707
231 1 0.590744 0.998622 0.57207
671 1 0.9111 0.518941 0.58426
655 1 0.24196 0.516252 0.581275
660 1 0.324002 0.588037 0.581521
730 1 0.436169 0.587157 0.652578
682 1 0.418187 0.754107 0.501544
658 1 0.419149 0.58645 0.518033
664 1 0.511813 0.58324 0.580277
668 1 0.670819 0.593418 0.578603
761 1 0.659255 0.672089 0.665546
757 1 0.498849 0.687118 0.660731
365 1 0.173199 0.993801 0.834306
677 1 0.162541 0.671414 0.502497
738 1 0.748732 0.589539 0.662061
667 1 0.757777 0.512205 0.588603
717 1 0.834032 0.837047 0.507124
307 1 0.755939 0.986495 0.762296
652 1 9.20982e-05 0.588014 0.598945
672 1 0.826506 0.589685 0.585502
693 1 0.822007 0.680788 0.50295
718 1 0.907871 0.931067 0.500949
675 1 0.0699903 0.667595 0.593905
676 1 0.00049854 0.761666 0.599755
746 1 0.0950939 0.737101 0.669081
502 1 0.896984 0.91163 0.997495
680 1 0.170465 0.763596 0.589194
679 1 0.247135 0.67833 0.582119
703 1 0.265385 0.831399 0.5852
684 1 0.336752 0.752201 0.59075
683 1 0.419267 0.678979 0.586502
707 1 0.415769 0.83514 0.600571
737 1 0.682323 0.512346 0.670132
687 1 0.583466 0.66679 0.596275
688 1 0.532183 0.764839 0.582791
692 1 0.640495 0.755661 0.586409
661 1 0.50121 0.503937 0.510454
781 1 0.497067 0.847412 0.674006
691 1 0.724866 0.686392 0.588137
715 1 0.736133 0.842122 0.584781
695 1 0.911745 0.690671 0.583612
696 1 0.818218 0.762335 0.580571
769 1 0.0215436 0.847051 0.668665
689 1 0.656569 0.675781 0.506935
699 1 0.0861133 0.835604 0.584982
700 1 0.996789 0.922826 0.590661
704 1 0.186237 0.92582 0.568737
708 1 0.34183 0.911317 0.602281
706 1 0.414724 0.913869 0.501794
712 1 0.485239 0.925915 0.595839
711 1 0.591766 0.854209 0.571779
782 1 0.574494 0.915777 0.662351
716 1 0.673096 0.918014 0.594159
709 1 0.498645 0.833508 0.509557
785 1 0.645943 0.836317 0.671517
720 1 0.810838 0.917105 0.582776
733 1 0.513101 0.513046 0.666334
795 1 0.0841581 0.50096 0.916875
789 1 0.832567 0.849983 0.657765
719 1 0.908685 0.854529 0.585329
790 1 0.922494 0.916581 0.664126
697 1 0.99494 0.844553 0.51495
722 1 0.0783442 0.587089 0.672502
745 1 0.989055 0.676076 0.671775
724 1 0.995976 0.59566 0.751543
227 1 0.404986 0.995508 0.59359
728 1 0.172687 0.592777 0.759481
751 1 0.263767 0.668017 0.759966
670 1 0.916848 0.59872 0.509901
732 1 0.357238 0.575935 0.73801
755 1 0.429185 0.672854 0.757895
734 1 0.580185 0.587405 0.670359
736 1 0.506494 0.580112 0.752818
650 1 0.0772181 0.604503 0.510334
740 1 0.684704 0.57625 0.756849
763 1 0.739042 0.677516 0.739992
744 1 0.833355 0.602088 0.744919
477 1 0.857074 0.660115 0.99566
721 1 0.990452 0.500186 0.673858
742 1 0.910106 0.598153 0.665428
814 1 0.924464 0.592309 0.837767
446 1 0.58317 0.577529 0.999232
817 1 0.995029 0.692095 0.830464
747 1 0.0819665 0.660465 0.757112
748 1 0.00584491 0.752479 0.740315
749 1 0.176772 0.670201 0.67404
752 1 0.180568 0.734903 0.754337
750 1 0.257916 0.762526 0.672674
773 1 0.173101 0.840318 0.661488
775 1 0.24982 0.831493 0.75806
753 1 0.34514 0.671709 0.679957
756 1 0.329028 0.750086 0.769506
754 1 0.41304 0.761306 0.676492
779 1 0.412412 0.827433 0.754722
758 1 0.567408 0.767687 0.683909
759 1 0.590115 0.665259 0.747175
760 1 0.499234 0.756859 0.767872
764 1 0.664338 0.76995 0.754144
762 1 0.743132 0.776582 0.672172
768 1 0.828964 0.768577 0.72858
765 1 0.829135 0.679078 0.663067
766 1 0.918412 0.771577 0.664629
767 1 0.910203 0.688341 0.759324
771 1 0.103816 0.819474 0.737106
770 1 0.0943465 0.9227 0.652972
842 1 0.0908089 0.925096 0.8384
841 1 0.0160702 0.840242 0.823396
774 1 0.254027 0.92653 0.672505
776 1 0.158979 0.913048 0.747098
780 1 0.336806 0.924542 0.761988
225 1 0.336546 0.987247 0.514372
778 1 0.413034 0.917166 0.680494
777 1 0.333649 0.840905 0.686002
297 1 0.328835 0.996349 0.685559
784 1 0.508616 0.915537 0.756793
783 1 0.577854 0.832002 0.766468
788 1 0.657939 0.909092 0.754756
469 1 0.51104 0.661079 0.996306
309 1 0.835611 0.994248 0.683419
786 1 0.742513 0.916558 0.673999
787 1 0.735058 0.841136 0.756617
858 1 0.750699 0.908811 0.839163
791 1 0.923361 0.844537 0.749783
772 1 0.0304976 0.9184 0.746952
792 1 0.831295 0.904359 0.753762
743 1 0.90922 0.504377 0.744392
794 1 0.0889273 0.58164 0.834087
798 1 0.253514 0.595015 0.849559
800 1 0.170959 0.591971 0.914294
823 1 0.257831 0.680149 0.906273
369 1 0.341004 0.999324 0.844377
825 1 0.341405 0.657964 0.827038
804 1 0.338673 0.597979 0.931892
802 1 0.435152 0.582912 0.847316
829 1 0.506064 0.669034 0.841769
669 1 0.831313 0.524289 0.501914
806 1 0.588261 0.564829 0.819389
833 1 0.667638 0.66137 0.836291
808 1 0.520579 0.57463 0.912621
812 1 0.669697 0.573973 0.898579
727 1 0.255327 0.509272 0.767359
835 1 0.751583 0.665542 0.911236
681 1 0.328384 0.667811 0.504052
381 1 0.835311 0.998727 0.822198
810 1 0.762983 0.576337 0.822233
816 1 0.842603 0.586385 0.908182
441 1 0.33449 0.500816 0.992623
815 1 0.909771 0.504751 0.920827
454 1 0.930818 0.584189 0.992194
796 1 0.0112552 0.596312 0.916613
457 1 0.0112006 0.665978 0.994563
698 1 0.0949115 0.921697 0.512663
818 1 0.0967874 0.744986 0.827364
819 1 0.0989738 0.67333 0.932284
821 1 0.163856 0.672433 0.843922
311 1 0.920847 0.993161 0.749029
824 1 0.164581 0.757958 0.929872
822 1 0.240495 0.771439 0.844941
827 1 0.429371 0.664645 0.924902
828 1 0.340693 0.755987 0.904363
826 1 0.417284 0.752439 0.834611
832 1 0.49145 0.754544 0.92274
857 1 0.661515 0.832188 0.85252
473 1 0.66776 0.65452 0.997838
731 1 0.425027 0.504008 0.765842
830 1 0.580138 0.741445 0.850888
831 1 0.5893 0.667556 0.925484
859 1 0.745889 0.829044 0.913356
834 1 0.741553 0.7435 0.829169
837 1 0.835028 0.677727 0.835302
840 1 0.83116 0.753885 0.9097
836 1 0.660865 0.748985 0.927347
839 1 0.919149 0.668566 0.912994
838 1 0.916624 0.771233 0.830739
820 1 0.0223746 0.76369 0.911517
478 1 0.930553 0.746235 0.996603
659 1 0.424901 0.501021 0.587624
848 1 0.171453 0.932429 0.929045
845 1 0.173254 0.852145 0.844625
843 1 0.0938412 0.852601 0.922585
803 1 0.421253 0.504228 0.925421
846 1 0.256918 0.930404 0.840242
847 1 0.264077 0.843226 0.921084
851 1 0.416296 0.830122 0.916562
853 1 0.505418 0.827214 0.84236
849 1 0.334748 0.836763 0.830712
850 1 0.420226 0.911784 0.833606
450 1 0.750819 0.581177 0.990618
852 1 0.340676 0.930031 0.925409
860 1 0.656531 0.917143 0.920334
498 1 0.736216 0.906727 0.995628
854 1 0.565159 0.921714 0.847639
855 1 0.584844 0.82191 0.924998
856 1 0.4878 0.906655 0.931992
690 1 0.740787 0.767806 0.501881
363 1 0.0787983 0.993123 0.921667
864 1 0.830169 0.92282 0.905895
673 1 0.00338297 0.674904 0.510773
289 1 0.00340524 0.997813 0.65896
861 1 0.814387 0.820711 0.834097
295 1 0.243296 0.999469 0.749159
863 1 0.909048 0.81617 0.923258
844 1 0.982452 0.903722 0.925368
793 1 0.991036 0.501091 0.835459
705 1 0.335791 0.84049 0.506471
862 1 0.914691 0.899354 0.841466
674 1 0.084608 0.755376 0.52374
293 1 0.169162 0.995917 0.661506
741 1 0.829983 0.511332 0.6681
654 1 0.247527 0.592857 0.508142
801 1 0.327093 0.516133 0.854147
723 1 0.0779088 0.505024 0.752326
797 1 0.165394 0.500055 0.845639
649 1 0.0109776 0.522354 0.500506
361 1 0.987309 0.98671 0.840647
811 1 0.751876 0.502943 0.898515
239 1 0.91458 0.995143 0.593619
