ITEM: TIMESTEP
8250
ITEM: NUMBER OF ATOMS
864
ITEM: BOX BOUNDS pp pp pp
0.0000000000000000e+00 3.1559999999999999e+01
0.0000000000000000e+00 3.1559999999999999e+01
0.0000000000000000e+00 3.1559999999999999e+01
ITEM: ATOMS id type xs ys zs
8 1 0.181922 0.0781384 0.0885012
29 1 0.170888 0.173698 0.0200805
5 1 0.185025 1.00363 -0.000175491
2 1 0.099623 0.081941 -0.00347658
12 1 0.345067 0.0778946 0.0975618
6 1 0.241107 0.0936761 0.998765
150 1 0.249276 0.0889433 0.181684
31 1 0.251362 0.162329 0.0939536
11 1 0.441113 1.00904 0.106764
157 1 0.520351 0.00413985 0.177455
35 1 0.421594 0.163465 0.0915852
154 1 0.425375 0.0883423 0.186203
10 1 0.412932 0.0748156 0.00530077
16 1 0.49576 0.0924244 0.0823171
20 1 0.682146 0.0755903 0.0789846
14 1 0.58435 0.0796473 0.0109983
17 1 0.66024 0.999926 0.996207
24 1 0.818119 0.0813223 0.0794457
19 1 0.749679 0.990282 0.0694659
4 1 -0.00101541 0.0804412 0.0739984
145 1 0.00842992 0.987223 0.164254
23 1 0.923617 0.98918 0.0827575
27 1 0.0773194 0.166239 0.0750485
26 1 0.0732005 0.253599 0.00471232
32 1 0.169857 0.257151 0.0844675
55 1 0.237833 0.343948 0.0828588
30 1 0.256218 0.245959 0.0102462
36 1 0.332797 0.244589 0.0912318
40 1 0.498985 0.253624 0.0837289
181 1 0.505166 0.170947 0.157596
185 1 0.651565 0.160337 0.16374
39 1 0.583593 0.159342 0.0871165
182 1 0.582118 0.258157 0.159341
37 1 0.502653 0.173552 0.00524006
43 1 0.753858 0.165422 0.0877804
189 1 0.834583 0.171734 0.164003
44 1 0.677583 0.251199 0.0863643
48 1 0.825491 0.260455 0.0996256
69 1 0.830956 0.332841 1.01617
47 1 0.913383 0.165663 0.0856682
28 1 0.987287 0.253304 0.0868439
71 1 0.908863 0.338963 0.0902703
51 1 0.0865783 0.349108 0.0903953
56 1 0.158936 0.435742 0.0623534
77 1 0.168736 0.52217 0.996831
194 1 0.0746378 0.418391 0.163395
79 1 0.244834 0.502161 0.0862512
198 1 0.232304 0.41774 0.173707
57 1 0.324619 0.335163 0.00992505
201 1 0.325017 0.325167 0.16679
59 1 0.402711 0.343022 0.0836271
60 1 0.319276 0.415246 0.0935323
202 1 0.405341 0.411747 0.169897
63 1 0.587499 0.336429 0.0823682
64 1 0.484397 0.415273 0.0909226
209 1 0.672273 0.335702 0.162514
206 1 0.586283 0.425082 0.183273
68 1 0.670408 0.408908 0.0858077
233 1 0.678233 0.498049 0.17321
67 1 0.761021 0.337011 0.0901079
66 1 0.758413 0.419819 1.01476
72 1 0.846414 0.423829 0.0898307
52 1 0.999276 0.407509 0.0871757
95 1 0.921942 0.494841 0.0856629
75 1 0.078012 0.506515 0.0832787
218 1 0.0629573 0.589407 0.166762
221 1 0.161694 0.515904 0.174158
80 1 0.173378 0.594801 0.0724798
103 1 0.259188 0.664452 0.0674489
222 1 0.234344 0.596816 0.170266
229 1 0.507638 0.502473 0.158193
84 1 0.326945 0.573692 0.0817578
83 1 0.417521 0.502199 0.0810815
107 1 0.399236 0.662994 0.0713163
249 1 0.333563 0.665261 0.162473
87 1 0.589269 0.490749 0.0959886
88 1 0.496036 0.584641 0.0905682
92 1 0.668645 0.586749 0.0978116
230 1 0.588279 0.586383 0.173805
113 1 0.655232 0.675879 0.0120523
91 1 0.760324 0.49769 0.0857978
115 1 0.737605 0.669754 0.0731014
261 1 0.84369 0.668423 0.166209
117 1 0.828544 0.672882 0.00131009
76 1 1.00033 0.593674 0.0753153
96 1 0.836902 0.591241 0.0736136
237 1 0.840986 0.505673 0.164078
238 1 0.924355 0.581485 0.162955
99 1 0.085832 0.664606 0.0932881
98 1 0.100523 0.754602 0.00760525
242 1 0.0685493 0.74877 0.174177
245 1 0.159006 0.676244 0.170544
104 1 0.18031 0.755812 0.0775004
101 1 0.166002 0.67126 -0.000838562
246 1 0.248719 0.740023 0.165885
102 1 0.250789 0.749026 0.998972
108 1 0.340254 0.759775 0.0876838
131 1 0.431473 0.832541 0.0908223
277 1 0.509868 0.832902 0.171588
273 1 0.334791 0.833403 0.176797
111 1 0.582784 0.678907 0.0934578
112 1 0.502071 0.746678 0.0882718
110 1 0.571849 0.738714 0.993515
135 1 0.578921 0.821883 0.0718807
116 1 0.666783 0.760149 0.0825715
114 1 0.740414 0.755653 0.995531
120 1 0.837915 0.745427 0.0795961
119 1 0.921004 0.676778 0.0712282
100 1 -0.00785393 0.75191 0.0877171
118 1 0.917825 0.746427 0.979869
3 1 0.107834 1.00082 0.0861318
123 1 0.083297 0.823625 0.0816576
266 1 0.0966291 0.920323 0.171485
128 1 0.180173 0.926136 0.0947669
7 1 0.264591 0.00054497 0.0826733
127 1 0.261659 0.831017 0.0834267
132 1 0.340865 0.907948 0.077566
126 1 0.264216 0.912222 0.00684201
269 1 0.179937 0.821989 0.17412
9 1 0.330183 1.00617 0.99913
136 1 0.508243 0.918333 0.0905905
129 1 0.352456 0.827488 0.99439
15 1 0.596357 0.984942 0.0800037
134 1 0.577165 0.910566 -0.00919973
140 1 0.663322 0.906023 0.0830222
137 1 0.653949 0.841062 -0.01888
139 1 0.75395 0.829276 0.0908225
138 1 0.746497 0.900377 -0.0122841
144 1 0.839025 0.914551 0.0784946
143 1 0.912388 0.822966 0.0773483
124 1 0.00156762 0.903404 0.0796014
265 1 0.0041671 0.831536 0.167729
146 1 0.0920356 0.0844438 0.16725
152 1 0.157128 0.102739 0.2458
147 1 0.0973618 0.0126672 0.252305
156 1 0.339739 0.0889844 0.248715
293 1 0.160489 -0.0121349 0.341417
297 1 0.33384 0.0123374 0.334698
175 1 0.239648 0.185782 0.242941
294 1 0.24617 0.115534 0.324449
179 1 0.427818 0.175695 0.244889
155 1 0.409391 1.00309 0.253237
153 1 0.334205 0.00150116 0.17232
161 1 0.6731 0.990796 0.1735
160 1 0.518266 0.0959805 0.24585
158 1 0.594189 0.0721238 0.156813
164 1 0.662079 0.0884917 0.250863
159 1 0.591787 0.00499353 0.267728
162 1 0.737973 0.0790211 0.167293
187 1 0.729899 0.16288 0.246558
168 1 0.824953 0.0783912 0.239861
148 1 0.00594367 0.0787883 0.250766
166 1 0.930166 0.0824502 0.164804
165 1 0.831837 1.00498 0.16107
167 1 0.907648 0.990135 0.233543
289 1 1.00382 -0.00979154 0.331651
170 1 0.0867226 0.244138 0.155088
171 1 0.080444 0.172449 0.247829
176 1 0.149146 0.258327 0.245701
174 1 0.250177 0.251319 0.164865
173 1 0.166947 0.17609 0.159649
197 1 0.153731 0.332906 0.168292
199 1 0.242492 0.328727 0.239697
177 1 0.344458 0.162592 0.168434
180 1 0.339763 0.24146 0.253756
178 1 0.41664 0.246668 0.160904
205 1 0.501594 0.329951 0.168364
184 1 0.502832 0.253362 0.246873
183 1 0.589993 0.185111 0.256216
207 1 0.581983 0.326737 0.240337
326 1 0.570295 0.267494 0.340913
353 1 0.674985 0.339882 0.34694
186 1 0.755813 0.247088 0.175896
188 1 0.670249 0.261902 0.241274
192 1 0.81774 0.253505 0.259824
190 1 0.908694 0.24778 0.183666
193 1 0.00524978 0.331239 0.170696
169 1 -0.000276861 0.165198 0.162261
191 1 0.915681 0.155937 0.252342
213 1 0.832488 0.331697 0.180639
172 1 0.995674 0.234483 0.24513
215 1 0.928303 0.342789 0.248309
217 1 0.00359178 0.498832 0.171826
195 1 0.064455 0.330491 0.264983
361 1 -0.00363622 0.515413 0.339226
219 1 0.078446 0.508923 0.253719
200 1 0.148983 0.413023 0.244014
342 1 0.249161 0.421923 0.312066
204 1 0.33005 0.418831 0.242104
369 1 0.329855 0.488912 0.324704
365 1 0.167508 0.507544 0.330425
203 1 0.405288 0.329551 0.242042
346 1 0.410845 0.414646 0.325602
208 1 0.495984 0.404444 0.242595
231 1 0.594035 0.50763 0.250486
212 1 0.662299 0.40834 0.249876
373 1 0.49748 0.48879 0.354251
350 1 0.580378 0.420959 0.32951
210 1 0.757011 0.418579 0.168544
211 1 0.752964 0.335222 0.243907
216 1 0.83813 0.421983 0.250575
377 1 0.661621 0.521705 0.33456
214 1 0.922283 0.424045 0.171692
196 1 0.00380651 0.420549 0.249445
239 1 0.923361 0.502223 0.244788
220 1 0.985882 0.580687 0.254835
243 1 0.053371 0.667346 0.250279
362 1 0.0779122 0.591786 0.333698
223 1 0.237595 0.511984 0.244881
224 1 0.152905 0.595551 0.248388
247 1 0.236145 0.672213 0.256713
366 1 0.25733 0.583087 0.321958
225 1 0.317649 0.490976 0.165946
227 1 0.421953 0.484478 0.24402
228 1 0.341795 0.569065 0.242453
226 1 0.419341 0.590528 0.166425
251 1 0.413058 0.672368 0.241094
370 1 0.422366 0.573827 0.325985
232 1 0.488406 0.572049 0.246255
253 1 0.511006 0.665428 0.178593
235 1 0.762901 0.50953 0.245568
257 1 0.668924 0.671157 0.168068
234 1 0.764912 0.59512 0.161113
236 1 0.670247 0.579853 0.250038
401 1 0.670166 0.668162 0.334683
405 1 0.827882 0.666807 0.315618
240 1 0.838111 0.581658 0.246436
263 1 0.917474 0.680506 0.25996
241 1 -0.0164848 0.669792 0.164792
413 1 0.159345 0.82629 0.325181
244 1 0.990958 0.756789 0.250912
409 1 0.996177 0.829808 0.336753
386 1 0.0654799 0.758738 0.350219
248 1 0.170379 0.743551 0.259885
252 1 0.327943 0.746265 0.252664
271 1 0.248685 0.83353 0.256218
389 1 0.165731 0.670128 0.337643
390 1 0.252036 0.753502 0.331788
250 1 0.417486 0.758885 0.168972
421 1 0.510164 0.840165 0.323686
275 1 0.412062 0.819363 0.26291
256 1 0.505149 0.762221 0.251157
255 1 0.587072 0.676163 0.248649
254 1 0.587389 0.754358 0.162012
260 1 0.673359 0.745879 0.266364
279 1 0.60401 0.839313 0.26209
281 1 0.657497 0.831837 0.176062
258 1 0.758961 0.748685 0.158213
259 1 0.754097 0.662501 0.244154
264 1 0.833557 0.752505 0.24604
285 1 0.834721 0.828492 0.171225
402 1 0.760844 0.743772 0.340583
262 1 0.910952 0.750166 0.167201
429 1 0.83021 0.829732 0.313891
267 1 0.0755326 0.849071 0.264128
410 1 0.0837312 0.919056 0.341061
149 1 0.184793 0.00383392 0.167115
272 1 0.170212 0.929042 0.252119
270 1 0.260028 0.921489 0.177427
151 1 0.243753 0.00786836 0.270143
414 1 0.254397 0.91267 0.322975
274 1 0.408429 0.913748 0.173897
276 1 0.334237 0.909838 0.253173
278 1 0.595398 0.923679 0.180602
280 1 0.495729 0.923234 0.240029
282 1 0.756734 0.916421 0.15606
283 1 0.758543 0.8412 0.241534
284 1 0.672836 0.921071 0.262627
163 1 0.752134 1.00413 0.257446
288 1 0.829499 0.911545 0.246223
268 1 0.993755 0.917921 0.248719
287 1 0.918761 0.836871 0.252326
286 1 0.907977 0.901634 0.153382
430 1 0.920776 0.927472 0.323654
290 1 0.10324 0.0937038 0.338609
313 1 1.00631 0.15879 0.326795
315 1 0.0771066 0.168473 0.411453
317 1 0.159279 0.186046 0.318321
291 1 0.0859135 1.00306 0.426016
457 1 1.00535 0.167833 0.496999
296 1 0.194524 0.0954544 0.411557
300 1 0.329533 0.0953197 0.437794
298 1 0.430384 0.0797624 0.326816
442 1 0.433438 0.0811554 0.511209
323 1 0.420594 0.167323 0.424211
299 1 0.410718 0.987117 0.417004
301 1 0.505222 1.00247 0.325815
325 1 0.495941 0.162394 0.329432
304 1 0.495651 0.0534582 0.407372
302 1 0.596143 0.0963268 0.337837
327 1 0.579218 0.167314 0.419013
303 1 0.585212 0.996112 0.419436
306 1 0.732493 0.0932882 0.337102
308 1 0.649677 0.08426 0.432884
331 1 0.748897 0.155513 0.431053
312 1 0.847415 0.0819011 0.423725
292 1 1.00077 0.0931313 0.421189
310 1 0.914124 0.0668257 0.337035
454 1 0.922338 0.0627636 0.505239
477 1 0.833356 0.152748 0.509822
314 1 0.0725903 0.240579 0.32725
320 1 0.152669 0.244844 0.422983
458 1 0.0797815 0.254556 0.503285
481 1 0.0156323 0.336875 0.485403
321 1 0.345229 0.155079 0.329978
318 1 0.257778 0.256591 0.335309
319 1 0.257914 0.182424 0.424269
343 1 0.251143 0.325613 0.41716
322 1 0.420705 0.245567 0.327805
324 1 0.346715 0.253565 0.418572
328 1 0.500407 0.258219 0.419178
351 1 0.587876 0.350594 0.419855
470 1 0.591578 0.249695 0.49838
330 1 0.754463 0.243776 0.349295
333 1 0.824707 0.15121 0.318912
329 1 0.659542 0.190594 0.33022
332 1 0.664442 0.246843 0.42282
355 1 0.760999 0.334802 0.411376
336 1 0.839224 0.226848 0.428461
337 1 0.976208 0.344416 0.340285
334 1 0.909819 0.255314 0.330208
335 1 0.909814 0.160898 0.382905
316 1 0.983086 0.237462 0.409885
359 1 0.915504 0.312951 0.419326
341 1 0.186084 0.340093 0.333491
338 1 0.0845082 0.405185 0.329367
339 1 0.0812752 0.316475 0.397523
344 1 0.170267 0.410786 0.416759
340 1 1.01595 0.419104 0.407064
482 1 0.0949408 0.402096 0.501487
363 1 0.0822131 0.510993 0.410984
367 1 0.246284 0.496067 0.413953
345 1 0.334998 0.33045 0.333173
347 1 0.418152 0.34226 0.419778
348 1 0.321152 0.41742 0.413665
517 1 0.507114 0.512361 0.504615
371 1 0.414658 0.489721 0.436278
493 1 0.506824 0.336788 0.496858
352 1 0.517467 0.425927 0.437911
349 1 0.4904 0.346219 0.340802
356 1 0.667841 0.423947 0.412083
375 1 0.60114 0.511124 0.422829
354 1 0.753155 0.441192 0.32542
357 1 0.826112 0.334062 0.328651
379 1 0.759992 0.493148 0.419726
525 1 0.827049 0.500089 0.495084
358 1 0.915054 0.43549 0.343046
360 1 0.838973 0.415499 0.424772
381 1 0.831247 0.512604 0.337478
505 1 1.00648 0.489597 0.497878
364 1 -0.00155155 0.579084 0.425711
368 1 0.162143 0.587136 0.409981
385 1 0.992293 0.667083 0.341988
391 1 0.247368 0.656176 0.407343
372 1 0.325737 0.580482 0.411967
510 1 0.239941 0.591201 0.497854
376 1 0.510746 0.580555 0.407812
395 1 0.427022 0.663047 0.407065
374 1 0.570327 0.591341 0.32137
399 1 0.579952 0.667512 0.416108
518 1 0.602882 0.585113 0.510251
378 1 0.751968 0.590447 0.338091
380 1 0.663602 0.593391 0.41764
403 1 0.736898 0.673095 0.417872
384 1 0.825672 0.585615 0.423529
382 1 0.904867 0.594169 0.337686
383 1 0.907567 0.514893 0.41853
407 1 0.913183 0.668491 0.427207
549 1 0.840411 0.661426 0.50202
387 1 0.0615622 0.671387 0.418939
392 1 0.161381 0.757991 0.41769
388 1 0.990992 0.757881 0.430362
530 1 0.0796534 0.76046 0.484736
393 1 0.332558 0.658035 0.324188
533 1 0.159943 0.67352 0.486111
534 1 0.253803 0.734015 0.485394
396 1 0.333135 0.746341 0.410295
394 1 0.41225 0.732462 0.327523
400 1 0.489812 0.751147 0.406151
538 1 0.413165 0.73762 0.489248
397 1 0.499686 0.667659 0.313666
398 1 0.581741 0.735342 0.337465
423 1 0.5956 0.831898 0.394381
542 1 0.578306 0.75455 0.495949
404 1 0.657031 0.753943 0.414655
427 1 0.745924 0.822304 0.424844
569 1 0.661473 0.823282 0.496317
573 1 0.84597 0.827284 0.506923
553 1 1.00002 0.832359 0.505788
408 1 0.830954 0.734017 0.418835
406 1 0.918855 0.755946 0.340485
431 1 0.907582 0.833732 0.402986
550 1 0.924162 0.75268 0.504722
411 1 0.087229 0.843042 0.411701
554 1 0.0754206 0.910069 0.5118
557 1 0.173598 0.835276 0.500434
295 1 0.243765 -0.000806518 0.404078
415 1 0.253477 0.835487 0.41635
416 1 0.178236 0.911026 0.411372
558 1 0.261564 0.920334 0.493371
417 1 0.334685 0.825927 0.335323
418 1 0.419644 0.914278 0.328096
441 1 0.333996 0.00266156 0.49635
419 1 0.415692 0.849617 0.408108
561 1 0.330177 0.83789 0.49226
420 1 0.33024 0.917696 0.398196
562 1 0.40082 0.91903 0.505418
425 1 0.68486 0.833594 0.343228
422 1 0.580221 0.923389 0.329655
424 1 0.504624 0.915605 0.416781
428 1 0.671297 0.917458 0.429262
305 1 0.671041 0.989638 0.343881
309 1 0.832107 0.00512481 0.330399
426 1 0.761054 0.913038 0.337395
307 1 0.753586 0.000578362 0.416546
432 1 0.833614 0.908958 0.413564
570 1 0.753938 0.908943 0.504398
453 1 0.824231 1.00112 0.493424
311 1 0.925105 -0.00904378 0.423777
412 1 0.99736 0.912959 0.41146
574 1 0.922632 0.909968 0.503891
434 1 0.0833067 0.0963271 0.489806
436 1 1.00406 0.0596146 0.582971
459 1 0.07024 0.172157 0.576085
438 1 0.247533 0.0879531 0.503934
440 1 0.171583 0.102556 0.578228
465 1 0.322105 0.190167 0.516157
582 1 0.269871 0.0867053 0.681372
444 1 0.335941 0.0982503 0.575399
586 1 0.415222 0.0767269 0.674766
448 1 0.486982 0.081095 0.60043
467 1 0.421335 0.173751 0.574591
443 1 0.414296 0.00264158 0.591439
446 1 0.561798 0.0834162 0.511239
590 1 0.583261 0.0844688 0.68464
450 1 0.746254 0.0778963 0.504758
452 1 0.654985 0.0811933 0.577282
456 1 0.817081 0.0607875 0.598183
475 1 0.736723 0.150073 0.592659
594 1 0.745594 0.0694543 0.681271
617 1 0.65276 0.165558 0.670468
479 1 0.933725 0.161917 0.58085
598 1 0.929322 0.0790352 0.667636
433 1 0.00946816 0.990088 0.497235
455 1 0.910782 0.987278 0.580968
602 1 0.0776794 0.240766 0.658199
460 1 0.998586 0.25364 0.567845
625 1 0.993615 0.312528 0.65503
485 1 0.171108 0.327642 0.504574
461 1 0.168969 0.165275 0.491578
463 1 0.259908 0.172199 0.606402
464 1 0.162299 0.244048 0.584381
462 1 0.246453 0.255718 0.504117
466 1 0.407223 0.262393 0.510012
468 1 0.338858 0.254498 0.596679
491 1 0.408063 0.339762 0.604116
469 1 0.502452 0.178519 0.502215
613 1 0.491149 0.166267 0.66541
471 1 0.578359 0.160744 0.597848
472 1 0.49655 0.254306 0.589092
473 1 0.672404 0.170321 0.503646
474 1 0.755146 0.250808 0.493404
501 1 0.835423 0.323088 0.50148
476 1 0.667942 0.241281 0.583248
618 1 0.764215 0.232288 0.651869
480 1 0.839422 0.229596 0.570698
645 1 0.82244 0.3295 0.655346
478 1 0.920095 0.240327 0.495361
503 1 0.904784 0.317053 0.582567
621 1 0.83079 0.152734 0.671137
509 1 0.159691 0.50012 0.492425
483 1 0.0745164 0.326135 0.58657
488 1 0.161542 0.411129 0.581317
484 1 0.994622 0.407567 0.599905
629 1 0.165046 0.328663 0.66307
486 1 0.256406 0.411675 0.496395
487 1 0.25829 0.327147 0.589579
492 1 0.325843 0.409012 0.589414
489 1 0.327915 0.326666 0.509536
490 1 0.413124 0.402996 0.509482
494 1 0.589087 0.422684 0.518629
495 1 0.59195 0.321446 0.601949
496 1 0.4989 0.408221 0.575723
497 1 0.676552 0.326639 0.491271
498 1 0.750082 0.408626 0.486351
521 1 0.666802 0.492833 0.504663
499 1 0.750906 0.322301 0.571996
500 1 0.677193 0.412849 0.587586
504 1 0.83141 0.421529 0.571369
502 1 0.932062 0.395725 0.498444
646 1 0.902602 0.411516 0.651158
527 1 0.930607 0.487508 0.585683
506 1 0.0869177 0.568563 0.498872
507 1 0.0789552 0.483832 0.580166
508 1 0.0213566 0.583238 0.579211
650 1 0.0987526 0.577001 0.679027
511 1 0.246577 0.486453 0.579178
513 1 0.327341 0.494958 0.502375
512 1 0.15056 0.581678 0.586622
516 1 0.338689 0.580324 0.569069
535 1 0.2524 0.652981 0.576762
515 1 0.409309 0.496764 0.572136
514 1 0.433385 0.585142 0.490559
539 1 0.406855 0.663801 0.57973
520 1 0.516138 0.586416 0.573047
541 1 0.493791 0.667729 0.485454
519 1 0.593437 0.503659 0.59111
662 1 0.589478 0.584307 0.685777
545 1 0.661949 0.666288 0.501184
665 1 0.680032 0.506152 0.653621
524 1 0.671667 0.596041 0.593582
522 1 0.740607 0.582481 0.497881
523 1 0.752703 0.488131 0.576019
547 1 0.757555 0.66209 0.58717
649 1 1.00372 0.500401 0.673079
528 1 0.839595 0.5734 0.579806
526 1 0.927499 0.579266 0.509067
551 1 0.923316 0.660462 0.576057
531 1 0.0746549 0.670078 0.579162
674 1 0.0840276 0.741411 0.667537
536 1 0.167453 0.748546 0.568571
529 1 1.00157 0.669454 0.51203
532 1 1.00743 0.752812 0.582769
673 1 0.0045875 0.663235 0.672981
540 1 0.326353 0.742977 0.56645
537 1 0.335657 0.655404 0.494396
559 1 0.254308 0.828782 0.568318
565 1 0.495894 0.832257 0.489023
563 1 0.413773 0.81987 0.565554
544 1 0.515657 0.733687 0.580785
709 1 0.488484 0.834589 0.660737
543 1 0.590747 0.667206 0.588504
567 1 0.566381 0.836931 0.576515
686 1 0.590259 0.75573 0.665158
548 1 0.653455 0.753769 0.577131
546 1 0.765365 0.739687 0.502105
571 1 0.747942 0.826617 0.578103
689 1 0.676532 0.675884 0.661116
552 1 0.842706 0.737942 0.587495
575 1 0.912984 0.811197 0.59172
555 1 0.09029 0.824356 0.582159
435 1 0.0970752 0.00582118 0.571133
437 1 0.176515 0.981204 0.492641
560 1 0.16552 0.906427 0.585948
439 1 0.260682 0.00912503 0.577314
702 1 0.243527 0.926482 0.661266
564 1 0.322978 0.91206 0.58008
568 1 0.497857 0.936205 0.588815
706 1 0.428316 0.930861 0.674953
566 1 0.578131 0.917536 0.493272
445 1 0.493576 1.00248 0.500122
447 1 0.575397 0.00833449 0.590566
710 1 0.585053 0.9134 0.660709
451 1 0.735726 0.99187 0.59134
449 1 0.667947 1.00128 0.504512
572 1 0.655607 0.908871 0.568312
717 1 0.847633 0.818899 0.687715
556 1 0.00580431 0.918758 0.587374
576 1 0.829307 0.913374 0.581694
718 1 0.919106 0.899131 0.661018
601 1 0.0205738 0.153333 0.668352
578 1 0.103707 0.0825582 0.667315
584 1 0.174082 0.0982219 0.7612
580 1 0.997608 0.0873546 0.766259
603 1 0.0846638 0.17761 0.749416
605 1 0.178597 0.163011 0.668136
588 1 0.34257 0.0890726 0.759481
607 1 0.265765 0.16554 0.76569
609 1 0.350922 0.160866 0.67004
585 1 0.337209 0.999984 0.666014
611 1 0.416172 0.171414 0.755305
587 1 0.416155 0.999787 0.755773
592 1 0.492584 0.0813973 0.751488
734 1 0.584723 0.0873323 0.831522
615 1 0.573774 0.166022 0.753042
591 1 0.587664 0.992111 0.740629
757 1 0.51087 0.164954 0.837369
596 1 0.667074 0.086756 0.753813
761 1 0.666994 0.17228 0.829677
738 1 0.742474 0.0852717 0.839738
619 1 0.754988 0.151652 0.75267
765 1 0.831334 0.15262 0.83758
600 1 0.835572 0.0673771 0.748304
623 1 0.916005 0.167222 0.746891
742 1 0.922461 0.0838201 0.84475
745 1 0.00195782 0.170976 0.830468
608 1 0.175286 0.247745 0.745973
604 1 -0.00401033 0.251427 0.750841
627 1 0.0619288 0.329366 0.747494
606 1 0.253327 0.247157 0.676483
633 1 0.325846 0.339481 0.677032
612 1 0.337131 0.255501 0.748742
631 1 0.235321 0.333089 0.754646
777 1 0.32435 0.342537 0.82599
610 1 0.431145 0.247384 0.668718
635 1 0.408346 0.344122 0.754013
781 1 0.502925 0.33361 0.834865
754 1 0.427837 0.258371 0.849296
614 1 0.564414 0.23963 0.673903
637 1 0.496257 0.339792 0.676721
616 1 0.502661 0.247229 0.757652
758 1 0.573925 0.261679 0.844546
639 1 0.576032 0.331458 0.75427
620 1 0.655576 0.243504 0.748979
762 1 0.762845 0.227041 0.82755
624 1 0.820122 0.249819 0.736747
641 1 0.684345 0.317015 0.669375
622 1 0.912084 0.235441 0.656604
766 1 0.908161 0.260969 0.826507
626 1 0.0794979 0.410414 0.67655
628 1 0.987911 0.41839 0.757377
770 1 0.0784532 0.404284 0.831769
769 1 0.99153 0.328427 0.828716
630 1 0.239219 0.423621 0.659593
632 1 0.162307 0.40951 0.742149
774 1 0.250166 0.417211 0.831028
636 1 0.341155 0.423705 0.737462
634 1 0.425798 0.432583 0.663832
778 1 0.417897 0.413828 0.833806
659 1 0.42143 0.499085 0.753221
661 1 0.505871 0.506548 0.672175
638 1 0.595126 0.396101 0.67823
640 1 0.507331 0.423794 0.744984
663 1 0.595501 0.504709 0.764363
782 1 0.580023 0.409169 0.842889
643 1 0.756916 0.340048 0.745321
642 1 0.763283 0.417749 0.66074
644 1 0.661003 0.399092 0.759278
667 1 0.733938 0.481084 0.756662
648 1 0.842662 0.41997 0.751179
669 1 0.837452 0.503122 0.665387
647 1 0.902086 0.334594 0.727015
813 1 0.82479 0.504554 0.832398
790 1 0.915006 0.423125 0.844249
651 1 0.0881092 0.493452 0.770474
656 1 0.170919 0.572311 0.768327
652 1 1.00425 0.576396 0.747993
653 1 0.145026 0.485264 0.659768
654 1 0.23132 0.571851 0.668798
655 1 0.256653 0.491091 0.74117
797 1 0.165415 0.496436 0.8513
798 1 0.261659 0.58413 0.819234
657 1 0.32069 0.500558 0.658102
825 1 0.321724 0.673377 0.822072
658 1 0.432895 0.56741 0.651375
660 1 0.335456 0.589385 0.731114
802 1 0.412532 0.598556 0.818108
685 1 0.505821 0.667591 0.666374
801 1 0.33321 0.48697 0.840049
664 1 0.496365 0.589049 0.750443
806 1 0.581323 0.595342 0.827223
687 1 0.591097 0.677483 0.745652
668 1 0.671292 0.591234 0.760921
666 1 0.756516 0.576344 0.678893
691 1 0.753302 0.676753 0.738973
670 1 0.922695 0.579751 0.667241
693 1 0.842297 0.659276 0.678162
672 1 0.836336 0.577229 0.745934
671 1 0.91315 0.496477 0.745182
695 1 0.91116 0.655754 0.756889
675 1 0.0897354 0.6494 0.755086
699 1 0.082316 0.81345 0.753598
676 1 0.00751914 0.733963 0.759132
821 1 0.16154 0.661849 0.833546
677 1 0.165242 0.663133 0.650573
701 1 0.179113 0.829508 0.668818
679 1 0.252689 0.66386 0.736697
680 1 0.180802 0.743982 0.743003
678 1 0.251791 0.754174 0.64939
703 1 0.251216 0.831699 0.745491
684 1 0.334611 0.759944 0.728164
681 1 0.343093 0.673397 0.662019
683 1 0.421157 0.669771 0.738595
682 1 0.42882 0.751773 0.64159
826 1 0.400039 0.750184 0.826849
713 1 0.669169 0.847471 0.661948
688 1 0.498273 0.752689 0.744836
711 1 0.580766 0.840886 0.746172
853 1 0.4942 0.83112 0.822414
830 1 0.590307 0.754273 0.830183
690 1 0.761484 0.754081 0.66216
692 1 0.663135 0.761797 0.738656
833 1 0.659719 0.668876 0.83526
715 1 0.760003 0.810707 0.752795
861 1 0.85009 0.816782 0.841108
696 1 0.842087 0.735283 0.758212
697 1 0.0220815 0.847886 0.66864
694 1 0.925155 0.741983 0.673051
719 1 0.932007 0.830577 0.750648
579 1 0.0907985 0.0209362 0.758146
698 1 0.0868322 0.939792 0.677829
581 1 0.192167 0.0181643 0.670478
704 1 0.170173 0.932218 0.742959
842 1 0.0984524 0.925796 0.833936
729 1 0.336961 1.00291 0.836246
705 1 0.317051 0.843368 0.65395
583 1 0.252877 0.0162069 0.753696
589 1 0.499808 0.00679516 0.677314
707 1 0.410557 0.829858 0.737319
708 1 0.329355 0.922238 0.746953
850 1 0.419352 0.912124 0.833836
712 1 0.499181 0.902422 0.744642
716 1 0.661962 0.910362 0.752559
733 1 0.506831 0.998752 0.837611
854 1 0.570935 0.914845 0.821409
714 1 0.758647 0.922743 0.67557
593 1 0.656727 -0.0111091 0.65965
595 1 0.735603 -0.00606349 0.759789
720 1 0.826556 0.892422 0.762701
857 1 0.65984 0.836647 0.832315
737 1 0.658615 1.00109 0.848021
597 1 0.848617 0.981003 0.671341
577 1 0.99255 0.98882 0.674828
700 1 -0.000515004 0.925824 0.766842
599 1 0.909027 0.982077 0.761571
862 1 0.920157 0.918733 0.842786
722 1 0.0828674 0.0920382 0.848121
749 1 0.161036 0.171606 0.83814
747 1 0.0837121 0.184409 0.926484
728 1 0.169961 0.107901 0.917761
723 1 0.0991456 0.0108186 0.919966
725 1 0.171398 0.00596913 0.833417
753 1 0.341763 0.156972 0.842909
726 1 0.268403 0.083467 0.838392
732 1 0.345793 0.087464 0.910578
751 1 0.267764 0.167568 0.914606
730 1 0.420669 0.0759374 0.83401
736 1 0.501557 0.0854003 0.919862
33 1 0.332987 0.155869 0.00332196
755 1 0.419978 0.174109 0.912496
740 1 0.668633 0.0842337 0.918034
759 1 0.5768 0.159411 0.923698
13 1 0.505901 0.00899908 0.00793884
735 1 0.573088 -0.0061162 0.923292
18 1 0.7503 0.0796159 0.994555
763 1 0.755255 0.164838 0.919317
744 1 0.842385 0.0703363 0.925612
21 1 0.840952 0.993296 1.00305
739 1 0.747168 0.998341 0.921273
22 1 0.915003 0.0731765 0.00631692
1 1 0.0221672 0.997311 0.0148567
724 1 -0.000105861 0.0930624 0.921049
49 1 0.995957 0.33081 0.00526344
746 1 0.0868673 0.257057 0.831901
773 1 0.166013 0.340138 0.835842
752 1 0.179871 0.245347 0.925028
750 1 0.241836 0.249317 0.837315
756 1 0.332673 0.262629 0.900747
34 1 0.41399 0.240988 0.0127186
779 1 0.410494 0.325898 0.934965
38 1 0.593492 0.241967 0.00610734
760 1 0.504819 0.248833 0.922426
783 1 0.587367 0.334111 0.924678
764 1 0.669317 0.248279 0.920231
785 1 0.661069 0.32613 0.849577
41 1 0.675469 0.174971 1.00979
45 1 0.830981 0.160695 -0.00881925
42 1 0.756495 0.25891 0.0114278
787 1 0.750493 0.319029 0.917312
25 1 0.995339 0.168434 0.997658
46 1 0.907018 0.235784 1.00208
767 1 0.917905 0.167666 0.913123
748 1 0.998353 0.252333 0.913506
768 1 0.839518 0.253922 0.907539
53 1 0.15459 0.326587 1.01214
50 1 0.073941 0.42413 0.00698242
771 1 0.0936623 0.325445 0.918418
772 1 1.00578 0.411945 0.91479
54 1 0.25265 0.416969 0.00951612
776 1 0.167132 0.4091 0.944863
775 1 0.253528 0.327354 0.925758
799 1 0.249688 0.50829 0.917168
58 1 0.409938 0.421313 0.996533
81 1 0.324089 0.499355 0.00622785
780 1 0.328228 0.412439 0.919812
85 1 0.496225 0.511237 -0.00473105
61 1 0.491288 0.328638 1.00629
62 1 0.569082 0.403242 0.00546874
784 1 0.499469 0.420314 0.92235
788 1 0.67712 0.421408 0.937658
89 1 0.666556 0.499383 0.0254928
807 1 0.572333 0.513462 0.908951
786 1 0.745152 0.398457 0.844235
65 1 0.662953 0.334469 -0.00196475
811 1 0.770574 0.508722 0.923965
792 1 0.825003 0.406382 0.914568
70 1 0.913561 0.415827 1.00035
789 1 0.835874 0.337359 0.836041
791 1 0.914954 0.331001 0.911682
93 1 0.840429 0.497501 0.00280858
815 1 0.898328 0.506969 0.913996
73 1 0.995131 0.499623 0.98225
74 1 0.0802886 0.577413 0.989315
794 1 0.0748322 0.578787 0.83237
795 1 0.0896511 0.490279 0.924223
796 1 0.994416 0.578861 0.913292
78 1 0.259489 0.584841 0.993057
800 1 0.160069 0.58605 0.910143
804 1 0.334118 0.594441 0.90098
823 1 0.238074 0.661587 0.917321
805 1 0.501042 0.496836 0.830579
803 1 0.413824 0.494931 0.914093
82 1 0.399316 0.574988 0.999662
827 1 0.421147 0.669439 0.894158
809 1 0.670761 0.489519 0.839352
829 1 0.507184 0.67252 0.81277
808 1 0.499439 0.588976 0.910641
86 1 0.595643 0.596639 0.0235911
812 1 0.674184 0.556796 0.924445
831 1 0.590717 0.652538 0.920443
810 1 0.744085 0.580658 0.83573
837 1 0.817193 0.653468 0.818108
90 1 0.761121 0.582362 -0.00305555
816 1 0.82074 0.607229 0.912263
835 1 0.719578 0.657735 0.92164
814 1 0.911299 0.576909 0.827312
793 1 0.993816 0.500468 0.844651
94 1 0.910583 0.590568 0.00440917
125 1 0.174107 0.835936 1.00088
819 1 0.0782065 0.664373 0.921989
97 1 0.00705121 0.670474 1.00613
818 1 0.0858603 0.743752 0.831844
824 1 0.169042 0.748526 0.914179
820 1 1.00796 0.752475 0.910997
822 1 0.239962 0.753279 0.829986
845 1 0.157877 0.833359 0.827666
828 1 0.321977 0.745296 0.910219
105 1 0.324547 0.671207 0.986737
106 1 0.418609 0.731388 0.98404
109 1 0.497533 0.637141 -0.00329308
832 1 0.507921 0.740011 0.907152
836 1 0.660691 0.760959 0.910442
834 1 0.743082 0.741537 0.830645
840 1 0.808445 0.721357 0.900136
859 1 0.744251 0.830304 0.903889
141 1 0.829264 0.822258 0.985865
838 1 0.921672 0.744268 0.832298
817 1 0.992012 0.650982 0.834548
839 1 0.918854 0.657466 0.921369
841 1 0.009545 0.829155 0.832028
122 1 0.0941844 0.912837 0.000375128
843 1 0.0839023 0.829571 0.922743
848 1 0.174488 0.919562 0.919126
721 1 0.00165311 1.00421 0.838072
846 1 0.245382 0.91428 0.816209
847 1 0.251797 0.833533 0.913562
727 1 0.255867 0.000474704 0.90905
849 1 0.329769 0.839234 0.821187
852 1 0.349923 0.91417 0.911593
731 1 0.426767 0.00490338 0.906446
130 1 0.424397 0.933878 0.0164919
133 1 0.492493 0.821772 1.00157
851 1 0.424819 0.823601 0.893595
855 1 0.578663 0.835424 0.901309
856 1 0.48736 0.912942 0.927243
860 1 0.658506 0.912612 0.912688
858 1 0.753342 0.913892 0.842142
864 1 0.832569 0.926524 0.914153
741 1 0.828081 0.00345274 0.833778
121 1 0.00805508 0.828979 -0.00524068
142 1 0.932665 0.921253 -0.00861197
743 1 0.920287 1.00331 0.914264
863 1 0.929075 0.838726 0.914712
844 1 0.0178235 0.913585 0.924715
