ITEM: TIMESTEP
9750
ITEM: NUMBER OF ATOMS
864
ITEM: BOX BOUNDS pp pp pp
0.0000000000000000e+00 3.1559999999999999e+01
0.0000000000000000e+00 3.1559999999999999e+01
0.0000000000000000e+00 3.1559999999999999e+01
ITEM: ATOMS id type xs ys zs
4 1 0.995307 0.0868217 0.0866544
169 1 0.00165174 0.167122 0.165077
146 1 0.0728005 0.0810009 0.19308
8 1 0.163847 0.0951848 0.0734101
31 1 0.240882 0.175013 0.0829265
150 1 0.249095 0.0853357 0.168215
173 1 0.161502 0.151826 0.167401
12 1 0.309705 0.0726867 0.0793938
154 1 0.40214 0.0807828 0.16998
177 1 0.318291 0.166155 0.167268
181 1 0.503545 0.172322 0.171416
33 1 0.321968 0.166832 0.0168894
16 1 0.4884 0.0816867 0.0854134
20 1 0.65301 0.0732672 0.0788306
15 1 0.58735 0.981745 0.0750931
43 1 0.746909 0.167223 0.0806754
189 1 0.833631 0.166683 0.169935
162 1 0.73918 0.0781304 0.150816
18 1 0.739738 0.07664 -0.00359893
24 1 0.826762 0.0820567 0.0773314
45 1 0.829783 0.174855 1.01056
47 1 0.913508 0.164821 0.0816821
166 1 0.918687 0.0841934 0.163941
22 1 0.91232 0.0863153 -0.00787542
27 1 0.0762358 0.168665 0.0733316
170 1 0.110417 0.240167 0.168261
51 1 0.06721 0.316876 0.0613332
28 1 0.995593 0.245027 0.0709901
25 1 0.994573 0.156265 0.988937
29 1 0.157827 0.164197 -0.0229089
32 1 0.159529 0.254694 0.0715453
174 1 0.249902 0.252223 0.16654
53 1 0.151387 0.335432 0.986417
35 1 0.402323 0.153821 0.0974023
36 1 0.33885 0.262251 0.0674635
178 1 0.400553 0.235686 0.156879
39 1 0.587786 0.160357 0.105113
40 1 0.503025 0.242233 0.0939808
63 1 0.609022 0.335127 0.0761411
209 1 0.677043 0.34609 0.167443
38 1 0.579872 0.240601 0.00553778
44 1 0.667442 0.247353 0.074419
48 1 0.822938 0.24658 0.0861984
67 1 0.746164 0.329613 0.083609
186 1 0.756272 0.251615 0.164334
190 1 0.912804 0.244676 0.159327
71 1 0.916977 0.320685 0.0937723
213 1 0.830349 0.331716 0.154763
46 1 0.91705 0.24478 0.98293
52 1 0.979541 0.407431 0.0759547
75 1 0.0840895 0.519705 0.0812136
194 1 0.0796719 0.419069 0.158199
55 1 0.233184 0.33595 0.0911918
56 1 0.153039 0.419945 0.0870267
198 1 0.245927 0.426464 0.149575
60 1 0.339839 0.424254 0.0798282
54 1 0.252195 0.411268 0.00478918
59 1 0.426429 0.328304 0.0811586
83 1 0.414487 0.501513 0.0841042
64 1 0.511073 0.404625 0.0789613
205 1 0.508711 0.330712 0.16102
202 1 0.420485 0.422783 0.169211
85 1 0.499739 0.493868 1.00519
206 1 0.593439 0.414653 0.159436
229 1 0.505435 0.493566 0.152853
68 1 0.678468 0.416581 0.0818967
72 1 0.828736 0.399722 0.0761116
210 1 0.753057 0.431664 0.157764
217 1 0.0101919 0.511228 0.162945
95 1 0.892886 0.492 0.070541
70 1 0.899794 0.410888 0.998707
218 1 0.0880034 0.595036 0.156819
245 1 0.167945 0.663551 0.158546
80 1 0.163679 0.591537 0.0768655
221 1 0.169931 0.504083 0.156802
79 1 0.254966 0.499766 0.0736484
225 1 0.335844 0.49618 0.162693
222 1 0.25147 0.586691 0.156959
103 1 0.255624 0.659086 0.0664558
84 1 0.354692 0.593713 0.0848686
249 1 0.340446 0.672121 0.152461
105 1 0.332318 0.667341 0.988807
107 1 0.437464 0.665987 0.0764597
226 1 0.432275 0.567151 0.176238
87 1 0.585758 0.507959 0.081932
88 1 0.50529 0.577231 0.0741644
111 1 0.596489 0.658305 0.0811336
253 1 0.509708 0.669732 0.161513
86 1 0.587761 0.585127 -0.00740475
91 1 0.775737 0.497551 0.076311
92 1 0.676463 0.58007 0.0880374
96 1 0.845576 0.589324 0.0833721
93 1 0.831073 0.510512 0.979851
89 1 0.676999 0.517259 1.00035
76 1 -0.00455584 0.601048 0.0883236
238 1 0.916434 0.582418 0.163338
94 1 0.913372 0.590027 1.00327
73 1 0.9894 0.489062 0.0100748
99 1 0.0899436 0.678657 0.059681
242 1 0.0901787 0.749552 0.16027
104 1 0.190388 0.747279 0.0832037
123 1 0.0801402 0.81967 0.0750481
98 1 0.0802814 0.756803 0.976672
108 1 0.321981 0.748994 0.0757253
127 1 0.258138 0.829217 0.0720258
131 1 0.420002 0.818839 0.0754715
250 1 0.431226 0.752136 0.157631
273 1 0.345034 0.827347 0.175694
277 1 0.528362 0.824998 0.15467
112 1 0.523524 0.741577 0.0803263
135 1 0.61001 0.828548 0.06852
133 1 0.505117 0.820816 0.98295
116 1 0.683914 0.738907 0.0692856
115 1 0.764329 0.664343 0.0835721
257 1 0.673562 0.651686 0.166001
117 1 0.834805 0.664938 1.00162
100 1 0.0111171 0.744809 0.0575285
120 1 0.840917 0.749389 0.0867291
119 1 0.917803 0.682218 0.101004
118 1 0.92408 0.748878 0.00241637
3 1 0.0845997 0.00851731 0.0961104
128 1 0.165997 0.888555 0.0870702
124 1 0.00924817 0.907529 0.0900164
145 1 0.00420779 0.997992 0.178782
125 1 0.167954 0.827489 0.00186069
7 1 0.245975 0.989627 0.0752904
149 1 0.169551 0.984799 0.164335
132 1 0.338289 0.913506 0.0747796
270 1 0.255117 0.909061 0.159958
157 1 0.497994 1.00148 0.145807
11 1 0.403681 0.995122 0.0804226
274 1 0.437954 0.908981 0.153329
130 1 0.415784 0.904477 1.00172
136 1 0.519847 0.897857 0.0709435
13 1 0.493968 0.985604 0.00746913
19 1 0.760806 0.987462 0.0807539
139 1 0.755772 0.830766 0.0791834
140 1 0.678111 0.916279 0.07674
17 1 0.6752 0.989004 0.98594
137 1 0.679853 0.814959 0.98764
23 1 0.926694 0.992855 0.0901881
143 1 0.924503 0.839526 0.0843948
285 1 0.828953 0.829297 0.162178
144 1 0.835723 0.917354 0.0913343
286 1 0.921028 0.909208 0.161473
141 1 0.845905 0.844807 0.00615535
290 1 0.096175 0.073442 0.324055
148 1 -0.00260725 0.06896 0.260519
171 1 0.0983999 0.162238 0.251383
313 1 -0.00366493 0.169216 0.338016
152 1 0.17366 0.0841587 0.250237
294 1 0.265147 0.0673542 0.330562
175 1 0.239529 0.174745 0.257926
153 1 0.332231 -0.00850382 0.163164
156 1 0.333111 0.0848309 0.249289
160 1 0.492032 0.0675352 0.240676
179 1 0.40775 0.167125 0.235043
321 1 0.327449 0.1602 0.322555
161 1 0.657279 -0.0096871 0.163493
158 1 0.570024 0.067777 0.160612
185 1 0.682246 0.17238 0.169123
302 1 0.58993 0.0965913 0.334953
164 1 0.651491 0.0785184 0.240299
163 1 0.734863 0.0046934 0.247273
187 1 0.751083 0.169793 0.253763
305 1 0.668406 0.0038797 0.33487
333 1 0.844247 0.172118 0.323735
168 1 0.831513 0.086222 0.252515
191 1 0.926489 0.179021 0.249575
195 1 0.091471 0.341645 0.245007
172 1 0.0182136 0.256517 0.24324
314 1 0.0821305 0.264993 0.333392
337 1 0.0160517 0.348278 0.319296
197 1 0.159361 0.349969 0.166747
176 1 0.167565 0.263126 0.260216
317 1 0.163811 0.17005 0.342205
318 1 0.258429 0.237931 0.343109
180 1 0.33313 0.249611 0.239799
325 1 0.505963 0.156534 0.310285
184 1 0.49796 0.245566 0.248669
322 1 0.423875 0.231488 0.325569
182 1 0.595114 0.258089 0.152246
183 1 0.585967 0.180965 0.243727
188 1 0.668278 0.260752 0.241466
326 1 0.580388 0.247174 0.339399
329 1 0.666402 0.174623 0.328138
330 1 0.747378 0.247479 0.323123
357 1 0.84548 0.33713 0.317723
193 1 0.0160379 0.325144 0.155212
192 1 0.828328 0.248496 0.246326
215 1 0.924685 0.335663 0.216817
334 1 0.925151 0.270733 0.305648
196 1 -0.0026379 0.427248 0.234716
219 1 0.0954236 0.49845 0.252499
338 1 0.0923311 0.428863 0.335807
361 1 0.00506329 0.499683 0.341124
199 1 0.245778 0.346885 0.238962
201 1 0.333584 0.338841 0.14654
200 1 0.164863 0.422051 0.239497
365 1 0.166982 0.513703 0.33484
341 1 0.161273 0.347667 0.324692
342 1 0.243879 0.419493 0.318121
203 1 0.419502 0.31625 0.248381
204 1 0.337524 0.400632 0.243052
349 1 0.503463 0.32017 0.331816
345 1 0.334547 0.319856 0.333252
346 1 0.411702 0.390844 0.346267
373 1 0.488468 0.485872 0.320424
207 1 0.582492 0.327004 0.242983
208 1 0.480984 0.395336 0.25687
350 1 0.577182 0.398296 0.321827
237 1 0.838922 0.501855 0.16028
211 1 0.743763 0.355257 0.243799
212 1 0.661093 0.420727 0.257406
216 1 0.834263 0.424694 0.239909
214 1 0.904819 0.418402 0.16846
239 1 0.919481 0.506704 0.254762
358 1 0.92657 0.423963 0.321067
362 1 0.0853197 0.58574 0.3272
224 1 0.175667 0.589675 0.246683
220 1 0.00626255 0.579923 0.252299
223 1 0.257189 0.495908 0.237917
247 1 0.259652 0.657948 0.240188
366 1 0.263858 0.573854 0.324249
227 1 0.416326 0.488443 0.251305
228 1 0.339157 0.58294 0.242906
232 1 0.510124 0.576628 0.25834
251 1 0.426601 0.660429 0.232454
369 1 0.322988 0.485444 0.327994
393 1 0.338926 0.65593 0.322411
370 1 0.418216 0.579615 0.316781
397 1 0.502874 0.665468 0.328625
230 1 0.573108 0.577039 0.163981
231 1 0.573357 0.486056 0.246446
236 1 0.662666 0.578288 0.246646
374 1 0.581785 0.592162 0.341144
234 1 0.753409 0.56972 0.153616
233 1 0.672875 0.493813 0.168013
235 1 0.747054 0.500309 0.257388
377 1 0.655247 0.511818 0.330266
240 1 0.842717 0.566494 0.245839
382 1 0.926716 0.587023 0.327931
243 1 0.0903265 0.655042 0.239468
389 1 0.176347 0.667887 0.339466
248 1 0.178561 0.738511 0.251156
244 1 -0.00474198 0.746342 0.252519
246 1 0.25901 0.744456 0.159406
390 1 0.266598 0.743369 0.327216
413 1 0.15739 0.830723 0.323937
417 1 0.351178 0.830019 0.325564
252 1 0.345507 0.744341 0.254074
256 1 0.516461 0.761405 0.242646
394 1 0.429849 0.742504 0.316873
281 1 0.674914 0.825377 0.154835
255 1 0.584118 0.661735 0.238849
254 1 0.598951 0.735644 0.157583
421 1 0.510631 0.82957 0.332755
279 1 0.605712 0.842284 0.236487
425 1 0.673701 0.832942 0.346656
398 1 0.588558 0.751202 0.324062
258 1 0.759711 0.743714 0.160426
259 1 0.747131 0.641711 0.247781
260 1 0.673439 0.734877 0.234912
283 1 0.746844 0.828519 0.257161
241 1 0.00290747 0.659976 0.171607
261 1 0.835412 0.657348 0.167048
265 1 0.00394155 0.802722 0.161831
264 1 0.840101 0.740789 0.246136
262 1 0.913898 0.756186 0.175758
263 1 0.921753 0.667196 0.252346
406 1 0.918587 0.749779 0.323566
269 1 0.177933 0.820583 0.176193
147 1 0.0905458 0.981778 0.251043
266 1 0.0949197 0.893733 0.171429
267 1 0.0826801 0.820753 0.24908
409 1 0.00390156 0.81606 0.329801
268 1 -0.00550304 0.903909 0.247478
271 1 0.262464 0.822493 0.258708
151 1 0.256541 1.00477 0.244654
272 1 0.171699 0.905083 0.251626
276 1 0.33715 0.923631 0.239775
414 1 0.263208 0.89904 0.329472
297 1 0.344357 0.988672 0.344743
155 1 0.415868 0.993146 0.24957
275 1 0.426491 0.832491 0.234824
418 1 0.420707 0.918742 0.334351
278 1 0.566006 0.91588 0.165287
159 1 0.599679 -0.00404868 0.255017
280 1 0.51142 0.934602 0.259937
301 1 0.496568 0.0122637 0.338379
422 1 0.604736 0.916944 0.329201
282 1 0.750113 0.908977 0.157644
284 1 0.689182 0.910374 0.266153
288 1 0.827799 0.911054 0.251742
167 1 0.903797 -0.00607379 0.250877
165 1 0.832772 1.00773 0.166682
287 1 0.911595 0.829479 0.252292
315 1 0.0745835 0.167976 0.408987
292 1 -0.00410125 0.0631801 0.386988
457 1 -0.0071196 0.164079 0.484534
434 1 0.0897578 0.094663 0.483964
296 1 0.189558 0.0769846 0.398972
300 1 0.329614 0.0793047 0.411308
461 1 0.161392 0.168478 0.50654
298 1 0.41672 0.089348 0.326128
442 1 0.409998 0.0852912 0.507503
299 1 0.417131 0.00910881 0.413072
304 1 0.492988 0.0987315 0.417606
446 1 0.586661 0.0657783 0.500772
327 1 0.586405 0.166482 0.427614
445 1 0.492515 -0.00617475 0.499281
449 1 0.668261 -0.00607122 0.484317
306 1 0.746488 0.0939857 0.330168
308 1 0.671585 0.0866137 0.41207
450 1 0.761153 0.0795435 0.487206
312 1 0.83307 0.100008 0.402337
310 1 0.916909 0.0839658 0.323181
454 1 0.916138 0.0928266 0.486512
335 1 0.919037 0.17051 0.409071
458 1 0.0874114 0.260242 0.493905
339 1 0.0920601 0.333671 0.432708
481 1 0.00224374 0.333583 0.504589
465 1 0.325851 0.156184 0.506017
319 1 0.250684 0.160197 0.422229
320 1 0.174658 0.247065 0.431291
485 1 0.179237 0.330586 0.506071
462 1 0.245963 0.25073 0.504769
323 1 0.406066 0.17908 0.409033
469 1 0.495262 0.163081 0.493606
324 1 0.325302 0.246408 0.422749
466 1 0.405435 0.230593 0.507807
328 1 0.485397 0.247144 0.412693
332 1 0.673099 0.244693 0.416483
470 1 0.579984 0.247735 0.497925
497 1 0.652337 0.351871 0.493707
331 1 0.74948 0.174677 0.412635
353 1 0.665861 0.334033 0.329281
355 1 0.746048 0.334478 0.404408
477 1 0.821794 0.18486 0.492627
336 1 0.848485 0.260914 0.400606
316 1 1.00366 0.264967 0.41171
359 1 0.923385 0.332503 0.403909
478 1 0.910585 0.240409 0.495452
501 1 0.834841 0.32351 0.490307
363 1 0.0844724 0.513804 0.419107
482 1 0.0943608 0.428317 0.492885
343 1 0.24318 0.338145 0.411815
344 1 0.174509 0.421391 0.423706
486 1 0.256327 0.411932 0.509477
347 1 0.404063 0.319717 0.429204
348 1 0.328029 0.409519 0.419116
352 1 0.490569 0.40888 0.409833
489 1 0.326686 0.33047 0.499717
517 1 0.497752 0.515852 0.50902
351 1 0.567574 0.329368 0.415231
356 1 0.65143 0.414126 0.408261
354 1 0.732087 0.42293 0.339767
379 1 0.738038 0.494621 0.416507
498 1 0.73909 0.413534 0.486832
360 1 0.827583 0.407419 0.402326
340 1 1.00556 0.415707 0.426932
383 1 0.915197 0.518188 0.411373
525 1 0.831835 0.480256 0.485195
385 1 0.00664859 0.673099 0.333635
506 1 0.0853942 0.582391 0.503783
368 1 0.163741 0.600577 0.426866
509 1 0.168112 0.51506 0.500956
367 1 0.243227 0.504301 0.421261
510 1 0.257708 0.582375 0.489193
372 1 0.353623 0.583594 0.415283
537 1 0.352459 0.659709 0.48901
371 1 0.417311 0.489824 0.412131
395 1 0.425905 0.665106 0.407938
513 1 0.338995 0.492349 0.489386
514 1 0.418282 0.578111 0.508388
376 1 0.501149 0.594107 0.423552
375 1 0.576186 0.497964 0.406087
380 1 0.657835 0.590076 0.413892
518 1 0.579018 0.588503 0.491971
401 1 0.657755 0.663572 0.325386
378 1 0.752197 0.566509 0.344624
403 1 0.752447 0.669705 0.413307
521 1 0.666847 0.496057 0.499712
522 1 0.746586 0.591763 0.48943
545 1 0.66739 0.673808 0.503577
381 1 0.828541 0.485388 0.329279
364 1 0.00380438 0.583943 0.412567
384 1 0.825447 0.590033 0.427384
529 1 0.998782 0.656063 0.494105
407 1 0.922575 0.666532 0.410896
386 1 0.0880625 0.748966 0.359872
387 1 0.0783738 0.672006 0.427179
391 1 0.274861 0.666043 0.415523
392 1 0.176633 0.75689 0.419387
415 1 0.257371 0.824714 0.404486
533 1 0.172584 0.679228 0.498459
534 1 0.264113 0.751325 0.4883
396 1 0.345376 0.751081 0.416198
400 1 0.501647 0.748815 0.419278
561 1 0.33416 0.831139 0.5188
538 1 0.418514 0.759088 0.493945
399 1 0.586112 0.672228 0.429594
423 1 0.582981 0.834029 0.415186
541 1 0.501573 0.672199 0.502524
404 1 0.67058 0.75174 0.416994
402 1 0.766676 0.743414 0.335023
427 1 0.755638 0.834178 0.415869
569 1 0.658306 0.846022 0.492374
546 1 0.756729 0.736398 0.486195
405 1 0.82909 0.649799 0.323064
388 1 0.000557019 0.741422 0.422657
408 1 0.84584 0.750814 0.414444
549 1 0.831176 0.664551 0.499886
429 1 0.835739 0.834188 0.323778
410 1 0.0692321 0.900904 0.31753
289 1 0.990602 0.973496 0.318461
291 1 0.0921769 0.99898 0.410905
411 1 0.079792 0.8399 0.418973
412 1 -0.00344764 0.914507 0.430332
293 1 0.175462 0.985859 0.328852
295 1 0.258828 0.982384 0.410372
416 1 0.173168 0.902566 0.405775
558 1 0.245415 0.914473 0.500288
441 1 0.327849 0.992644 0.497704
419 1 0.426691 0.820835 0.406921
420 1 0.334835 0.903521 0.413148
562 1 0.406878 0.9269 0.491856
424 1 0.492959 0.93328 0.408392
303 1 0.592161 1.00828 0.415698
566 1 0.580455 0.924937 0.490305
426 1 0.766914 0.921905 0.338249
309 1 0.84107 -0.00249962 0.340781
428 1 0.665537 0.915596 0.415256
307 1 0.761193 1.00693 0.410694
432 1 0.843439 0.90812 0.418369
430 1 0.911875 0.901167 0.324945
431 1 0.925831 0.838409 0.403911
311 1 0.924621 1.00092 0.41532
574 1 0.925059 0.907972 0.509266
436 1 0.0076118 0.0863094 0.573183
440 1 0.163894 0.0887782 0.576256
459 1 0.0831395 0.17229 0.589359
438 1 0.242515 0.0759389 0.489498
463 1 0.246028 0.155062 0.580332
439 1 0.267256 0.016626 0.582848
444 1 0.33693 0.0927492 0.596233
586 1 0.413512 0.077975 0.665845
585 1 0.316661 0.0105539 0.669719
448 1 0.499335 0.0739222 0.581478
447 1 0.590493 0.991969 0.580792
452 1 0.667455 0.0732991 0.580606
451 1 0.753852 0.00707041 0.576569
456 1 0.819846 0.0967489 0.575502
455 1 0.926614 1.00709 0.566041
598 1 0.936986 0.101419 0.647228
621 1 0.827881 0.154533 0.669124
605 1 0.166942 0.173488 0.665688
460 1 0.998782 0.243468 0.584927
602 1 0.0871846 0.246538 0.67274
464 1 0.155301 0.259088 0.574438
606 1 0.244649 0.250622 0.676331
633 1 0.343001 0.326764 0.659432
467 1 0.431664 0.161003 0.587671
468 1 0.324194 0.245935 0.573047
472 1 0.500616 0.247187 0.580614
613 1 0.507262 0.153928 0.667898
471 1 0.582445 0.155817 0.567682
637 1 0.498022 0.339655 0.671152
493 1 0.497095 0.327284 0.499674
617 1 0.671401 0.160205 0.656258
475 1 0.752553 0.172554 0.569172
473 1 0.679365 0.160851 0.484221
474 1 0.742419 0.256677 0.493708
476 1 0.664472 0.237937 0.580792
618 1 0.741855 0.234131 0.664585
479 1 0.916173 0.172853 0.573985
480 1 0.839456 0.248336 0.594657
503 1 0.920863 0.321459 0.572143
622 1 0.913075 0.253336 0.676372
625 1 0.98541 0.337654 0.668868
483 1 0.0776847 0.327472 0.588374
507 1 0.0733691 0.507757 0.572137
649 1 0.994026 0.496875 0.650363
505 1 0.993443 0.50408 0.497514
626 1 0.0898836 0.434874 0.661798
488 1 0.160821 0.418393 0.580534
487 1 0.25723 0.333248 0.591417
630 1 0.259508 0.419732 0.678416
491 1 0.408978 0.332753 0.572828
492 1 0.341949 0.410097 0.580703
490 1 0.427831 0.428113 0.509584
515 1 0.4326 0.507513 0.595751
496 1 0.498583 0.418352 0.58508
495 1 0.585052 0.335853 0.578309
494 1 0.559992 0.432159 0.500499
519 1 0.585171 0.510933 0.586298
500 1 0.669984 0.419242 0.572937
499 1 0.758757 0.340337 0.565233
523 1 0.751642 0.492927 0.581588
665 1 0.676376 0.500985 0.656397
502 1 0.922907 0.408341 0.510881
484 1 0.00318036 0.413221 0.575134
504 1 0.83549 0.418554 0.586251
645 1 0.836755 0.328594 0.661345
508 1 0.997173 0.582755 0.580654
650 1 0.0997553 0.585504 0.670243
512 1 0.172206 0.586966 0.586601
531 1 0.0840355 0.655584 0.579601
673 1 0.00697334 0.66839 0.65778
511 1 0.268465 0.519229 0.576409
654 1 0.257233 0.584492 0.674816
535 1 0.261785 0.66081 0.579688
677 1 0.180132 0.666489 0.664472
653 1 0.181229 0.50327 0.651297
657 1 0.3473 0.515997 0.658172
516 1 0.349496 0.591356 0.580496
539 1 0.422905 0.663202 0.591706
520 1 0.496861 0.586939 0.602694
658 1 0.431313 0.591885 0.686345
662 1 0.586741 0.601206 0.662117
543 1 0.567468 0.667894 0.584039
524 1 0.671728 0.576842 0.571904
689 1 0.672204 0.666533 0.644142
666 1 0.757878 0.597232 0.661314
547 1 0.759575 0.680593 0.576058
693 1 0.840364 0.682117 0.656303
526 1 0.915308 0.584297 0.499694
527 1 0.921697 0.497154 0.576576
669 1 0.836788 0.502935 0.662529
528 1 0.829551 0.578054 0.573514
551 1 0.919958 0.672259 0.568391
530 1 0.0928341 0.753595 0.49972
536 1 0.17777 0.750836 0.582478
674 1 0.0864321 0.738382 0.644905
701 1 0.178978 0.838311 0.686049
678 1 0.259353 0.742095 0.671795
540 1 0.339181 0.742442 0.575139
544 1 0.48628 0.759209 0.586988
542 1 0.580751 0.74341 0.505827
686 1 0.585024 0.74506 0.662631
709 1 0.504276 0.8312 0.675029
548 1 0.657255 0.746798 0.581697
571 1 0.742066 0.82754 0.563517
717 1 0.842923 0.829338 0.659395
690 1 0.752965 0.759748 0.652469
550 1 0.923568 0.75419 0.503237
553 1 0.00406364 0.828234 0.502242
532 1 1.01164 0.737688 0.57769
552 1 0.842372 0.753017 0.579164
437 1 0.156724 0.0050276 0.495387
557 1 0.174834 0.8318 0.498681
433 1 0.0112729 -0.00823711 0.501371
554 1 0.0875328 0.912579 0.494918
555 1 0.0819677 0.842784 0.586381
435 1 0.083306 0.00710563 0.578693
559 1 0.252225 0.823083 0.597933
560 1 0.164263 0.918716 0.570167
702 1 0.246893 0.922228 0.65944
563 1 0.420255 0.850958 0.583179
564 1 0.333803 0.921633 0.580997
443 1 0.422 0.992774 0.58613
565 1 0.510111 0.844582 0.49498
567 1 0.593818 0.834877 0.597487
568 1 0.502241 0.921676 0.569616
572 1 0.663128 0.915408 0.578992
570 1 0.740676 0.925355 0.503643
714 1 0.760885 0.918503 0.637044
573 1 0.839289 0.826431 0.492007
453 1 0.835653 -0.00513956 0.500751
556 1 0.00692304 0.924261 0.589733
576 1 0.838164 0.895285 0.560772
575 1 0.924532 0.834076 0.582603
718 1 0.928842 0.91373 0.654542
578 1 0.0824171 0.0900073 0.663541
584 1 0.158563 0.0881293 0.745688
579 1 0.0827941 0.00605257 0.747361
722 1 0.0731171 0.0821535 0.82643
582 1 0.243229 0.0861467 0.688818
607 1 0.274256 0.171446 0.755406
583 1 0.249395 -0.00723141 0.742636
726 1 0.231091 0.0840263 0.822531
588 1 0.335819 0.0850439 0.757595
611 1 0.421912 0.15612 0.741464
730 1 0.418062 0.0880089 0.852327
609 1 0.332645 0.190575 0.667512
589 1 0.502006 0.998628 0.667575
593 1 0.670972 -0.00244884 0.668047
592 1 0.501573 0.0737336 0.735843
590 1 0.591746 0.0808503 0.658098
596 1 0.665335 0.0766367 0.75662
597 1 0.844519 -0.0195829 0.644047
594 1 0.753586 0.0885612 0.670067
619 1 0.750268 0.155819 0.752938
600 1 0.857794 0.0738937 0.739081
595 1 0.762767 -0.00189389 0.734872
577 1 -0.00747832 0.00859489 0.643641
580 1 0.993612 0.0872392 0.747484
599 1 0.924198 0.99177 0.746564
623 1 0.922956 0.175904 0.746427
601 1 0.000674324 0.175233 0.661514
603 1 0.0801612 0.16058 0.748066
604 1 0.99257 0.256121 0.753322
629 1 0.157533 0.347023 0.658263
608 1 0.171868 0.239018 0.760655
612 1 0.34558 0.254941 0.752623
631 1 0.253478 0.324924 0.753419
749 1 0.165812 0.1693 0.837979
610 1 0.430381 0.255957 0.671143
616 1 0.506001 0.241804 0.750941
614 1 0.585583 0.238675 0.65231
615 1 0.58304 0.163924 0.746141
639 1 0.585743 0.340731 0.743655
620 1 0.662768 0.251634 0.749554
758 1 0.597491 0.23842 0.824486
624 1 0.829211 0.234678 0.740522
766 1 0.908392 0.249501 0.824285
627 1 0.0827779 0.339474 0.736144
628 1 0.0201886 0.419771 0.7366
773 1 0.150601 0.328562 0.815299
632 1 0.169397 0.425728 0.751934
774 1 0.246335 0.40413 0.826587
636 1 0.352191 0.39876 0.74026
797 1 0.160547 0.492108 0.830199
801 1 0.320146 0.487534 0.843443
635 1 0.425819 0.319975 0.762729
634 1 0.427556 0.425816 0.668051
778 1 0.437863 0.411727 0.825452
641 1 0.675288 0.32406 0.64787
638 1 0.585936 0.429168 0.649817
640 1 0.497866 0.423469 0.74348
782 1 0.584674 0.416127 0.822249
644 1 0.673559 0.423658 0.754123
642 1 0.75197 0.414834 0.654733
643 1 0.754184 0.339192 0.731452
786 1 0.761447 0.414136 0.825417
648 1 0.832151 0.420416 0.736333
646 1 0.915158 0.417186 0.647051
647 1 0.91374 0.334622 0.75024
790 1 0.902495 0.428151 0.832744
789 1 0.831532 0.326729 0.828145
671 1 0.924844 0.509059 0.747699
651 1 0.0904895 0.500576 0.747596
656 1 0.173413 0.582986 0.75483
652 1 0.00703186 0.566382 0.742091
675 1 0.0610212 0.663042 0.756854
655 1 0.250403 0.498749 0.761066
660 1 0.347337 0.583772 0.740173
798 1 0.243439 0.575423 0.843651
679 1 0.257808 0.660287 0.746248
661 1 0.499684 0.51038 0.677412
659 1 0.413997 0.494165 0.764182
683 1 0.425899 0.679734 0.757388
663 1 0.588953 0.51854 0.735931
664 1 0.514527 0.586363 0.749988
806 1 0.588086 0.58777 0.836796
809 1 0.652695 0.50395 0.829976
667 1 0.7521 0.500128 0.739792
668 1 0.657497 0.591527 0.741963
813 1 0.828594 0.506017 0.819387
810 1 0.760609 0.59926 0.820025
833 1 0.677058 0.675402 0.816072
670 1 0.918352 0.597412 0.659099
672 1 0.836985 0.581972 0.743196
814 1 0.930508 0.569369 0.833717
818 1 0.0786849 0.747711 0.831923
699 1 0.0859006 0.853654 0.74421
841 1 0.0130174 0.84379 0.82453
821 1 0.169472 0.670016 0.813266
680 1 0.146954 0.744989 0.736166
703 1 0.259213 0.824016 0.749057
845 1 0.16623 0.837862 0.820861
681 1 0.335368 0.660356 0.662912
682 1 0.405251 0.750515 0.66669
685 1 0.497392 0.678077 0.675762
705 1 0.344344 0.842188 0.673648
684 1 0.339332 0.745465 0.745616
707 1 0.42058 0.834157 0.747578
829 1 0.505595 0.662798 0.829004
688 1 0.513638 0.750325 0.760075
687 1 0.586525 0.672778 0.752651
692 1 0.687172 0.758856 0.757188
691 1 0.75705 0.684024 0.74176
715 1 0.765684 0.841228 0.754992
694 1 0.921797 0.752296 0.655222
676 1 -0.00614067 0.75599 0.754397
695 1 0.910031 0.681977 0.746325
696 1 0.834838 0.76268 0.743686
837 1 0.846834 0.678733 0.835802
838 1 0.9181 0.767004 0.828941
817 1 -0.00061598 0.656667 0.840036
697 1 1.00561 0.820698 0.670199
698 1 0.10223 0.934237 0.660683
842 1 0.0786943 0.923186 0.83868
704 1 0.165001 0.928821 0.747028
581 1 0.17406 0.0154336 0.660895
725 1 0.158529 0.00364059 0.819085
846 1 0.252099 0.907322 0.818269
706 1 0.423679 0.921536 0.671763
587 1 0.42075 1.00876 0.759947
729 1 0.327607 0.994791 0.829897
708 1 0.331888 0.928241 0.74038
850 1 0.42175 0.92527 0.828737
710 1 0.589845 0.920499 0.675598
853 1 0.494464 0.826505 0.840701
857 1 0.678137 0.840392 0.831049
712 1 0.510162 0.907348 0.758074
711 1 0.600961 0.830428 0.745571
591 1 0.586374 0.983218 0.758533
713 1 0.677605 0.841278 0.669763
716 1 0.688999 0.923852 0.736951
737 1 0.662861 5.26159e-05 0.827559
720 1 0.841173 0.915969 0.740329
858 1 0.757525 0.920603 0.823985
861 1 0.832887 0.851609 0.829431
700 1 0.00955807 0.927108 0.730749
719 1 0.926035 0.847521 0.756403
862 1 0.931465 0.919807 0.840627
2 1 0.0648872 0.0815435 -0.000457137
747 1 0.070322 0.180342 0.902416
724 1 -0.00237313 0.0721758 0.913496
9 1 0.317273 1.00043 -0.00458837
753 1 0.35246 0.163851 0.833311
728 1 0.155194 0.0850273 0.911476
6 1 0.243079 0.0945093 0.992545
732 1 0.317429 0.0840836 0.908454
751 1 0.246651 0.168187 0.905649
10 1 0.39328 0.0849413 1.00533
733 1 0.49018 0.00867553 0.838967
736 1 0.493862 0.0716508 0.9404
755 1 0.418928 0.158202 0.928011
41 1 0.649791 0.155962 0.0047371
757 1 0.50163 0.161674 0.823392
14 1 0.565458 0.0713457 0.0192192
734 1 0.580821 0.0716279 0.835501
735 1 0.573437 0.995547 0.923363
738 1 0.762613 0.0698692 0.820722
761 1 0.668384 0.156498 0.829966
740 1 0.674423 0.0819829 0.910469
741 1 0.843915 -0.000542435 0.817591
1 1 -0.000187784 1.0004 0.0114901
742 1 0.918923 0.0765057 0.823765
721 1 1.00361 1.00078 0.829072
744 1 0.825633 0.0941807 0.916883
767 1 0.919919 0.165756 0.910987
746 1 0.0735539 0.255142 0.817988
745 1 0.987856 0.173673 0.822063
26 1 0.0649921 0.235263 0.994033
752 1 0.160167 0.247562 0.904619
750 1 0.254442 0.251861 0.828501
30 1 0.239403 0.250186 -0.00634028
756 1 0.329125 0.234247 0.925478
37 1 0.511682 0.160328 0.00441261
754 1 0.433002 0.237416 0.840258
34 1 0.434861 0.242113 0.00422771
61 1 0.5019 0.325963 0.00264154
760 1 0.511969 0.240716 0.918177
759 1 0.581401 0.146945 0.920037
764 1 0.655333 0.246799 0.933087
762 1 0.753814 0.247936 0.82649
765 1 0.840276 0.161287 0.824111
763 1 0.739832 0.166594 0.907559
42 1 0.750725 0.239344 -0.00851489
65 1 0.681432 0.335408 0.996612
69 1 0.835606 0.32142 1.0033
748 1 0.984058 0.249426 0.901152
768 1 0.83049 0.234137 0.904811
791 1 0.892291 0.325337 0.915371
771 1 0.0726184 0.328642 0.908031
49 1 0.977296 0.330973 0.980056
770 1 0.0843907 0.405733 0.827839
50 1 0.0768258 0.426962 0.013297
777 1 0.346351 0.316896 0.839472
775 1 0.255882 0.32479 0.91873
776 1 0.171335 0.416139 0.914692
780 1 0.329728 0.412815 0.925318
57 1 0.333811 0.331788 -0.0108584
58 1 0.415101 0.410649 1.00317
781 1 0.52937 0.321625 0.833503
779 1 0.421645 0.315438 0.920871
803 1 0.417076 0.485824 0.914616
783 1 0.588431 0.328445 0.923137
784 1 0.519501 0.425036 0.917909
62 1 0.595687 0.415693 -0.000559303
785 1 0.681385 0.337284 0.828324
787 1 0.761546 0.313474 0.921194
788 1 0.663932 0.406476 0.905056
66 1 0.740545 0.43144 0.98233
792 1 0.817386 0.412279 0.906259
769 1 -0.0144123 0.338297 0.829497
772 1 1.00393 0.411479 0.915596
794 1 0.0814613 0.574571 0.846759
793 1 0.00701045 0.488968 0.822549
795 1 0.0799984 0.478881 0.910013
74 1 0.0872536 0.576957 -0.0185727
796 1 0.00243962 0.562469 0.919506
77 1 0.16064 0.496569 1.00446
81 1 0.349062 0.500924 -0.00182271
800 1 0.172926 0.576132 0.910142
78 1 0.258424 0.578553 0.986284
799 1 0.251832 0.497024 0.926329
823 1 0.241194 0.661407 0.909849
825 1 0.332425 0.654397 0.833482
802 1 0.420893 0.577712 0.821078
82 1 0.417474 0.584824 0.994811
804 1 0.35288 0.572658 0.905758
827 1 0.426675 0.675508 0.909507
805 1 0.51569 0.509061 0.821474
807 1 0.591025 0.500419 0.927274
808 1 0.508496 0.567644 0.926028
831 1 0.586317 0.679246 0.90758
109 1 0.518522 0.662852 1.00426
811 1 0.753987 0.501086 0.894111
812 1 0.666649 0.599619 0.902084
90 1 0.761174 0.581564 0.0088201
816 1 0.82992 0.588104 0.902654
815 1 0.913298 0.491654 0.913268
101 1 0.17081 0.661479 0.990602
819 1 0.0879695 0.663816 0.920358
820 1 -0.000565587 0.753097 0.902329
824 1 0.163969 0.762601 0.897742
843 1 0.0829102 0.837599 0.912517
822 1 0.260255 0.747453 0.818297
102 1 0.247858 0.754565 0.994012
828 1 0.333007 0.734372 0.901344
826 1 0.410682 0.755469 0.827397
106 1 0.418564 0.747408 0.995518
830 1 0.604548 0.756659 0.834548
110 1 0.598911 0.748033 0.991463
832 1 0.506838 0.741394 0.911037
113 1 0.668784 0.659577 0.995541
114 1 0.774619 0.760219 0.989202
834 1 0.766047 0.74712 0.835456
835 1 0.752647 0.659403 0.922202
836 1 0.694324 0.74809 0.90983
97 1 -0.00280508 0.672952 0.979944
839 1 0.924803 0.659702 0.906165
840 1 0.860041 0.752632 0.9055
5 1 0.169158 0.0152642 0.987153
122 1 0.098321 0.918148 0.00837233
723 1 0.0852761 0.998002 0.91491
844 1 8.51584e-05 0.91376 0.930283
121 1 0.998513 0.832544 0.00615076
126 1 0.245323 0.91722 -0.00993304
727 1 0.248338 1.00815 0.912006
847 1 0.251149 0.836676 0.912712
129 1 0.336723 0.828545 0.998966
848 1 0.163572 0.921794 0.901109
849 1 0.338001 0.839154 0.841445
852 1 0.316255 0.914141 0.911881
851 1 0.426664 0.844074 0.912377
731 1 0.417841 0.996783 0.914858
856 1 0.508391 0.915321 0.916497
854 1 0.590961 0.906433 0.833617
855 1 0.593432 0.826895 0.916597
134 1 0.609487 0.908186 0.984095
860 1 0.682035 0.923895 0.900215
739 1 0.766284 -0.00454051 0.902554
859 1 0.765949 0.850691 0.909342
138 1 0.759509 0.915361 0.999637
142 1 0.910954 0.922476 1.00234
21 1 0.83236 0.00657182 1.00543
863 1 0.928251 0.839527 0.91308
743 1 0.93257 0.00152087 0.906768
864 1 0.843069 0.91179 0.915875
