ITEM: TIMESTEP
6750
ITEM: NUMBER OF ATOMS
864
ITEM: BOX BOUNDS pp pp pp
0.0000000000000000e+00 3.1559999999999999e+01
0.0000000000000000e+00 3.1559999999999999e+01
0.0000000000000000e+00 3.1559999999999999e+01
ITEM: ATOMS id type xs ys zs
8 1 0.167274 0.086974 0.0682765
4 1 0.0164078 0.081427 0.0880142
25 1 -0.00248284 0.170694 0.982977
169 1 0.00226719 0.175749 0.172616
29 1 0.166523 0.173958 0.996442
12 1 0.310009 0.0944668 0.102277
173 1 0.190177 0.161141 0.174875
150 1 0.245272 0.0703167 0.18356
6 1 0.264997 0.0773209 0.999946
35 1 0.425526 0.167576 0.0799791
16 1 0.508581 0.0942792 0.0723638
158 1 0.577773 0.0929294 0.170048
181 1 0.499245 0.168641 0.156507
14 1 0.584681 0.0993351 0.998525
17 1 0.6629 0.00505816 0.990536
20 1 0.675765 0.0869476 0.0861854
19 1 0.75459 1.00566 0.0803028
18 1 0.747397 0.0838758 0.999218
162 1 0.753801 0.0680604 0.173644
24 1 0.823536 0.085823 0.0772586
161 1 0.683287 0.990882 0.156753
45 1 0.824635 0.165085 0.000230319
41 1 0.670489 0.173496 0.994533
47 1 0.925126 0.177656 0.0772648
27 1 0.098101 0.169324 0.0869495
28 1 0.0125529 0.245085 0.087455
26 1 0.0918568 0.246866 1.0017
193 1 0.00836573 0.303539 0.179757
170 1 0.0937623 0.243295 0.165091
32 1 0.16785 0.247064 0.0758221
31 1 0.245289 0.172244 0.0802473
55 1 0.248886 0.334945 0.0790046
174 1 0.259246 0.236922 0.153349
197 1 0.175753 0.316363 0.155107
177 1 0.333725 0.166586 0.173376
37 1 0.497631 0.167278 0.984965
36 1 0.33709 0.258068 0.0751778
201 1 0.336292 0.328348 0.15458
178 1 0.408772 0.248226 0.153913
34 1 0.429589 0.253392 0.992614
40 1 0.509132 0.244836 0.0761567
39 1 0.596634 0.176857 0.0876081
185 1 0.662886 0.157491 0.180257
182 1 0.596942 0.255774 0.168608
44 1 0.677887 0.248377 0.0839644
38 1 0.578158 0.24592 0.997624
43 1 0.74911 0.163802 0.0784806
48 1 0.838671 0.249001 0.0839153
46 1 0.917783 0.253639 0.997515
190 1 0.917976 0.249304 0.166789
51 1 0.0923428 0.328016 0.0820366
194 1 0.103583 0.416031 0.175095
217 1 -0.00136149 0.474371 0.177061
221 1 0.17543 0.487386 0.163821
75 1 0.0899854 0.487927 0.0895264
56 1 0.177383 0.416281 0.0838232
60 1 0.334404 0.416408 0.0723718
59 1 0.432704 0.330901 0.0788878
202 1 0.411069 0.419865 0.153838
58 1 0.41967 0.415846 -0.0022575
63 1 0.607543 0.330671 0.0958046
61 1 0.509529 0.32743 0.00835845
64 1 0.50576 0.422872 0.105356
209 1 0.675096 0.336629 0.178968
62 1 0.582558 0.408879 0.01163
67 1 0.758205 0.326469 0.0937884
68 1 0.682516 0.407155 0.0751353
213 1 0.840092 0.331695 0.167468
233 1 0.673982 0.489747 0.163135
65 1 0.67307 0.33045 1.00072
72 1 0.840149 0.41366 0.0760953
210 1 0.760377 0.410253 0.179922
237 1 0.836072 0.496622 0.169557
49 1 0.0131161 0.332985 0.996917
71 1 0.915015 0.337094 0.0771354
52 1 0.00772493 0.405268 0.0928187
95 1 0.9321 0.486246 0.0964787
214 1 0.913552 0.405265 0.169658
241 1 0.00702776 0.649648 0.16147
218 1 0.0860616 0.560817 0.165834
80 1 0.178988 0.572396 0.0836271
76 1 0.0101593 0.572255 0.0801371
79 1 0.265686 0.503211 0.0906591
78 1 0.249177 0.584084 0.998422
84 1 0.334719 0.591797 0.0790821
225 1 0.336137 0.493312 0.16487
83 1 0.409719 0.490588 0.0841656
226 1 0.417502 0.59201 0.179187
85 1 0.504695 0.482061 0.00621321
229 1 0.483276 0.516331 0.182701
87 1 0.580657 0.502705 0.0954849
88 1 0.493191 0.571816 0.101159
86 1 0.571633 0.570841 0.0107886
92 1 0.663511 0.580376 0.0924725
91 1 0.751074 0.490616 0.080735
113 1 0.655651 0.667765 0.0038282
96 1 0.834974 0.567843 0.0863997
261 1 0.818096 0.671978 0.168857
119 1 0.910558 0.650075 0.071724
99 1 0.0856884 0.672439 0.0732275
104 1 0.165334 0.751061 0.0838134
123 1 0.0789647 0.828622 0.0883447
265 1 0.000909556 0.823185 0.162411
103 1 0.261746 0.668609 0.0807708
108 1 0.337748 0.755855 0.0764221
249 1 0.34665 0.680286 0.1584
246 1 0.254796 0.753729 0.173437
105 1 0.32543 0.657901 0.987829
102 1 0.270325 0.754189 -0.00173455
107 1 0.411636 0.666347 0.0768584
131 1 0.418114 0.837765 0.0549813
109 1 0.489395 0.660792 0.00127889
106 1 0.407526 0.75039 0.989741
111 1 0.579307 0.667546 0.0829814
112 1 0.494362 0.761847 0.0619647
277 1 0.516464 0.834517 0.15375
254 1 0.578799 0.742412 0.157174
110 1 0.584438 0.750706 1.00482
135 1 0.594998 0.831862 0.0707604
115 1 0.750905 0.659622 0.0787162
116 1 0.670447 0.750795 0.091215
258 1 0.745259 0.750446 0.178538
120 1 0.822358 0.742474 0.0757106
137 1 0.665737 0.829978 1.0013
100 1 0.997638 0.736391 0.0899444
262 1 0.913375 0.743281 0.170572
97 1 0.982353 0.656219 0.00176804
125 1 0.166591 0.825555 0.00314712
3 1 0.0983418 0.00340563 0.0820312
128 1 0.167441 0.910989 0.0834642
266 1 0.0738072 0.92473 0.158704
1 1 0.994733 0.00890147 0.992015
5 1 0.16806 0.984669 0.985026
122 1 0.0810991 0.913827 0.02187
7 1 0.244674 -0.00534887 0.0744634
127 1 0.264529 0.842155 0.0807523
126 1 0.257666 0.918515 -0.0113424
132 1 0.344395 0.915052 0.0939286
11 1 0.414559 0.00984836 0.0910737
15 1 0.599876 0.00737753 0.0887576
133 1 0.498806 0.855772 0.983047
136 1 0.497935 0.932571 0.0867172
278 1 0.589835 0.917035 0.167949
13 1 0.509229 1.01233 -0.00209586
134 1 0.579586 0.918692 1.02024
140 1 0.673905 0.925869 0.0693288
139 1 0.739124 0.823265 0.0774747
281 1 0.659348 0.836334 0.169485
23 1 0.91668 0.0390927 0.070864
143 1 0.920413 0.837081 0.0772173
121 1 -0.00202668 0.821843 0.0098549
124 1 0.988383 0.940758 0.0900546
144 1 0.837913 0.92017 0.0797062
286 1 0.915348 0.91819 0.158917
146 1 0.101465 0.0956175 0.165277
152 1 0.172014 0.0885794 0.25364
290 1 0.0995963 0.0673908 0.359322
148 1 0.0190854 0.0833332 0.276698
171 1 0.0857316 0.169062 0.245645
156 1 0.340037 0.091066 0.242519
151 1 0.249958 0.994754 0.251484
154 1 0.427118 0.0914906 0.159358
157 1 0.501808 0.00597395 0.157169
179 1 0.418918 0.153976 0.25804
325 1 0.49534 0.167929 0.336979
297 1 0.340453 0.99179 0.311697
155 1 0.410676 0.995352 0.238881
298 1 0.414311 0.0674364 0.322491
160 1 0.488493 0.0765115 0.239754
302 1 0.56923 0.0799277 0.332083
164 1 0.668853 0.0802181 0.264212
305 1 0.660203 0.994745 0.331595
163 1 0.747542 -0.00605926 0.259767
165 1 0.844246 0.00212163 0.162245
306 1 0.750457 0.0726424 0.334801
168 1 0.834413 0.0746302 0.245711
166 1 0.934289 0.0904985 0.169266
167 1 0.912983 0.990629 0.256648
289 1 1.00337 1.00385 0.35105
191 1 0.906321 0.159753 0.254454
310 1 0.915705 0.084159 0.329712
309 1 0.825646 -0.0186053 0.334108
333 1 0.832315 0.162862 0.350837
314 1 0.0832439 0.259162 0.326959
176 1 0.16441 0.249661 0.237342
313 1 1.01596 0.17134 0.354988
337 1 0.00637705 0.32941 0.331419
175 1 0.269031 0.161117 0.248623
318 1 0.261855 0.233961 0.328538
205 1 0.516658 0.336226 0.176394
180 1 0.342448 0.248616 0.238002
184 1 0.50258 0.25516 0.256504
322 1 0.423138 0.249198 0.335966
203 1 0.412677 0.337624 0.239517
349 1 0.504065 0.340628 0.327789
183 1 0.572451 0.165137 0.244249
326 1 0.597285 0.239085 0.330924
188 1 0.672949 0.250485 0.260817
207 1 0.598857 0.335794 0.2595
329 1 0.659323 0.158265 0.349169
353 1 0.67151 0.334669 0.34837
186 1 0.750444 0.237626 0.173528
189 1 0.844304 0.156454 0.14759
187 1 0.748877 0.165416 0.257551
192 1 0.832023 0.245054 0.271493
330 1 0.751633 0.242443 0.33642
172 1 0.990368 0.234462 0.265647
334 1 0.920818 0.24283 0.344022
195 1 0.0918015 0.335168 0.243977
219 1 0.0962673 0.492958 0.245164
338 1 0.106241 0.419015 0.337287
361 1 0.0137499 0.506492 0.335776
198 1 0.259001 0.412377 0.155841
199 1 0.26178 0.325812 0.235321
341 1 0.201466 0.324247 0.337997
200 1 0.188347 0.402187 0.2558
204 1 0.332711 0.411662 0.243721
208 1 0.500969 0.428144 0.235441
206 1 0.59404 0.410471 0.177981
212 1 0.675463 0.419658 0.266447
350 1 0.581148 0.433908 0.335011
357 1 0.844355 0.340683 0.336571
211 1 0.764971 0.332248 0.258562
235 1 0.750494 0.511009 0.253144
216 1 0.835405 0.417158 0.274078
215 1 0.923291 0.335268 0.267149
196 1 0.0123569 0.417547 0.261075
358 1 0.930177 0.42427 0.342955
362 1 0.0895935 0.578845 0.335315
243 1 0.0872747 0.658501 0.254244
224 1 0.175514 0.595153 0.233853
220 1 -0.00129157 0.567139 0.238714
222 1 0.270028 0.599655 0.158569
223 1 0.252617 0.485692 0.254215
228 1 0.327472 0.577388 0.243732
227 1 0.404314 0.505197 0.246717
370 1 0.423818 0.587892 0.330579
232 1 0.506113 0.5827 0.25765
253 1 0.495156 0.666888 0.153107
230 1 0.580232 0.594708 0.161632
231 1 0.589114 0.510392 0.236365
236 1 0.662454 0.589748 0.250303
255 1 0.579812 0.664149 0.244877
374 1 0.57147 0.5944 0.333273
234 1 0.74462 0.57549 0.156398
257 1 0.660054 0.667582 0.162427
401 1 0.660166 0.657763 0.340489
240 1 0.83179 0.585669 0.249408
259 1 0.737987 0.659451 0.243053
238 1 0.916868 0.573188 0.154756
239 1 0.909611 0.501595 0.256695
405 1 0.855721 0.654591 0.340715
263 1 0.933712 0.647678 0.239807
385 1 1.01361 0.661786 0.324288
245 1 0.182704 0.666766 0.156768
269 1 0.177504 0.847016 0.16881
389 1 0.176493 0.659785 0.316428
242 1 0.0897826 0.738089 0.16073
248 1 0.172239 0.740195 0.238268
267 1 0.0758279 0.83985 0.24346
273 1 0.333006 0.830337 0.162479
247 1 0.271915 0.666682 0.243688
393 1 0.337472 0.654496 0.320823
252 1 0.346212 0.756703 0.24754
251 1 0.427135 0.671986 0.246751
250 1 0.420479 0.761923 0.149299
256 1 0.506686 0.750698 0.245639
421 1 0.508511 0.845748 0.348306
260 1 0.647178 0.748851 0.245021
398 1 0.587878 0.759358 0.343932
279 1 0.581135 0.831287 0.256668
264 1 0.826653 0.73387 0.260681
402 1 0.735227 0.741206 0.339444
283 1 0.747787 0.830432 0.249735
244 1 -0.000391849 0.728777 0.245251
406 1 0.914085 0.740495 0.329086
287 1 0.918864 0.833364 0.246768
145 1 0.00912655 0.0119607 0.181415
293 1 0.170795 0.990598 0.340686
147 1 0.10094 0.992444 0.2528
268 1 0.00275711 0.933959 0.254095
272 1 0.17078 0.910212 0.262755
153 1 0.333189 0.000776644 0.164924
149 1 0.164194 1.00301 0.164388
270 1 0.249328 0.921393 0.167459
271 1 0.251435 0.840993 0.24723
276 1 0.337723 0.914929 0.228974
274 1 0.417522 0.897379 0.15745
275 1 0.443443 0.8377 0.243212
418 1 0.421685 0.922433 0.317297
159 1 0.579429 0.0112504 0.246191
301 1 0.499542 0.999276 0.326342
280 1 0.507548 0.928973 0.245348
422 1 0.595462 0.902079 0.341697
425 1 0.680131 0.834359 0.334702
285 1 0.846944 0.82234 0.163355
282 1 0.751524 0.902989 0.144472
284 1 0.67636 0.907914 0.240554
426 1 0.752897 0.910105 0.323389
288 1 0.829016 0.923711 0.232691
430 1 0.90986 0.897018 0.344728
409 1 -0.0039642 0.823816 0.324901
292 1 0.993402 0.0843104 0.435488
315 1 0.115846 0.177526 0.407309
291 1 0.100133 0.990692 0.42226
294 1 0.266099 0.0745705 0.326689
321 1 0.342471 0.152776 0.334628
296 1 0.180841 0.0783796 0.427407
319 1 0.257756 0.169267 0.43089
295 1 0.249142 1.00097 0.402642
300 1 0.337306 0.0717499 0.424813
442 1 0.426272 0.0712983 0.494177
323 1 0.415673 0.152335 0.416213
304 1 0.496903 0.0725309 0.404658
308 1 0.672626 0.0657988 0.416662
473 1 0.66721 0.171087 0.49372
307 1 0.748287 0.991588 0.416935
449 1 0.666291 0.99218 0.512232
450 1 0.754953 0.0823715 0.496257
453 1 0.834497 0.984307 0.505269
312 1 0.832784 0.0792878 0.419359
458 1 0.0910003 0.26428 0.510043
316 1 0.0101252 0.270345 0.421782
317 1 0.172168 0.164245 0.320147
320 1 0.180098 0.262609 0.440607
343 1 0.257236 0.347346 0.439198
462 1 0.268507 0.244339 0.506184
324 1 0.332271 0.242434 0.414676
328 1 0.509911 0.259215 0.40377
327 1 0.568673 0.163318 0.419279
470 1 0.582152 0.236817 0.497447
497 1 0.653903 0.32615 0.493921
332 1 0.669952 0.247877 0.422501
331 1 0.742195 0.164544 0.422923
336 1 0.82705 0.250745 0.42258
474 1 0.751514 0.262075 0.501113
355 1 0.761781 0.340356 0.425736
477 1 0.831887 0.169566 0.492646
335 1 0.914307 0.167822 0.427976
478 1 0.906818 0.262298 0.507175
501 1 0.833999 0.344476 0.502215
339 1 0.104214 0.325382 0.409732
344 1 0.167804 0.416913 0.433321
363 1 0.104219 0.496813 0.408105
340 1 0.0149939 0.427386 0.411491
342 1 0.259176 0.430233 0.343406
345 1 0.316167 0.329154 0.334576
348 1 0.353613 0.411759 0.412101
489 1 0.347138 0.3474 0.496086
346 1 0.421501 0.412754 0.321198
347 1 0.424763 0.330488 0.408653
490 1 0.433474 0.425892 0.500784
373 1 0.493381 0.504059 0.332399
352 1 0.494636 0.416015 0.412352
351 1 0.585087 0.345616 0.413844
375 1 0.574484 0.491533 0.422805
494 1 0.574336 0.428298 0.507986
377 1 0.662049 0.51059 0.330487
354 1 0.759027 0.43183 0.353687
356 1 0.656597 0.416506 0.421989
379 1 0.753577 0.519164 0.422792
360 1 0.852246 0.422912 0.414777
359 1 0.908561 0.340001 0.421446
383 1 0.924442 0.505684 0.404549
365 1 0.167764 0.501399 0.325024
368 1 0.181098 0.584321 0.402444
387 1 0.0937997 0.6477 0.415051
506 1 0.0955532 0.585459 0.503142
529 1 1.00946 0.658654 0.498266
367 1 0.266291 0.505654 0.418188
366 1 0.254321 0.572219 0.33291
369 1 0.344532 0.495327 0.334909
372 1 0.336387 0.598148 0.422455
371 1 0.422685 0.504582 0.421413
376 1 0.494631 0.59978 0.411329
395 1 0.411444 0.673576 0.417878
514 1 0.412436 0.582314 0.494512
518 1 0.584695 0.592442 0.490786
380 1 0.670043 0.581212 0.424029
399 1 0.575248 0.66392 0.410334
381 1 0.833279 0.512255 0.350966
378 1 0.744562 0.586241 0.321801
382 1 0.934382 0.579208 0.329272
364 1 0.00707841 0.574743 0.41426
384 1 0.851036 0.592113 0.431834
407 1 0.941075 0.659766 0.41262
526 1 0.918451 0.576285 0.508646
386 1 0.0894737 0.753442 0.343973
411 1 0.0757095 0.828259 0.419461
530 1 0.0705093 0.741018 0.499776
392 1 0.170796 0.743677 0.42142
553 1 0.996936 0.827918 0.501773
390 1 0.249026 0.742976 0.323761
417 1 0.341643 0.830799 0.316641
391 1 0.253538 0.672787 0.411663
534 1 0.250332 0.746208 0.494911
396 1 0.336298 0.75007 0.406904
394 1 0.424581 0.758324 0.331183
419 1 0.420001 0.853114 0.398899
397 1 0.502755 0.680937 0.331284
400 1 0.503863 0.74522 0.426161
541 1 0.502423 0.666419 0.505893
542 1 0.587374 0.744838 0.506187
404 1 0.668018 0.744983 0.422745
545 1 0.675307 0.667547 0.484737
403 1 0.746571 0.654947 0.411117
408 1 0.836576 0.735967 0.417358
427 1 0.752069 0.823583 0.428003
546 1 0.757202 0.741985 0.501516
429 1 0.827696 0.826335 0.335336
388 1 0.00360968 0.740621 0.419901
550 1 0.919637 0.748747 0.497129
431 1 0.907278 0.820104 0.41428
413 1 0.160253 0.838246 0.348037
410 1 0.0730523 0.908549 0.346538
412 1 0.991115 0.900866 0.403977
554 1 0.0741393 0.907543 0.498898
416 1 0.16798 0.918258 0.421486
414 1 0.267631 0.914684 0.33582
415 1 0.258457 0.808615 0.39961
437 1 0.16532 -0.0126391 0.503395
558 1 0.250774 0.913363 0.496446
299 1 0.416202 0.987175 0.413888
420 1 0.320022 0.91883 0.424659
441 1 0.347641 0.993383 0.495384
562 1 0.408514 0.897505 0.499673
303 1 0.578845 0.0090312 0.411514
423 1 0.592652 0.832351 0.417843
424 1 0.51258 0.920376 0.414075
445 1 0.519312 1.00442 0.492597
566 1 0.58553 0.92377 0.510603
428 1 0.670782 0.914179 0.421132
569 1 0.675309 0.834972 0.511571
573 1 0.83065 0.833413 0.501926
570 1 0.753357 0.916377 0.506587
433 1 -0.0173246 0.979402 0.504373
311 1 0.903573 0.9875 0.41178
432 1 0.825087 0.913999 0.415443
574 1 0.915716 0.896196 0.488381
434 1 0.0849632 0.0771279 0.495663
461 1 0.164764 0.170192 0.494955
436 1 0.989015 0.0805659 0.583199
440 1 0.16789 0.0824448 0.584649
438 1 0.232921 0.0729741 0.510229
605 1 0.175901 0.170126 0.650507
582 1 0.25575 0.0858624 0.657748
609 1 0.33055 0.162889 0.654959
444 1 0.320301 0.0698488 0.581425
467 1 0.421834 0.157902 0.573754
586 1 0.415856 0.0830573 0.668501
446 1 0.605777 0.0842581 0.49504
448 1 0.497043 0.082374 0.577026
452 1 0.66946 0.0874942 0.576627
590 1 0.584719 0.097066 0.65408
617 1 0.680501 0.18932 0.647978
456 1 0.812381 0.0910189 0.591665
594 1 0.735551 0.0939564 0.664827
451 1 0.745059 1.0122 0.578129
454 1 0.903484 0.0739221 0.500052
455 1 0.904435 1.00382 0.594757
598 1 0.904876 0.0874735 0.676099
577 1 0.990079 1.0016 0.664463
457 1 0.00997817 0.187553 0.49126
481 1 -0.00503843 0.353518 0.481572
459 1 0.0855446 0.165688 0.574255
483 1 0.0756947 0.338975 0.58018
602 1 0.0959339 0.253308 0.648803
460 1 1.00185 0.259086 0.58323
485 1 0.174187 0.350075 0.520081
463 1 0.265861 0.159194 0.575839
464 1 0.190936 0.252445 0.574797
487 1 0.273631 0.323461 0.580032
606 1 0.250577 0.261436 0.672058
465 1 0.348138 0.154731 0.504131
468 1 0.352661 0.242081 0.590092
466 1 0.414946 0.249426 0.486671
469 1 0.488671 0.167225 0.492935
472 1 0.489237 0.259312 0.578504
637 1 0.502596 0.331726 0.655572
493 1 0.498768 0.341188 0.494106
471 1 0.576145 0.167201 0.582807
495 1 0.596293 0.339817 0.58352
475 1 0.753778 0.175634 0.58061
641 1 0.676952 0.333542 0.670814
476 1 0.663356 0.251323 0.565465
618 1 0.76384 0.261918 0.669799
499 1 0.744984 0.343783 0.576988
480 1 0.834459 0.263821 0.592007
601 1 -7.76849e-05 0.172327 0.657514
479 1 0.911812 0.185897 0.578525
621 1 0.826799 0.167839 0.664101
503 1 0.920837 0.34347 0.577686
482 1 0.087215 0.422157 0.496715
509 1 0.178737 0.504034 0.50229
505 1 0.0074202 0.505191 0.490782
484 1 0.00506031 0.416512 0.590571
488 1 0.178769 0.421952 0.59054
486 1 0.264514 0.412739 0.516594
511 1 0.270848 0.505921 0.58993
492 1 0.345143 0.416012 0.59136
513 1 0.336564 0.51509 0.509733
491 1 0.42368 0.344007 0.570815
496 1 0.50638 0.425814 0.602005
517 1 0.499096 0.511603 0.495472
500 1 0.649834 0.429589 0.584089
519 1 0.582247 0.510077 0.588944
661 1 0.494459 0.520185 0.658295
498 1 0.746148 0.422808 0.490752
504 1 0.829452 0.431426 0.578569
523 1 0.751528 0.506345 0.576201
525 1 0.835534 0.507261 0.501708
642 1 0.751604 0.426324 0.664122
502 1 0.923603 0.425266 0.504504
527 1 0.919594 0.49563 0.585122
507 1 0.0923019 0.488406 0.582472
531 1 0.0707387 0.672797 0.589038
653 1 0.173443 0.511694 0.660093
673 1 0.987603 0.667491 0.659738
510 1 0.250854 0.604755 0.501627
533 1 0.156972 0.674769 0.501123
512 1 0.173755 0.578628 0.576787
515 1 0.425548 0.502839 0.584025
516 1 0.339698 0.599741 0.585908
537 1 0.342705 0.67234 0.501651
521 1 0.658077 0.499541 0.503601
520 1 0.509419 0.585246 0.58411
524 1 0.671008 0.583137 0.591866
543 1 0.57975 0.662904 0.588979
522 1 0.754497 0.588478 0.497082
547 1 0.75536 0.668646 0.59171
666 1 0.761745 0.582106 0.671854
689 1 0.661697 0.672702 0.653635
549 1 0.839031 0.665799 0.502369
528 1 0.833636 0.577909 0.590321
508 1 -0.00487476 0.582005 0.587784
693 1 0.829047 0.664664 0.684932
536 1 0.162384 0.757211 0.575499
532 1 0.978171 0.752281 0.58446
557 1 0.153794 0.831748 0.498151
535 1 0.246425 0.670865 0.57889
559 1 0.234638 0.834723 0.569528
538 1 0.425186 0.75411 0.495967
539 1 0.417853 0.664989 0.581039
540 1 0.322005 0.74853 0.574425
682 1 0.405078 0.736455 0.665684
544 1 0.504942 0.745772 0.577472
685 1 0.496061 0.669221 0.662711
686 1 0.569039 0.750201 0.675492
548 1 0.666909 0.745993 0.575076
552 1 0.835179 0.750733 0.581122
551 1 0.906071 0.658831 0.586439
694 1 0.910147 0.754878 0.668405
575 1 0.912208 0.832992 0.596872
435 1 0.0696579 -0.0134313 0.572455
555 1 0.076367 0.821867 0.570034
697 1 1.00324 0.837632 0.655943
581 1 0.160608 0.996733 0.649336
560 1 0.156655 0.911537 0.586207
439 1 0.25258 0.986125 0.573949
564 1 0.339096 0.908656 0.57951
561 1 0.310334 0.82589 0.489189
585 1 0.334347 0.985569 0.660933
563 1 0.416031 0.809814 0.579795
443 1 0.403701 0.000972442 0.582414
565 1 0.502894 0.845191 0.492693
567 1 0.576501 0.833254 0.569207
709 1 0.487464 0.827704 0.673945
447 1 0.593172 -0.00282839 0.590284
568 1 0.493367 0.938796 0.568136
571 1 0.743556 0.832426 0.592272
572 1 0.660767 0.906566 0.585838
576 1 0.838119 0.906738 0.587266
556 1 0.998035 0.907827 0.577596
717 1 0.827565 0.835842 0.66862
718 1 0.917662 0.91203 0.676143
578 1 0.0912748 0.0859531 0.658911
579 1 0.0817006 0.00557203 0.733841
580 1 0.000470025 0.0840076 0.744298
603 1 0.0926684 0.169026 0.729611
584 1 0.177568 0.0836614 0.744591
607 1 0.248887 0.17431 0.729611
725 1 0.174897 0.00611709 0.819231
749 1 0.164325 0.177902 0.817022
726 1 0.252468 0.0993587 0.83094
588 1 0.315101 0.0809148 0.74065
592 1 0.504964 0.0881202 0.735472
613 1 0.501067 0.159682 0.656601
611 1 0.411495 0.162976 0.748203
593 1 0.665235 -0.00108884 0.665708
591 1 0.576456 1.0047 0.756987
596 1 0.66876 0.0629496 0.752215
589 1 0.51054 0.00443147 0.660879
600 1 0.825889 0.0867898 0.756176
742 1 0.911314 0.0953616 0.832678
765 1 0.848386 0.171207 0.821634
623 1 0.935226 0.17086 0.746733
625 1 -0.00412331 0.336378 0.662227
604 1 0.00174063 0.246743 0.743598
608 1 0.160263 0.252829 0.738647
612 1 0.322892 0.244125 0.745202
610 1 0.420776 0.229097 0.660902
633 1 0.339698 0.334241 0.664966
616 1 0.494043 0.245841 0.733808
635 1 0.420828 0.328403 0.732179
614 1 0.585866 0.238039 0.657678
615 1 0.589004 0.155454 0.746614
639 1 0.593722 0.329122 0.744343
620 1 0.673293 0.244646 0.738754
619 1 0.7366 0.155368 0.748244
624 1 0.862878 0.251528 0.750021
643 1 0.75354 0.33018 0.754398
622 1 0.924114 0.261243 0.65736
766 1 0.932713 0.257439 0.828533
647 1 0.911477 0.3451 0.746791
645 1 0.830976 0.358344 0.656159
626 1 0.105806 0.423589 0.679707
629 1 0.168986 0.339813 0.660762
627 1 0.0726066 0.342686 0.734853
632 1 0.187174 0.437392 0.741464
651 1 0.0896139 0.508108 0.74235
628 1 1.00537 0.425806 0.738126
630 1 0.272027 0.407662 0.665034
631 1 0.259211 0.338631 0.748715
636 1 0.33642 0.426585 0.747752
634 1 0.433126 0.423059 0.675103
659 1 0.418914 0.502338 0.751108
805 1 0.504083 0.494082 0.826167
778 1 0.426018 0.405096 0.810148
640 1 0.506855 0.418387 0.74596
638 1 0.594543 0.407926 0.667251
663 1 0.582463 0.503074 0.752227
782 1 0.587931 0.412334 0.833484
644 1 0.68026 0.416093 0.74582
665 1 0.671803 0.506744 0.66721
786 1 0.751091 0.410315 0.839874
646 1 0.915978 0.423399 0.664199
669 1 0.839449 0.500842 0.672449
648 1 0.825894 0.408232 0.753159
671 1 0.924439 0.500229 0.747221
790 1 0.914128 0.429338 0.838922
813 1 0.819325 0.492075 0.837466
650 1 0.0879432 0.587988 0.663881
652 1 0.997621 0.591364 0.748584
656 1 0.161903 0.58641 0.743563
649 1 -0.0018781 0.498843 0.665896
794 1 0.0905082 0.585689 0.843378
654 1 0.263561 0.587257 0.658472
657 1 0.345492 0.507051 0.662326
655 1 0.26073 0.510251 0.760489
679 1 0.246952 0.671954 0.747344
825 1 0.338589 0.668121 0.830588
658 1 0.403984 0.596681 0.671536
681 1 0.316014 0.683832 0.669399
660 1 0.336814 0.581339 0.759906
664 1 0.498274 0.577886 0.748475
802 1 0.419988 0.57408 0.834524
662 1 0.587954 0.590526 0.679994
668 1 0.666654 0.575844 0.761759
806 1 0.572409 0.57842 0.834905
667 1 0.748349 0.494427 0.751055
672 1 0.842367 0.57586 0.760879
691 1 0.734044 0.658287 0.739098
810 1 0.748763 0.576367 0.833716
833 1 0.667912 0.661379 0.839455
670 1 0.916841 0.588341 0.66707
695 1 0.91831 0.657161 0.749092
814 1 0.912604 0.569891 0.833107
675 1 0.0749266 0.66782 0.731871
674 1 0.0815775 0.764851 0.664465
818 1 0.0804606 0.771497 0.836411
680 1 0.169831 0.766038 0.749118
676 1 -0.000549191 0.743615 0.739376
677 1 0.170036 0.678463 0.649309
821 1 0.142905 0.683447 0.808954
678 1 0.247298 0.766488 0.662124
822 1 0.238581 0.745651 0.834225
705 1 0.332939 0.826601 0.650806
683 1 0.410094 0.673696 0.756419
684 1 0.324535 0.749692 0.751986
826 1 0.417209 0.743448 0.844001
707 1 0.395612 0.82408 0.748811
687 1 0.594222 0.669112 0.753301
688 1 0.489359 0.765542 0.760364
711 1 0.589722 0.846798 0.741541
713 1 0.652457 0.821031 0.663638
692 1 0.666203 0.750182 0.745905
690 1 0.756658 0.748811 0.660476
834 1 0.745711 0.748997 0.832017
857 1 0.664204 0.83435 0.822629
696 1 0.818357 0.758158 0.752581
719 1 0.909115 0.832381 0.745955
837 1 0.833265 0.666926 0.817436
838 1 0.902547 0.75317 0.819249
699 1 0.0743531 0.83665 0.741479
698 1 0.0806872 0.90489 0.661351
700 1 1.00427 0.910023 0.747831
704 1 0.162008 0.916295 0.744329
841 1 0.976835 0.834486 0.827495
701 1 0.164249 0.834914 0.661913
702 1 0.258647 0.908054 0.653423
703 1 0.264346 0.830534 0.758835
583 1 0.241466 0.99546 0.731434
846 1 0.255544 0.924328 0.817527
706 1 0.418433 0.910668 0.657262
587 1 0.406897 1.00141 0.743837
849 1 0.320329 0.831053 0.844813
708 1 0.334157 0.918813 0.744907
850 1 0.410565 0.918952 0.819925
729 1 0.322432 -0.00310704 0.809316
710 1 0.561926 0.897931 0.650032
733 1 0.494423 1.00421 0.820817
712 1 0.508082 0.915178 0.747991
853 1 0.508743 0.853748 0.842277
716 1 0.669795 0.928363 0.749108
714 1 0.751004 0.910809 0.663149
715 1 0.736269 0.837604 0.749307
595 1 0.753297 1.00567 0.751811
741 1 0.833324 0.00578909 0.834529
597 1 0.823278 0.994005 0.663821
599 1 0.92283 0.0143608 0.750768
720 1 0.824368 0.919144 0.757929
861 1 0.818253 0.834632 0.838019
862 1 0.908725 0.926955 0.838537
2 1 0.098962 0.0719305 0.987932
722 1 0.0820104 0.0797161 0.835967
745 1 0.0169522 0.171734 0.820966
728 1 0.182068 0.0722195 0.919268
753 1 0.324496 0.181275 0.834068
751 1 0.253794 0.18199 0.916763
9 1 0.333174 1.00294 1.0175
727 1 0.264946 -0.00309539 0.905343
730 1 0.39505 0.0844634 0.82396
732 1 0.326203 0.095038 0.920228
10 1 0.417182 0.077277 1.00308
33 1 0.347516 0.169802 0.00112671
755 1 0.416087 0.174574 0.904392
734 1 0.580245 0.0787839 0.828041
736 1 0.495842 0.089456 0.909253
740 1 0.656823 0.0960137 0.913987
737 1 0.66548 -0.0041725 0.830713
759 1 0.578878 0.168115 0.905517
738 1 0.737426 0.0885776 0.83791
744 1 0.831547 0.0928116 0.908601
739 1 0.756708 0.0128178 0.924979
724 1 0.000537593 0.0888798 0.907528
22 1 0.912325 0.0939522 0.972168
767 1 0.919318 0.178803 0.907378
747 1 0.0964641 0.162419 0.920026
746 1 0.0889782 0.263333 0.82043
771 1 0.0848021 0.351083 0.91421
769 1 0.00312831 0.34622 0.821066
750 1 0.241831 0.247659 0.828005
30 1 0.252684 0.257268 0.999989
752 1 0.156778 0.25794 0.912677
754 1 0.425489 0.24932 0.821819
756 1 0.329841 0.252277 0.912483
757 1 0.509117 0.169347 0.82489
758 1 0.586852 0.259531 0.82933
760 1 0.506471 0.245527 0.908681
761 1 0.666174 0.169703 0.828586
762 1 0.758145 0.243663 0.821522
785 1 0.676659 0.323311 0.826411
763 1 0.738419 0.173756 0.917397
764 1 0.654199 0.244695 0.914722
42 1 0.74927 0.251068 0.00398433
787 1 0.746227 0.332233 0.915578
69 1 0.827039 0.330935 1.00484
748 1 0.00752362 0.258367 0.91409
789 1 0.855764 0.338997 0.837161
768 1 0.850203 0.247508 0.908043
791 1 0.932424 0.3339 0.922664
50 1 0.0861734 0.4125 0.0101337
770 1 0.0911563 0.411512 0.810344
772 1 0.997992 0.427501 0.901619
73 1 -0.00161345 0.496533 -0.0041516
57 1 0.338914 0.335294 0.991429
774 1 0.259277 0.414108 0.833369
53 1 0.176509 0.337266 1.00001
773 1 0.172257 0.331613 0.83414
54 1 0.261751 0.422098 0.989391
775 1 0.253506 0.323112 0.922258
776 1 0.166863 0.419683 0.894458
780 1 0.35333 0.399023 0.903198
777 1 0.342953 0.32825 0.8193
801 1 0.331739 0.509476 0.841493
779 1 0.424263 0.324609 0.897949
783 1 0.578734 0.324081 0.914727
781 1 0.504779 0.335283 0.82831
784 1 0.505012 0.401255 0.915685
788 1 0.668306 0.407791 0.920578
89 1 0.668624 0.49168 -0.00493871
66 1 0.759613 0.422473 1.00291
70 1 0.924178 0.407801 0.00107115
93 1 0.846003 0.499213 0.0084017
792 1 0.838433 0.409748 0.924847
815 1 0.903187 0.496973 0.914639
74 1 0.0983595 0.580218 1.01363
795 1 0.086081 0.48936 0.924436
793 1 0.0104586 0.502534 0.82424
800 1 0.167084 0.582451 0.926157
796 1 1.00296 0.575263 0.90582
77 1 0.176701 0.500367 0.993932
797 1 0.163916 0.511597 0.836996
799 1 0.255365 0.50449 0.909162
798 1 0.243983 0.595348 0.845652
81 1 0.339715 0.504558 0.00234975
82 1 0.432581 0.5675 0.996343
803 1 0.430003 0.485293 0.904404
804 1 0.331462 0.594587 0.914442
808 1 0.497882 0.579492 0.920571
807 1 0.590648 0.478001 0.92457
90 1 0.742155 0.575365 0.00741445
811 1 0.73901 0.498802 0.917016
809 1 0.667689 0.487288 0.833787
812 1 0.667278 0.585503 0.912815
94 1 0.924256 0.567225 0.00971836
816 1 0.809743 0.571981 0.926181
817 1 0.00122908 0.659432 0.839463
98 1 0.0851141 0.757462 0.999985
819 1 0.0757159 0.661969 0.940152
824 1 0.160167 0.758403 0.914838
101 1 0.185197 0.680706 -0.00594349
823 1 0.248332 0.676004 0.920421
827 1 0.416487 0.658455 0.924252
828 1 0.325181 0.745955 0.913595
129 1 0.339358 0.843272 0.990369
851 1 0.417174 0.835555 0.917622
829 1 0.495837 0.667354 0.82839
831 1 0.577468 0.664384 0.926978
832 1 0.509736 0.751676 0.918376
830 1 0.578403 0.750698 0.834968
855 1 0.597406 0.824477 0.922212
114 1 0.746679 0.740619 1.00166
835 1 0.750821 0.660169 0.911057
836 1 0.659273 0.742445 0.917038
859 1 0.748341 0.81914 0.92228
117 1 0.83268 0.649957 -0.00640458
118 1 0.902756 0.748622 0.984109
141 1 0.825883 0.841524 -0.000138528
820 1 0.996851 0.75747 0.898201
840 1 0.827221 0.733865 0.905769
839 1 0.921215 0.656493 0.908131
842 1 0.0745486 0.912896 0.824845
721 1 1.00461 -0.00867604 0.811667
843 1 0.0633824 0.850779 0.911389
723 1 0.0893519 0.988793 0.909245
844 1 0.996997 0.928064 0.911485
845 1 0.173621 0.857586 0.831011
847 1 0.242189 0.837244 0.913393
848 1 0.161069 0.893409 0.930212
852 1 0.33517 0.916833 0.908908
130 1 0.423794 0.936524 0.000497718
731 1 0.408972 1.01061 0.901016
854 1 0.589168 0.912218 0.832754
735 1 0.585833 -0.00255526 0.909225
856 1 0.481869 0.932675 0.908574
21 1 0.84292 0.993044 0.997738
138 1 0.757387 0.931817 1.00412
858 1 0.747209 0.939311 0.850856
860 1 0.67501 0.903754 0.921083
864 1 0.841077 0.902286 0.917955
142 1 0.92487 0.913114 0.00667254
743 1 0.911335 0.00138149 0.914542
863 1 0.911398 0.830284 0.909058
