ITEM: TIMESTEP
10000
ITEM: NUMBER OF ATOMS
864
ITEM: BOX BOUNDS pp pp pp
0.0000000000000000e+00 3.1559999999999999e+01
0.0000000000000000e+00 3.1559999999999999e+01
0.0000000000000000e+00 3.1559999999999999e+01
ITEM: ATOMS id type xs ys zs
8 1 0.186698 0.0729867 0.0826117
3 1 0.0961072 -0.00811723 0.0899226
2 1 0.0850977 0.0938277 0.0276264
27 1 0.0759394 0.178627 0.0891085
146 1 0.0961511 0.0956351 0.150856
149 1 0.171095 -0.00094393 0.169742
5 1 0.168508 0.00264957 0.98495
7 1 0.25372 0.981512 0.0791897
6 1 0.245311 0.0794228 0.990413
31 1 0.270542 0.16094 0.0720828
9 1 0.344577 0.00713033 1.00705
12 1 0.329548 0.0785789 0.0924736
10 1 0.409889 0.0873309 0.989069
11 1 0.421273 -0.00513773 0.0839547
16 1 0.512431 0.0783965 0.06436
39 1 0.59268 0.158674 0.0814788
158 1 0.583172 0.078659 0.158832
20 1 0.665135 0.0757202 0.0756483
162 1 0.754385 0.0759001 0.160901
19 1 0.734806 0.988699 0.0736359
43 1 0.755901 0.159102 0.0860836
24 1 0.843641 0.0984888 0.0910241
21 1 0.828033 1.00158 0.0143387
4 1 -0.00776708 0.0823908 0.0849921
23 1 0.93682 -0.00899598 0.0706526
32 1 0.165945 0.256686 0.0703134
26 1 0.0781471 0.246812 -0.00558829
28 1 1.00694 0.264993 0.0856515
29 1 0.179932 0.168891 1.00878
51 1 0.0765253 0.347141 0.075066
170 1 0.0848915 0.26456 0.161923
30 1 0.255874 0.259023 0.996167
36 1 0.323983 0.273505 0.0695566
55 1 0.238665 0.335399 0.0673248
57 1 0.336978 0.330281 0.985161
35 1 0.413891 0.176031 0.0716516
40 1 0.504299 0.249613 0.0814594
59 1 0.424166 0.341682 0.0731429
181 1 0.497132 0.16302 0.163954
63 1 0.574401 0.336034 0.0874977
44 1 0.677205 0.236998 0.0797328
67 1 0.763078 0.335318 0.0851986
185 1 0.67587 0.152452 0.163511
47 1 0.931322 0.171767 0.0939204
48 1 0.84574 0.24743 0.0933075
71 1 0.918067 0.329969 0.0822507
56 1 0.172053 0.418627 0.0720614
52 1 -0.00417079 0.417546 0.0801916
193 1 -0.00229956 0.346747 0.171169
50 1 0.0852161 0.425949 0.987147
53 1 0.151684 0.339451 0.98862
198 1 0.268697 0.406496 0.158671
60 1 0.346655 0.412379 0.06193
77 1 0.164354 0.50135 0.983717
83 1 0.41048 0.503921 0.0657399
64 1 0.502269 0.410218 0.0825037
68 1 0.671257 0.408872 0.0916302
87 1 0.575692 0.511257 0.083037
62 1 0.594797 0.412454 0.00582726
210 1 0.766565 0.408453 0.163892
91 1 0.753404 0.487552 0.0859441
233 1 0.6712 0.500586 0.152267
213 1 0.823529 0.328709 0.179096
72 1 0.84844 0.414948 0.0776021
214 1 0.92171 0.409865 0.154347
95 1 0.922575 0.490475 0.0758305
70 1 0.919943 0.418025 1.00209
69 1 0.829983 0.32345 0.999401
75 1 0.0828352 0.502109 0.0719593
80 1 0.172101 0.580313 0.066255
76 1 0.990129 0.584566 0.0811236
218 1 0.076678 0.565265 0.153653
221 1 0.175445 0.497498 0.153728
73 1 1.00114 0.502828 1.00857
79 1 0.24899 0.507499 0.0756306
103 1 0.255562 0.664417 0.082544
222 1 0.259075 0.571493 0.172765
84 1 0.331623 0.579517 0.0821243
107 1 0.41664 0.660207 0.069659
253 1 0.508644 0.659554 0.146795
82 1 0.41297 0.582925 0.99754
88 1 0.501558 0.589638 0.0728884
111 1 0.601272 0.654286 0.0758381
257 1 0.681885 0.664404 0.160952
237 1 0.847559 0.482229 0.167974
92 1 0.678705 0.58404 0.0779141
234 1 0.775228 0.569682 0.158898
96 1 0.848923 0.58425 0.0751643
217 1 1.00433 0.49365 0.160992
238 1 0.921902 0.570575 0.177075
99 1 0.0650804 0.652098 0.0899802
242 1 0.0949962 0.749114 0.168625
100 1 1.0001 0.735655 0.112177
241 1 -0.0077268 0.651205 0.177886
104 1 0.182653 0.760201 0.0748066
246 1 0.250376 0.74287 0.160662
108 1 0.333854 0.751511 0.0854513
245 1 0.160547 0.672857 0.140482
249 1 0.329426 0.655487 0.170974
277 1 0.525425 0.831285 0.168662
273 1 0.339587 0.826004 0.172671
250 1 0.421364 0.7467 0.148612
112 1 0.520976 0.751336 0.0788884
254 1 0.584402 0.735011 0.162718
115 1 0.754909 0.667504 0.0763557
261 1 0.83409 0.663088 0.161259
116 1 0.674814 0.74948 0.0927471
258 1 0.759019 0.766898 0.166405
139 1 0.756674 0.843643 0.0843776
281 1 0.657647 0.848754 0.16887
285 1 0.840946 0.834846 0.177662
119 1 0.908375 0.671147 0.0880675
120 1 0.846115 0.766432 0.0874142
262 1 0.914375 0.732257 0.167528
143 1 0.935682 0.829413 0.0699015
123 1 0.0927617 0.834938 0.0803947
266 1 0.0831249 0.904935 0.163355
122 1 0.0953106 0.935432 0.993458
127 1 0.272097 0.831876 0.0717145
128 1 0.172989 0.910877 0.0906834
132 1 0.350223 0.910608 0.0881713
269 1 0.170985 0.828152 0.1832
270 1 0.265787 0.905025 0.173621
131 1 0.423802 0.824162 0.0770245
274 1 0.417705 0.918635 0.166573
136 1 0.498168 0.907683 0.0830198
157 1 0.498365 1.00855 0.161044
15 1 0.601005 0.996589 0.0781634
135 1 0.593367 0.816888 0.0837273
278 1 0.588251 0.920369 0.149489
140 1 0.666292 0.900078 0.0742261
17 1 0.663224 0.995526 0.977145
161 1 0.6653 1.01214 0.165624
144 1 0.859197 0.913443 0.0667592
165 1 0.831949 -0.012263 0.138587
124 1 0.00897887 0.925335 0.0788723
286 1 0.9128 0.924836 0.172238
152 1 0.165304 0.0863889 0.257856
153 1 0.336504 0.990802 0.163094
177 1 0.341604 0.177079 0.175349
150 1 0.240376 0.0856215 0.170356
294 1 0.260833 0.0807299 0.325599
151 1 0.247263 -0.00327297 0.258091
154 1 0.412369 0.0804696 0.170428
156 1 0.340336 0.0860184 0.250977
160 1 0.511658 0.0928946 0.234978
179 1 0.427954 0.16568 0.247662
298 1 0.427527 0.0899673 0.324368
159 1 0.587886 0.993432 0.248594
302 1 0.583509 0.0854787 0.324349
305 1 0.65606 0.00772661 0.331366
183 1 0.587487 0.162515 0.233591
164 1 0.657028 0.0800687 0.243609
187 1 0.747757 0.147561 0.241474
166 1 0.917805 0.0728011 0.157316
189 1 0.842138 0.17422 0.164063
333 1 0.841771 0.156339 0.334929
148 1 -0.0092448 0.0839519 0.237615
168 1 0.841071 0.0832513 0.240137
310 1 0.92191 0.06814 0.335077
171 1 0.0888943 0.174567 0.239237
172 1 0.995359 0.260416 0.244764
314 1 0.0893864 0.252767 0.323851
169 1 0.00761017 0.18039 0.176662
173 1 0.1675 0.18121 0.149022
174 1 0.256461 0.259974 0.162834
175 1 0.252829 0.168123 0.246241
176 1 0.16978 0.242632 0.239541
180 1 0.329774 0.244773 0.257447
178 1 0.430694 0.246534 0.162785
321 1 0.343698 0.167261 0.330387
184 1 0.494177 0.250196 0.249028
203 1 0.428508 0.333144 0.253754
182 1 0.583782 0.241836 0.158424
207 1 0.586662 0.330011 0.225834
326 1 0.584106 0.245654 0.305748
349 1 0.510561 0.324577 0.337438
186 1 0.752357 0.24564 0.176226
209 1 0.664236 0.335238 0.156098
353 1 0.650987 0.333981 0.332382
188 1 0.664408 0.252154 0.239065
192 1 0.839733 0.247912 0.257719
211 1 0.738529 0.359451 0.252834
329 1 0.676224 0.168721 0.331958
190 1 0.913035 0.264239 0.167516
191 1 0.92301 0.174087 0.260633
197 1 0.164554 0.332197 0.169683
194 1 0.0871278 0.424129 0.151757
195 1 0.0923057 0.344522 0.23984
200 1 0.168419 0.425482 0.244243
337 1 1.00562 0.32592 0.337618
201 1 0.348674 0.314962 0.175737
199 1 0.251019 0.32628 0.258092
342 1 0.258954 0.417436 0.334948
202 1 0.40787 0.41613 0.159427
204 1 0.331837 0.428488 0.250835
227 1 0.43228 0.494609 0.251806
205 1 0.497139 0.329032 0.164951
206 1 0.574202 0.426875 0.158837
208 1 0.500575 0.413237 0.24142
350 1 0.588081 0.420205 0.316505
231 1 0.582044 0.505325 0.230098
212 1 0.654604 0.427725 0.226848
354 1 0.740227 0.419069 0.340346
216 1 0.826327 0.424414 0.254617
196 1 0.995235 0.420605 0.249258
357 1 0.824938 0.334183 0.32546
215 1 0.904602 0.340951 0.237449
239 1 0.913693 0.497135 0.250357
219 1 0.0938382 0.504112 0.250257
224 1 0.164066 0.588295 0.232821
365 1 0.170201 0.498854 0.339209
362 1 0.0922097 0.580431 0.322665
223 1 0.250235 0.500798 0.261265
228 1 0.339377 0.568139 0.247618
225 1 0.337719 0.497742 0.150242
226 1 0.426638 0.583397 0.165093
369 1 0.331615 0.497005 0.340363
232 1 0.518608 0.598618 0.247661
251 1 0.424751 0.653346 0.23842
373 1 0.523333 0.505444 0.344707
230 1 0.588637 0.586384 0.155405
229 1 0.494628 0.502254 0.156932
236 1 0.678314 0.580213 0.251109
255 1 0.603154 0.669541 0.254687
374 1 0.589922 0.585913 0.331217
377 1 0.65989 0.503675 0.343051
235 1 0.734908 0.489717 0.250598
378 1 0.756122 0.580087 0.338707
240 1 0.831551 0.574746 0.250815
259 1 0.754653 0.671612 0.244392
220 1 1.00369 0.564856 0.250023
263 1 0.911035 0.658189 0.248559
405 1 0.834653 0.662408 0.329628
361 1 -0.0108829 0.494327 0.327249
382 1 0.908795 0.585644 0.332261
243 1 0.0890654 0.664014 0.231933
248 1 0.174284 0.739518 0.246703
386 1 0.0892514 0.748236 0.333617
247 1 0.256011 0.657427 0.250461
252 1 0.351911 0.745153 0.244921
390 1 0.265432 0.735895 0.32488
275 1 0.424479 0.832425 0.234516
421 1 0.502053 0.839172 0.337514
394 1 0.411264 0.756172 0.331104
256 1 0.483951 0.739466 0.236648
260 1 0.673748 0.753943 0.248678
401 1 0.677557 0.654585 0.330149
283 1 0.752238 0.846275 0.240696
402 1 0.752817 0.745233 0.326217
264 1 0.833149 0.757 0.249249
429 1 0.824732 0.839773 0.320779
244 1 0.00916148 0.749092 0.245217
406 1 0.928325 0.75214 0.321175
287 1 0.920924 0.834845 0.249129
409 1 -5.44067e-05 0.830082 0.33439
385 1 1.00292 0.651028 0.315093
145 1 1.01315 0.00197499 0.163434
267 1 0.0709613 0.83344 0.254704
147 1 0.0754846 0.012576 0.245131
272 1 0.151617 0.912922 0.250522
293 1 0.165088 1.00603 0.336847
413 1 0.174864 0.818209 0.328353
410 1 0.0870601 0.918738 0.321476
297 1 0.337777 0.00873395 0.325708
417 1 0.341877 0.836557 0.319804
271 1 0.25866 0.817272 0.240877
414 1 0.245825 0.905074 0.319814
276 1 0.332631 0.923956 0.254736
155 1 0.418476 9.03615e-05 0.251989
280 1 0.51388 0.915468 0.239043
301 1 0.507391 0.0055244 0.32334
418 1 0.426577 0.909781 0.317866
279 1 0.587909 0.824733 0.253944
422 1 0.586477 0.912758 0.327631
284 1 0.678085 0.927387 0.2534
282 1 0.746223 0.923112 0.163207
163 1 0.759701 0.0130468 0.258576
425 1 0.676973 0.843332 0.333411
265 1 0.9897 0.84544 0.162137
309 1 0.839041 0.988966 0.342892
268 1 0.0110964 0.925439 0.249858
167 1 0.925431 -0.00012933 0.253885
288 1 0.829221 0.930988 0.251274
289 1 0.0113244 0.999775 0.341108
290 1 0.0975948 0.081574 0.349391
317 1 0.167075 0.174606 0.331128
292 1 0.00995843 0.0781819 0.412839
296 1 0.187397 0.0774297 0.40785
315 1 0.0780758 0.173761 0.415696
438 1 0.24568 0.0713193 0.498819
319 1 0.25735 0.159721 0.405433
437 1 0.168042 0.994914 0.504226
300 1 0.328872 0.0789204 0.425598
323 1 0.416379 0.15715 0.410013
299 1 0.410609 0.0162475 0.404823
465 1 0.328682 0.167937 0.497789
441 1 0.334621 0.99848 0.49817
304 1 0.501892 0.0851121 0.397094
303 1 0.578227 0.00348637 0.407227
308 1 0.66705 0.0876235 0.414714
306 1 0.75943 0.0879842 0.329847
331 1 0.742407 0.170723 0.413899
307 1 0.739681 -0.00107972 0.408919
453 1 0.831526 1.0048 0.487074
312 1 0.844305 0.0739379 0.403679
454 1 0.913681 0.0808403 0.482146
313 1 0.0140848 0.156824 0.315212
316 1 1.00949 0.247304 0.415405
458 1 0.0882491 0.26649 0.500715
318 1 0.249839 0.24789 0.333658
320 1 0.169436 0.244685 0.411392
343 1 0.248902 0.331344 0.391309
322 1 0.434164 0.239762 0.342092
324 1 0.338482 0.248584 0.408948
327 1 0.591244 0.185412 0.399685
325 1 0.510983 0.168862 0.324131
328 1 0.499652 0.257539 0.432314
332 1 0.674276 0.258942 0.431059
470 1 0.580896 0.258932 0.513495
330 1 0.747097 0.273046 0.32326
474 1 0.756757 0.249311 0.489833
336 1 0.833298 0.242449 0.406758
355 1 0.766822 0.331838 0.42343
334 1 0.919173 0.253979 0.329952
335 1 0.930286 0.154485 0.397298
478 1 0.918554 0.262416 0.476588
501 1 0.830776 0.341459 0.501688
339 1 0.0956511 0.331654 0.40961
338 1 0.0951036 0.417707 0.333322
340 1 0.999642 0.422022 0.404412
505 1 -0.0177273 0.486048 0.481167
341 1 0.16005 0.3321 0.313169
345 1 0.349853 0.336967 0.327967
344 1 0.165612 0.417536 0.417051
486 1 0.257209 0.398687 0.488097
485 1 0.167135 0.332644 0.488454
348 1 0.338033 0.406326 0.404656
346 1 0.423074 0.411007 0.349618
347 1 0.429718 0.327778 0.415374
490 1 0.420949 0.423324 0.485429
352 1 0.512712 0.417003 0.416345
351 1 0.578704 0.333179 0.421068
356 1 0.656531 0.42028 0.408579
493 1 0.49912 0.342435 0.505303
494 1 0.594476 0.409163 0.500681
498 1 0.741432 0.41535 0.510274
360 1 0.828007 0.420938 0.432078
379 1 0.739272 0.490437 0.425215
497 1 0.672172 0.332436 0.496199
381 1 0.819987 0.499173 0.327
358 1 0.906728 0.41048 0.331196
359 1 0.904855 0.334809 0.403627
502 1 0.923934 0.406549 0.501709
525 1 0.837898 0.50917 0.503591
363 1 0.0705763 0.494436 0.413711
387 1 0.0674048 0.661039 0.411026
509 1 0.153352 0.502973 0.494491
368 1 0.164014 0.57588 0.420323
366 1 0.258647 0.58571 0.337186
393 1 0.346568 0.643759 0.327453
367 1 0.25407 0.500677 0.415775
510 1 0.235626 0.591204 0.510919
537 1 0.330805 0.65391 0.483386
513 1 0.331916 0.498358 0.492801
370 1 0.431368 0.561828 0.325073
371 1 0.429835 0.497559 0.410456
372 1 0.349313 0.573382 0.404114
514 1 0.415749 0.566664 0.497356
375 1 0.57888 0.49854 0.428454
376 1 0.511125 0.575933 0.417758
517 1 0.502989 0.496173 0.511317
518 1 0.577917 0.583892 0.505718
399 1 0.590217 0.682226 0.42236
521 1 0.655145 0.512591 0.497566
380 1 0.671485 0.586886 0.420573
403 1 0.752041 0.666576 0.416415
522 1 0.753431 0.589184 0.504164
383 1 0.903252 0.510626 0.409694
364 1 0.994411 0.571752 0.410686
384 1 0.827783 0.592481 0.413136
407 1 0.93571 0.662659 0.398879
526 1 0.924736 0.585901 0.499708
389 1 0.168108 0.677102 0.331347
530 1 0.0807196 0.755878 0.499456
391 1 0.246624 0.660127 0.410976
392 1 0.181143 0.749416 0.404935
396 1 0.337483 0.746128 0.410761
395 1 0.413533 0.657408 0.414106
419 1 0.421329 0.846494 0.398083
538 1 0.407171 0.759828 0.486643
398 1 0.575888 0.729174 0.330367
541 1 0.493866 0.671734 0.489268
397 1 0.490066 0.655846 0.345233
400 1 0.48648 0.743453 0.409968
542 1 0.576635 0.752504 0.48814
404 1 0.671204 0.752721 0.399701
546 1 0.755984 0.741219 0.498825
408 1 0.839011 0.744337 0.40248
549 1 0.840756 0.671347 0.497394
388 1 1.01108 0.751519 0.417544
431 1 0.910046 0.828421 0.402
550 1 0.915187 0.739389 0.502807
291 1 0.0943067 -0.00931376 0.414592
411 1 0.0805927 0.8345 0.423273
416 1 0.177134 0.912038 0.411564
554 1 0.0922825 0.918588 0.486787
295 1 0.253476 0.993432 0.414011
415 1 0.259913 0.827689 0.397613
420 1 0.344761 0.931259 0.408054
562 1 0.434624 0.950994 0.487438
561 1 0.333508 0.848104 0.481877
445 1 0.523267 0.0213213 0.487213
424 1 0.499423 0.924425 0.399111
423 1 0.586176 0.827789 0.4177
428 1 0.665283 0.930909 0.418744
566 1 0.56812 0.91161 0.488856
426 1 0.753836 0.918115 0.344181
427 1 0.746728 0.832072 0.421485
432 1 0.836322 0.922223 0.42726
430 1 0.931969 0.918082 0.334963
433 1 0.0182759 -0.00636178 0.485379
412 1 0.0111747 0.915616 0.406436
311 1 0.928569 0.997716 0.419328
574 1 0.935841 0.907538 0.480059
461 1 0.162855 0.162744 0.492888
434 1 0.0805379 0.0863627 0.500934
436 1 -0.00366618 0.0858601 0.583442
459 1 0.0765913 0.171024 0.585065
581 1 0.15403 0.00841742 0.678099
440 1 0.160139 0.0949727 0.578939
435 1 0.092827 1.00198 0.591658
601 1 0.995041 0.164559 0.669035
577 1 0.992509 0.992461 0.658646
439 1 0.25084 0.0109723 0.585004
463 1 0.239503 0.162361 0.564639
469 1 0.499202 0.162773 0.487153
442 1 0.422954 0.0757704 0.494763
444 1 0.330968 0.100156 0.5738
586 1 0.430243 0.0834775 0.650719
467 1 0.432889 0.166234 0.579702
613 1 0.513287 0.170731 0.6671
609 1 0.345529 0.171016 0.652932
446 1 0.589166 0.106245 0.492627
448 1 0.508838 0.0786623 0.57259
590 1 0.600093 0.0828488 0.6612
471 1 0.586138 0.168808 0.57633
450 1 0.761122 0.0906322 0.485281
452 1 0.664801 0.0858653 0.565856
597 1 0.828352 0.0108593 0.650291
456 1 0.853113 0.0832931 0.562835
598 1 0.922679 0.0864814 0.671855
605 1 0.166059 0.173476 0.675147
602 1 0.0963236 0.262175 0.658605
460 1 1.00839 0.253074 0.590186
462 1 0.249714 0.243053 0.4669
464 1 0.163969 0.237253 0.578164
487 1 0.240936 0.325812 0.565774
629 1 0.180026 0.338985 0.657279
606 1 0.254321 0.256684 0.654129
633 1 0.33972 0.332457 0.643
489 1 0.334962 0.321222 0.487055
466 1 0.426383 0.250691 0.497705
468 1 0.345061 0.261658 0.565962
610 1 0.407774 0.260339 0.658621
473 1 0.663943 0.180564 0.499749
472 1 0.489137 0.252846 0.578744
476 1 0.677498 0.251095 0.576945
637 1 0.489742 0.330981 0.655802
475 1 0.753936 0.159957 0.5671
618 1 0.759878 0.248912 0.667395
641 1 0.670045 0.325024 0.667215
457 1 0.990637 0.17416 0.491446
477 1 0.84349 0.172914 0.489297
479 1 0.917643 0.168357 0.576095
625 1 1.01036 0.33269 0.675634
480 1 0.828866 0.250221 0.571147
503 1 0.914174 0.328385 0.578007
482 1 0.0701216 0.406356 0.493013
483 1 0.0878351 0.342339 0.582497
481 1 1.00217 0.325976 0.506533
484 1 -0.00223954 0.41033 0.584309
649 1 0.00209365 0.502393 0.676038
488 1 0.174499 0.423997 0.583831
492 1 0.323875 0.405342 0.567494
630 1 0.263672 0.411962 0.674852
491 1 0.413096 0.347541 0.565562
634 1 0.408465 0.411361 0.662784
495 1 0.583204 0.341659 0.587601
496 1 0.486465 0.42239 0.580038
638 1 0.587329 0.421569 0.681573
500 1 0.674942 0.408729 0.591583
665 1 0.670616 0.503609 0.66549
499 1 0.750593 0.322963 0.588981
642 1 0.747907 0.408297 0.661371
523 1 0.742074 0.498024 0.573007
504 1 0.837367 0.411377 0.583796
527 1 0.933427 0.500408 0.59009
645 1 0.842336 0.335949 0.66509
506 1 0.07359 0.597362 0.493772
529 1 -0.00670319 0.678582 0.508346
507 1 0.0721613 0.511887 0.579231
531 1 0.0779751 0.656294 0.58364
512 1 0.169286 0.574742 0.603534
511 1 0.257836 0.502197 0.584309
654 1 0.254292 0.591545 0.678507
535 1 0.253444 0.669055 0.585106
657 1 0.317859 0.508651 0.668205
516 1 0.337325 0.586843 0.586387
515 1 0.404809 0.499032 0.591979
658 1 0.412114 0.60719 0.662768
519 1 0.579674 0.487669 0.590779
520 1 0.4759 0.578611 0.575874
662 1 0.581222 0.563937 0.662074
661 1 0.502039 0.489733 0.671353
545 1 0.668082 0.664906 0.488401
524 1 0.661736 0.580657 0.585634
528 1 0.845363 0.577579 0.584655
508 1 -0.00746792 0.589633 0.579168
551 1 0.919909 0.680365 0.578842
533 1 0.174843 0.689416 0.492171
553 1 0.98966 0.817421 0.50157
532 1 0.00390986 0.767096 0.591334
674 1 0.0741571 0.733109 0.666999
697 1 0.988542 0.863208 0.657465
673 1 0.980148 0.661117 0.669365
536 1 0.157314 0.75311 0.588392
534 1 0.272262 0.752118 0.488823
681 1 0.327011 0.673161 0.675085
559 1 0.265058 0.835538 0.57938
565 1 0.477445 0.84178 0.485878
539 1 0.408059 0.664886 0.575586
540 1 0.331387 0.747586 0.577601
682 1 0.422583 0.757193 0.649726
543 1 0.579881 0.684854 0.585022
685 1 0.48816 0.673844 0.639461
544 1 0.493221 0.756045 0.567157
686 1 0.593461 0.764832 0.65958
548 1 0.670146 0.756167 0.573846
547 1 0.744165 0.671887 0.572445
690 1 0.750523 0.747396 0.651077
573 1 0.837964 0.818504 0.478953
552 1 0.834477 0.745427 0.58242
555 1 0.0808092 0.844954 0.579215
556 1 0.00637354 0.927455 0.568104
560 1 0.173782 0.915088 0.571558
557 1 0.185272 0.828946 0.493263
558 1 0.252358 0.923329 0.504323
564 1 0.333294 0.9117 0.56977
701 1 0.182214 0.832378 0.66995
443 1 0.424706 0.997177 0.582703
563 1 0.418607 0.845069 0.576228
568 1 0.508087 0.928607 0.573112
449 1 0.658419 0.0140059 0.490834
569 1 0.665327 0.835634 0.49404
567 1 0.569883 0.839929 0.57985
447 1 0.593398 -0.00221335 0.582616
572 1 0.653134 0.914106 0.577083
451 1 0.742589 0.00373927 0.553405
571 1 0.744162 0.828418 0.577701
570 1 0.745932 0.909378 0.498122
714 1 0.750552 0.92244 0.652812
575 1 0.903831 0.835687 0.577686
455 1 0.917344 0.997615 0.554648
576 1 0.827776 0.91195 0.560274
718 1 0.902921 0.927794 0.63945
578 1 0.0775884 0.0962417 0.658727
579 1 0.0802686 0.00221554 0.751966
582 1 0.248854 0.0915751 0.660188
584 1 0.165899 0.0870594 0.753741
588 1 0.345838 0.079536 0.713959
730 1 0.416376 0.0739895 0.83801
611 1 0.410026 0.161524 0.746067
587 1 0.421317 0.0116764 0.740633
592 1 0.511642 0.0851969 0.732314
591 1 0.588787 0.0139231 0.747129
615 1 0.58905 0.184933 0.756771
734 1 0.582456 0.0959453 0.82781
594 1 0.746053 0.0925537 0.651705
596 1 0.666809 0.0872447 0.768206
617 1 0.659534 0.18996 0.651083
600 1 0.82953 0.0830549 0.724415
580 1 0.998299 0.0681543 0.751449
599 1 0.918464 0.980512 0.743667
603 1 0.0780384 0.161591 0.749383
608 1 0.162464 0.260809 0.745763
604 1 0.00275244 0.243412 0.747281
769 1 0.988209 0.328345 0.822671
746 1 0.0839002 0.251185 0.835549
607 1 0.256087 0.174917 0.738724
612 1 0.33065 0.252457 0.738005
750 1 0.257382 0.247701 0.824106
616 1 0.50443 0.255518 0.743765
754 1 0.433892 0.251166 0.815396
781 1 0.51037 0.331482 0.838306
761 1 0.670731 0.184428 0.82293
614 1 0.57681 0.263889 0.65979
758 1 0.597999 0.269026 0.830152
621 1 0.842558 0.166262 0.653256
620 1 0.680009 0.255244 0.741594
619 1 0.746564 0.166466 0.743478
624 1 0.833902 0.254627 0.747499
762 1 0.756169 0.246346 0.840388
622 1 0.909634 0.250136 0.660028
623 1 0.916925 0.169974 0.749804
626 1 0.0810536 0.428461 0.659194
627 1 0.0873524 0.337114 0.75243
628 1 0.00345321 0.413099 0.743641
651 1 0.0878872 0.496464 0.760461
770 1 0.0740065 0.417132 0.838323
793 1 -0.00564882 0.506613 0.83073
631 1 0.252785 0.326048 0.749327
632 1 0.181063 0.422976 0.753497
774 1 0.259027 0.416178 0.827233
655 1 0.248954 0.497164 0.761238
797 1 0.165753 0.50923 0.83466
636 1 0.351194 0.409406 0.748324
635 1 0.422515 0.329029 0.746112
778 1 0.434251 0.412475 0.841962
801 1 0.347782 0.493233 0.818426
785 1 0.676434 0.333797 0.840535
639 1 0.597546 0.338428 0.744578
640 1 0.497226 0.40759 0.755292
782 1 0.594481 0.408516 0.83889
644 1 0.674617 0.41695 0.767721
805 1 0.512802 0.502033 0.834368
663 1 0.589933 0.500118 0.748116
643 1 0.749886 0.332959 0.744204
789 1 0.839794 0.32693 0.829209
648 1 0.821254 0.426469 0.740238
809 1 0.66859 0.509693 0.827181
647 1 0.918314 0.3362 0.744612
646 1 0.917972 0.415014 0.669259
790 1 0.905835 0.420097 0.818261
813 1 0.810219 0.500482 0.830549
650 1 0.0779159 0.585542 0.66695
652 1 -0.0017178 0.575837 0.749556
794 1 0.09152 0.60042 0.843721
817 1 0.999297 0.670812 0.827107
675 1 0.0682408 0.663913 0.745288
653 1 0.181302 0.491467 0.674242
677 1 0.173221 0.672954 0.677206
656 1 0.164288 0.58451 0.737757
798 1 0.253609 0.584547 0.837817
679 1 0.254666 0.664582 0.76004
659 1 0.423923 0.493347 0.734989
660 1 0.342967 0.589072 0.762322
802 1 0.424034 0.573419 0.826931
825 1 0.347062 0.671708 0.843784
664 1 0.492098 0.579965 0.742755
806 1 0.574578 0.598411 0.821351
668 1 0.657449 0.588481 0.750817
833 1 0.676922 0.665123 0.842032
829 1 0.489956 0.671476 0.819316
666 1 0.749005 0.577245 0.65366
669 1 0.8403 0.506302 0.655993
667 1 0.737595 0.510596 0.754972
810 1 0.745927 0.582476 0.827804
672 1 0.828662 0.571946 0.735147
693 1 0.821744 0.674525 0.669064
670 1 0.919261 0.57609 0.661043
671 1 0.918525 0.49701 0.754768
837 1 0.833573 0.669611 0.842991
818 1 0.0823359 0.756347 0.819616
699 1 0.0905947 0.827699 0.724768
845 1 0.182581 0.836911 0.826211
680 1 0.172202 0.761802 0.752735
676 1 0.99167 0.750896 0.742068
678 1 0.241531 0.748441 0.668866
821 1 0.177728 0.681812 0.837204
822 1 0.262569 0.756751 0.840504
703 1 0.25541 0.84556 0.742507
705 1 0.332631 0.827639 0.673131
684 1 0.320323 0.75414 0.759891
683 1 0.399641 0.675117 0.745908
849 1 0.334564 0.85037 0.813868
707 1 0.422206 0.823713 0.747231
826 1 0.435858 0.757015 0.851443
853 1 0.495645 0.841585 0.821782
709 1 0.486522 0.841608 0.658534
689 1 0.665294 0.67179 0.649108
688 1 0.497326 0.749259 0.721788
687 1 0.578223 0.663903 0.713477
711 1 0.57292 0.835274 0.733529
830 1 0.577068 0.7411 0.819462
691 1 0.741044 0.669465 0.74561
692 1 0.667166 0.750768 0.743461
696 1 0.827878 0.751704 0.746698
694 1 0.915479 0.752154 0.667978
695 1 0.908146 0.666053 0.746762
838 1 0.919663 0.755013 0.824268
698 1 0.0792138 0.913474 0.663296
842 1 0.0887345 0.903254 0.821758
702 1 0.246159 0.925446 0.655676
725 1 0.162053 -0.00878733 0.820037
583 1 0.250195 -0.000355954 0.734441
704 1 0.159479 0.908839 0.744694
846 1 0.253782 0.92417 0.814068
708 1 0.343659 0.931426 0.740405
706 1 0.428768 0.924344 0.661197
585 1 0.335808 -0.0152682 0.650806
850 1 0.412814 0.93362 0.816182
733 1 0.506224 0.00530266 0.824191
589 1 0.500421 1.00212 0.660294
712 1 0.509967 0.919963 0.742056
710 1 0.587414 0.915944 0.655826
716 1 0.658125 0.933244 0.748012
854 1 0.582104 0.917173 0.836249
593 1 0.670869 1.00692 0.664698
713 1 0.670594 0.849795 0.666652
595 1 0.746758 0.994547 0.739888
857 1 0.66161 0.830315 0.826513
715 1 0.751536 0.837979 0.751851
858 1 0.763197 0.917399 0.836729
717 1 0.839985 0.827646 0.660526
700 1 0.000984657 0.919265 0.743373
720 1 0.835342 0.917037 0.744462
719 1 0.916372 0.843212 0.741962
862 1 0.905342 0.903214 0.833036
861 1 0.825466 0.837015 0.832911
841 1 1.00075 0.838182 0.830653
722 1 0.0752062 0.0792155 0.830714
724 1 0.0183018 0.0788577 0.924046
747 1 0.097031 0.158433 0.930964
728 1 0.165517 0.0788908 0.889594
749 1 0.166151 0.178646 0.832798
726 1 0.270093 0.0829984 0.818978
729 1 0.335572 -0.00117505 0.82945
732 1 0.323637 0.0889375 0.912091
755 1 0.415734 0.174327 0.922207
731 1 0.406268 -0.00494332 0.905573
37 1 0.508731 0.166729 0.00141455
13 1 0.508138 -0.00835602 -0.00204578
14 1 0.590814 0.0884677 0.988846
736 1 0.497683 0.0964695 0.909259
740 1 0.664204 0.0950229 0.906511
759 1 0.586058 0.174844 0.910987
741 1 0.846267 1.00147 0.830506
18 1 0.75655 0.0762636 0.998164
738 1 0.764178 0.0858665 0.817273
744 1 0.829114 0.0658985 0.910699
739 1 0.755151 -0.0139625 0.924699
1 1 0.0110688 0.999278 -0.00473401
22 1 0.911987 0.0747183 1.00272
25 1 -0.00580599 0.161929 0.00671569
721 1 -0.00158008 0.994794 0.827158
742 1 0.905347 0.0890043 0.812921
767 1 0.922506 0.152613 0.908384
743 1 0.935468 -0.000650775 0.910356
745 1 -0.00153711 0.161538 0.830861
49 1 -0.0101101 0.328892 0.997103
748 1 0.0115083 0.242009 0.913359
33 1 0.339318 0.161165 -0.00894754
773 1 0.161705 0.333504 0.831624
753 1 0.337713 0.170001 0.83993
752 1 0.163893 0.252043 0.910733
751 1 0.254965 0.180142 0.914912
756 1 0.343133 0.252711 0.908564
34 1 0.412053 0.25345 -0.00484679
777 1 0.334807 0.338725 0.831418
779 1 0.429883 0.341563 0.922311
61 1 0.501442 0.319886 -0.000134851
41 1 0.661881 0.154214 1.00435
38 1 0.587574 0.240381 -0.00326736
757 1 0.49706 0.169515 0.818288
760 1 0.498978 0.240793 0.903893
764 1 0.666304 0.252829 0.917788
42 1 0.76762 0.240866 0.0188762
45 1 0.838145 0.152118 0.999367
765 1 0.836739 0.162884 0.837173
65 1 0.677201 0.325674 1.00139
763 1 0.738895 0.166734 0.911974
787 1 0.760663 0.324911 0.913181
46 1 0.908375 0.233371 0.997993
766 1 0.923018 0.245545 0.843654
768 1 0.832297 0.233242 0.922411
771 1 0.0703991 0.331474 0.905421
772 1 0.993081 0.417374 0.912901
795 1 0.0671972 0.510948 0.913368
776 1 0.168239 0.414376 0.905091
54 1 0.243902 0.418773 0.989128
775 1 0.23782 0.32808 0.910443
780 1 0.330484 0.424608 0.913183
799 1 0.257404 0.503923 0.899099
58 1 0.420891 0.43602 0.987826
784 1 0.520881 0.403506 0.922098
783 1 0.589717 0.315642 0.928553
788 1 0.671246 0.407668 0.926044
807 1 0.589292 0.495864 0.921361
85 1 0.516337 0.492527 -0.0124814
89 1 0.665556 0.492398 0.00934338
786 1 0.73462 0.422371 0.851071
66 1 0.755727 0.40674 1.00667
792 1 0.82497 0.407404 0.917601
791 1 0.909841 0.333964 0.913844
93 1 0.832929 0.484459 0.992734
815 1 0.914572 0.498148 0.905323
74 1 0.0800479 0.583915 -0.00494372
796 1 0.00434128 0.589497 0.916531
78 1 0.244789 0.592069 0.998482
800 1 0.177979 0.598642 0.905918
81 1 0.317375 0.511405 0.996185
101 1 0.154874 0.680809 1.00144
804 1 0.336122 0.589898 0.913168
803 1 0.438604 0.518356 0.912699
827 1 0.414234 0.659929 0.923493
105 1 0.327193 0.657703 0.995658
109 1 0.514097 0.663842 0.00718064
86 1 0.600181 0.579117 0.991015
808 1 0.512206 0.588294 0.921564
831 1 0.591462 0.66395 0.911573
812 1 0.684323 0.593415 0.919282
811 1 0.748604 0.508529 0.91921
90 1 0.75927 0.568995 1.00899
113 1 0.68372 0.670245 1.00162
835 1 0.761103 0.672148 0.930795
816 1 0.836673 0.584691 0.916566
94 1 0.922004 0.572993 0.989335
814 1 0.914564 0.583944 0.834079
98 1 0.0715428 0.754054 0.021482
819 1 0.0932959 0.690686 0.910649
125 1 0.168921 0.847626 0.997861
824 1 0.170969 0.758515 0.917752
97 1 0.994651 0.674406 -0.000846401
820 1 0.0117449 0.771145 0.907346
102 1 0.255379 0.745651 0.992056
823 1 0.261412 0.665113 0.908965
129 1 0.347061 0.837217 0.99295
847 1 0.23991 0.836678 0.918644
828 1 0.344139 0.772018 0.91347
106 1 0.408792 0.746985 1.00468
832 1 0.495021 0.744453 0.932678
133 1 0.519392 0.833671 0.0058318
851 1 0.438268 0.836987 0.927682
110 1 0.597222 0.7457 0.993594
137 1 0.665255 0.833363 -0.0191511
855 1 0.594747 0.825198 0.905333
141 1 0.834362 0.830702 0.995857
834 1 0.752534 0.754215 0.829998
114 1 0.752634 0.764306 0.0124615
836 1 0.680433 0.759097 0.909315
117 1 0.830622 0.673123 0.00319917
839 1 0.920047 0.671087 0.908276
840 1 0.831949 0.758149 0.90644
118 1 0.914958 0.755346 -0.0214767
121 1 0.00955139 0.836637 -0.0154116
723 1 0.0984078 -0.000189266 0.914072
843 1 0.0993635 0.844383 0.910793
126 1 0.246754 0.927398 0.990802
727 1 0.252876 0.00991673 0.899871
848 1 0.174213 0.919522 0.904524
852 1 0.324468 0.912517 0.918631
130 1 0.412799 0.922111 0.996034
856 1 0.490776 0.92627 0.902618
134 1 0.582959 0.930201 0.975013
735 1 0.565598 0.00696116 0.910193
737 1 0.678885 1.00356 0.843768
859 1 0.758719 0.835532 0.918373
860 1 0.661861 0.913024 0.902732
138 1 0.76118 0.914251 1.00466
864 1 0.836084 0.927152 0.931956
142 1 0.929252 0.92234 0.992544
844 1 0.00288984 0.913247 0.907657
863 1 0.911318 0.832546 0.912622
