ITEM: TIMESTEP
11500
ITEM: NUMBER OF ATOMS
864
ITEM: BOX BOUNDS pp pp pp
0.0000000000000000e+00 3.1559999999999999e+01
0.0000000000000000e+00 3.1559999999999999e+01
0.0000000000000000e+00 3.1559999999999999e+01
ITEM: ATOMS id type xs ys zs
4 1 0.994817 0.0987844 0.0906527
8 1 0.175439 0.105564 0.0777626
27 1 0.0870219 0.16875 0.0868953
93 1 0.836866 0.00965594 0.183504
74 1 0.085392 0.0744371 0.160669
165 1 0.845942 0.0156127 0.335737
101 1 0.162292 0.16952 0.170013
33 1 0.338576 0.162496 0.00704933
226 1 0.413532 0.0813182 0.496077
31 1 0.263307 0.175223 0.0780715
207 1 0.582138 0.344808 0.419445
12 1 0.344228 0.0743541 0.0914172
16 1 0.502109 0.0816127 0.0880703
91 1 0.754404 0.00128702 0.250016
35 1 0.425587 0.17267 0.0905127
157 1 0.500314 0.0218867 0.330686
82 1 0.426446 0.0855782 0.166173
6 1 0.257551 0.0747348 0.00644791
20 1 0.676195 0.0926187 0.0849699
523 1 0.746039 0.496761 0.26267
282 1 0.734568 0.419699 0.498413
269 1 0.189023 0.324604 0.498159
24 1 0.818852 0.0809717 0.0906836
90 1 0.7569 0.0872256 0.180927
525 1 0.832957 0.493043 0.180354
11 1 0.426029 0.00172219 0.0855445
45 1 0.835041 0.180885 0.000349158
14 1 0.595674 0.0673105 0.00657523
94 1 0.919018 0.0953342 0.16569
161 1 0.659337 0.0017945 0.33654
2 1 0.0913349 0.087098 0.00907957
28 1 0.999252 0.263054 0.0920572
98 1 0.0865758 0.261733 0.161061
32 1 0.174565 0.249793 0.0986453
286 1 0.918086 0.431893 0.493404
55 1 0.251588 0.330055 0.0938746
7 1 0.257085 0.00585964 0.0899321
102 1 0.269228 0.257358 0.172132
36 1 0.333096 0.262941 0.0798401
59 1 0.406589 0.341002 0.081759
106 1 0.424983 0.260538 0.162535
129 1 0.328654 0.344342 0.174164
34 1 0.436013 0.236349 0.0016049
40 1 0.507308 0.274371 0.0817609
39 1 0.582001 0.172921 0.07615
63 1 0.582775 0.345522 0.0871059
133 1 0.502045 0.339531 0.168117
22 1 0.910557 0.081448 0.00986141
43 1 0.76394 0.169838 0.0848968
49 1 0.979879 0.346887 0.0131643
44 1 0.663346 0.25933 0.0804231
48 1 0.841896 0.255392 0.0992333
200 1 0.148556 0.419966 0.425038
114 1 0.733833 0.245039 0.170452
97 1 0.0185939 0.172015 0.176551
47 1 0.91407 0.167797 0.0832775
71 1 0.917876 0.340643 0.099337
121 1 0.996425 0.349778 0.172234
118 1 0.925367 0.247786 0.16819
51 1 0.0759268 0.329894 0.0784333
52 1 0.974677 0.435667 0.0823608
46 1 0.913288 0.26791 0.00103883
515 1 0.417771 0.485909 0.242116
56 1 0.166244 0.415114 0.0815152
60 1 0.333696 0.416823 0.0745793
196 1 0.00574189 0.418219 0.43378
125 1 0.165999 0.338704 0.160628
126 1 0.241474 0.416589 0.171271
64 1 0.500151 0.415481 0.0822403
54 1 0.245489 0.409301 0.00418672
41 1 0.680956 0.182825 0.00563329
68 1 0.663556 0.423543 0.0913933
134 1 0.575835 0.428962 0.163165
218 1 0.0897779 0.0700581 0.498329
10 1 0.423381 0.0819372 0.00153015
67 1 0.735985 0.353919 0.0846493
72 1 0.830149 0.414206 0.0955739
216 1 0.854087 0.41442 0.415227
205 1 0.498036 0.331681 0.34337
141 1 0.824476 0.329805 0.171427
142 1 0.909854 0.418114 0.180086
203 1 0.404031 0.370934 0.423896
65 1 0.671333 0.330258 0.0045641
80 1 0.163066 0.0768708 0.271365
76 1 0.0130783 0.0774106 0.249866
5 1 0.160163 0.00690911 0.0113259
78 1 0.254648 0.0855102 0.175628
103 1 0.245084 0.171703 0.251129
25 1 0.00597562 0.165423 0.010567
105 1 0.343391 0.168351 0.166947
230 1 0.576825 0.0918926 0.491303
83 1 0.419149 0.0152623 0.270579
1 1 0.00322658 0.000190964 0.00603522
84 1 0.330572 0.100515 0.269163
86 1 0.600899 0.0725298 0.164887
109 1 0.5251 0.173414 0.168821
88 1 0.514907 0.0887682 0.243573
92 1 0.674471 0.0770174 0.260076
158 1 0.59543 0.0913723 0.327063
212 1 0.65807 0.423179 0.425028
23 1 0.904266 0.00836047 0.0930866
206 1 0.574823 0.423869 0.342154
202 1 0.424744 0.417808 0.336814
95 1 0.9142 0.00405475 0.250875
169 1 0.0107473 0.162777 0.345698
96 1 0.848806 0.0961853 0.260983
117 1 0.816403 0.169693 0.180622
42 1 0.769466 0.267761 0.0075275
99 1 0.0932646 0.171969 0.25316
104 1 0.160348 0.264933 0.243638
100 1 0.998212 0.256279 0.259786
170 1 0.0872317 0.26084 0.330878
108 1 0.351985 0.256058 0.244188
107 1 0.419472 0.165967 0.252151
112 1 0.501405 0.262857 0.251466
131 1 0.431925 0.352572 0.256564
178 1 0.411215 0.249502 0.343601
110 1 0.586913 0.272972 0.175501
111 1 0.598927 0.156901 0.243271
182 1 0.5908 0.268365 0.346924
115 1 0.743034 0.161584 0.260614
113 1 0.659636 0.1735 0.154072
116 1 0.65466 0.246023 0.253391
186 1 0.749799 0.27405 0.332965
185 1 0.667344 0.180449 0.339763
119 1 0.926272 0.167187 0.265052
120 1 0.832157 0.255037 0.263362
143 1 0.911677 0.334384 0.246576
122 1 0.0820006 0.410173 0.152541
123 1 0.0778826 0.341703 0.257518
124 1 0.00464376 0.414251 0.260243
197 1 0.157251 0.34468 0.343574
519 1 0.581137 0.496681 0.258111
127 1 0.256652 0.322211 0.267799
128 1 0.158842 0.411442 0.242415
513 1 0.345361 0.486657 0.149094
132 1 0.34039 0.416814 0.271094
130 1 0.419143 0.414887 0.16368
136 1 0.514827 0.421421 0.245839
201 1 0.331997 0.327572 0.349206
593 1 0.654105 0.499153 0.33403
137 1 0.671577 0.338444 0.172749
135 1 0.587517 0.338837 0.259243
140 1 0.661742 0.426139 0.244924
167 1 0.916999 0.00726566 0.424673
139 1 0.748488 0.347992 0.241971
138 1 0.751694 0.424923 0.168892
209 1 0.67162 0.344931 0.32514
144 1 0.823989 0.419882 0.265489
213 1 0.844585 0.332396 0.333883
214 1 0.921876 0.421448 0.336582
69 1 0.831864 0.352504 0.00301142
146 1 0.0893412 0.0743719 0.343777
208 1 0.504748 0.433934 0.423428
148 1 0.998231 0.0774142 0.426072
451 1 0.746529 0.492955 0.0884316
152 1 0.170721 0.0748851 0.418413
150 1 0.241948 0.0661985 0.332462
153 1 0.328346 0.00582205 0.321821
156 1 0.317944 0.0603299 0.42564
211 1 0.732045 0.344895 0.411954
154 1 0.415222 0.0935908 0.344932
160 1 0.497291 0.0937612 0.413229
66 1 0.753827 0.430345 0.00082991
73 1 0.990919 0.00638376 0.168237
164 1 0.673783 0.0936151 0.413982
250 1 0.412526 0.257306 0.497639
53 1 0.162471 0.323935 0.0162417
162 1 0.753909 0.079915 0.342113
187 1 0.749918 0.17906 0.415683
168 1 0.831398 0.0907467 0.419511
204 1 0.320113 0.432867 0.42137
198 1 0.254369 0.43585 0.327186
166 1 0.923475 0.0799826 0.342476
171 1 0.0919491 0.152243 0.428455
173 1 0.173667 0.152047 0.342484
176 1 0.157869 0.248183 0.427183
87 1 0.585517 0.00951738 0.266541
174 1 0.239073 0.245284 0.342675
175 1 0.25528 0.168026 0.425876
253 1 0.504843 0.16423 0.495332
177 1 0.327513 0.158169 0.356664
179 1 0.400964 0.175434 0.4364
180 1 0.314813 0.259705 0.423623
184 1 0.497383 0.254229 0.420018
199 1 0.244505 0.357407 0.404458
181 1 0.499016 0.190255 0.326266
238 1 0.90361 0.0826616 0.493378
183 1 0.584852 0.167008 0.413976
163 1 0.747778 0.00948847 0.412987
277 1 0.502609 0.328926 0.499448
270 1 0.23451 0.430618 0.488384
188 1 0.66349 0.264428 0.425596
509 1 0.163101 0.49055 0.167316
50 1 0.0733526 0.416498 0.0206704
190 1 0.908049 0.240098 0.343136
189 1 0.835032 0.171686 0.341413
192 1 0.838316 0.266628 0.428797
191 1 0.92231 0.171726 0.423203
215 1 0.917802 0.330879 0.431582
172 1 0.0107877 0.246342 0.425253
193 1 0.996187 0.343265 0.354674
194 1 0.080776 0.436255 0.336357
210 1 0.742552 0.421807 0.33441
195 1 0.0797682 0.328205 0.437232
443 1 0.429271 0.493387 0.0766085
77 1 0.177045 0.00102126 0.162454
155 1 0.413213 0.00963023 0.409466
597 1 0.831691 0.495828 0.342333
159 1 0.567432 8.8495e-05 0.41041
70 1 0.916639 0.430658 0.997696
239 1 0.900367 0.010886 0.568895
61 1 0.511351 0.341957 0.989208
224 1 0.16662 0.0907295 0.599815
222 1 0.260315 0.0833536 0.514014
669 1 0.825168 0.488418 0.507218
228 1 0.341459 0.0945089 0.583583
232 1 0.504963 0.0983152 0.589485
227 1 0.426706 0.00774627 0.584679
375 1 0.589679 0.00879531 0.921709
659 1 0.414039 0.496617 0.586427
234 1 0.744655 0.0823303 0.511917
302 1 0.587064 0.0791948 0.658289
231 1 0.585278 0.0108912 0.571745
38 1 0.576604 0.256857 0.9968
236 1 0.672441 0.0879196 0.591499
240 1 0.829027 0.0909233 0.587446
235 1 0.756322 0.00367415 0.587089
259 1 0.748987 0.173144 0.584567
306 1 0.753303 0.0791859 0.669274
220 1 9.04955e-05 0.0754381 0.577562
58 1 0.410858 0.413707 0.999046
263 1 0.913073 0.171117 0.603754
18 1 0.754635 0.0884294 0.999635
243 1 0.0882337 0.162245 0.588938
244 1 0.995465 0.262345 0.594159
267 1 0.0966374 0.326945 0.583967
314 1 0.094401 0.247851 0.660166
265 1 0.00304963 0.334846 0.513026
248 1 0.185261 0.24879 0.601041
247 1 0.264489 0.171087 0.590367
252 1 0.336783 0.255249 0.595631
229 1 0.497014 0.00543669 0.501437
307 1 0.741781 0.0077424 0.760844
251 1 0.41791 0.172307 0.582379
671 1 0.907862 0.48885 0.589348
256 1 0.496725 0.253469 0.572047
255 1 0.590755 0.166761 0.586285
279 1 0.575431 0.328708 0.589614
260 1 0.667338 0.242094 0.583428
329 1 0.674701 0.163645 0.67523
330 1 0.747312 0.247738 0.676786
264 1 0.834973 0.254477 0.592027
287 1 0.918268 0.348262 0.589177
334 1 0.908076 0.261283 0.688773
357 1 0.824417 0.331618 0.682208
266 1 0.080641 0.417439 0.512265
268 1 0.00440435 0.429149 0.581804
271 1 0.26114 0.346453 0.590887
426 1 0.749751 0.425115 0.830933
272 1 0.172013 0.414898 0.581142
276 1 0.321632 0.431013 0.578234
367 1 0.255835 7.03988e-06 0.925818
275 1 0.409259 0.354416 0.579326
280 1 0.498139 0.420814 0.586775
254 1 0.582813 0.24407 0.505709
273 1 0.322293 0.339181 0.504095
379 1 0.750449 0.00288706 0.915386
350 1 0.595981 0.435485 0.67104
353 1 0.662818 0.335582 0.645614
257 1 0.671333 0.15957 0.503925
427 1 0.746292 0.331922 0.917575
284 1 0.683628 0.442114 0.59377
283 1 0.75036 0.337505 0.573275
288 1 0.810359 0.425357 0.607887
354 1 0.74236 0.429377 0.686326
369 1 0.330636 0.0136472 0.830515
358 1 0.90977 0.41981 0.677958
30 1 0.246359 0.250467 0.99027
290 1 0.0765931 0.0947558 0.679781
292 1 0.00372513 0.0986962 0.753233
294 1 0.249718 0.0863816 0.67712
296 1 0.172854 0.0859047 0.755507
317 1 0.171478 0.165842 0.676016
729 1 0.33074 0.497317 0.661034
300 1 0.342074 0.0900997 0.752916
298 1 0.436566 0.0968088 0.658998
304 1 0.515169 0.0876568 0.748406
323 1 0.432579 0.165666 0.762648
262 1 0.915788 0.239598 0.507733
431 1 0.908725 0.354988 0.910097
374 1 0.591052 0.066767 0.840656
297 1 0.333347 0.0237505 0.660326
371 1 0.416865 0.0109712 0.912579
308 1 0.658644 0.0855014 0.755856
378 1 0.758766 0.0823965 0.842772
278 1 0.595514 0.430807 0.511765
291 1 0.0658685 0.0117532 0.745634
312 1 0.826841 0.0755839 0.759675
310 1 0.910395 0.0810825 0.66396
313 1 0.00909753 0.170609 0.653939
315 1 0.0943241 0.180179 0.74957
339 1 0.0867617 0.324561 0.741522
337 1 0.981214 0.344079 0.672899
320 1 0.171387 0.257151 0.738006
319 1 0.259356 0.171201 0.758159
318 1 0.258564 0.2543 0.678639
343 1 0.252156 0.358386 0.766091
345 1 0.344997 0.339601 0.678947
321 1 0.344734 0.167572 0.674119
322 1 0.424589 0.251444 0.679983
324 1 0.345951 0.258455 0.764751
325 1 0.507762 0.184881 0.666817
421 1 0.513241 0.33833 0.841176
326 1 0.59353 0.24104 0.653327
328 1 0.510226 0.257745 0.750619
327 1 0.590984 0.171839 0.749478
331 1 0.738857 0.154157 0.761423
332 1 0.667078 0.253 0.757045
333 1 0.824745 0.166192 0.671152
402 1 0.748998 0.239396 0.833333
335 1 0.909017 0.163991 0.736678
336 1 0.821776 0.260795 0.757783
316 1 0.00418878 0.247878 0.740971
359 1 0.910765 0.350344 0.764018
338 1 0.0855725 0.408682 0.673384
241 1 0.997805 0.144831 0.503495
341 1 0.181521 0.331717 0.669691
340 1 0.991552 0.416091 0.777354
409 1 0.00668174 0.328086 0.845489
733 1 0.495335 0.499318 0.67112
344 1 0.166427 0.431454 0.764791
342 1 0.241894 0.420551 0.677143
348 1 0.331527 0.420734 0.76751
349 1 0.502612 0.320919 0.664275
347 1 0.409407 0.344354 0.758514
346 1 0.429582 0.404799 0.669571
352 1 0.508068 0.394195 0.753187
351 1 0.594468 0.331237 0.752114
356 1 0.663143 0.429789 0.762456
422 1 0.581698 0.428091 0.825716
295 1 0.257585 0.00475275 0.752688
355 1 0.73968 0.3443 0.753903
360 1 0.835242 0.417547 0.759744
425 1 0.670536 0.330897 0.829741
301 1 0.496317 0.00389996 0.671228
361 1 0.997103 0.00875187 0.830057
242 1 0.0803307 0.228906 0.517102
362 1 0.0861298 0.0931782 0.820872
363 1 0.0783329 0.0140458 0.917525
223 1 0.240785 0.00484878 0.602917
309 1 0.841133 0.00272177 0.661719
368 1 0.158862 0.084308 0.920291
366 1 0.234489 0.102966 0.839395
249 1 0.332503 0.178622 0.507519
372 1 0.341076 0.0894813 0.929348
370 1 0.425813 0.08216 0.833112
29 1 0.170664 0.173694 0.996106
245 1 0.16727 0.163232 0.506025
21 1 0.828882 0.00512778 0.997361
376 1 0.502776 0.0894325 0.924086
397 1 0.514632 0.175188 0.829095
37 1 0.51384 0.158228 0.994309
57 1 0.317937 0.336526 0.984331
412 1 0.988693 0.430812 0.910299
380 1 0.674486 0.0798623 0.910686
403 1 0.750947 0.172 0.91778
383 1 0.918867 0.0158234 0.926475
364 1 0.0036663 0.0914167 0.917339
384 1 0.842969 0.095777 0.916899
382 1 0.907599 0.0865174 0.830697
274 1 0.409805 0.421341 0.510034
385 1 0.0101647 0.170737 0.83236
387 1 0.0885597 0.161417 0.933022
386 1 0.0887332 0.260331 0.833556
381 1 0.824861 0.00172939 0.836492
289 1 0.997616 0.00246471 0.661451
389 1 0.16645 0.183879 0.835121
392 1 0.158058 0.249622 0.915783
390 1 0.261178 0.243796 0.841921
391 1 0.255762 0.165164 0.937573
415 1 0.217222 0.34184 0.925231
721 1 0.0028311 0.493988 0.675395
393 1 0.338412 0.162564 0.83918
396 1 0.338628 0.240272 0.924449
395 1 0.42136 0.167881 0.907774
394 1 0.436729 0.252157 0.828342
417 1 0.320653 0.337893 0.862677
419 1 0.423569 0.328543 0.915342
430 1 0.90419 0.448939 0.830858
399 1 0.601185 0.153627 0.935052
400 1 0.508285 0.257273 0.914536
398 1 0.587896 0.258261 0.835618
423 1 0.597607 0.337748 0.921718
401 1 0.655255 0.171177 0.837314
404 1 0.655471 0.247363 0.915882
408 1 0.83485 0.250076 0.902798
246 1 0.24928 0.243989 0.515237
406 1 0.920319 0.242376 0.824028
405 1 0.825888 0.172561 0.82813
429 1 0.835225 0.342885 0.841097
407 1 0.92827 0.170223 0.914384
388 1 0.00615196 0.244404 0.910274
261 1 0.826134 0.170379 0.502399
285 1 0.835251 0.355447 0.504737
225 1 0.337219 0.0033928 0.517837
411 1 0.0882064 0.341123 0.941135
410 1 0.079552 0.413387 0.849077
413 1 0.150995 0.339652 0.82595
416 1 0.156605 0.427069 0.932388
414 1 0.241403 0.425823 0.855089
311 1 0.910523 0.00415876 0.751614
418 1 0.418117 0.420502 0.840629
420 1 0.327244 0.42379 0.925195
281 1 0.659613 0.336524 0.512341
424 1 0.496936 0.426685 0.926906
428 1 0.666557 0.41969 0.904628
432 1 0.834952 0.426592 0.921676
731 1 0.411984 0.492194 0.74779
62 1 0.594402 0.423473 0.995942
805 1 0.487258 0.499322 0.843833
258 1 0.739617 0.259232 0.500663
13 1 0.499058 0.00214766 0.990855
26 1 0.0614528 0.25797 0.995699
440 1 0.156993 0.587539 0.101087
506 1 0.0765021 0.58987 0.174229
434 1 0.0743713 0.590438 0.0156976
459 1 0.0786525 0.674376 0.107293
645 1 0.844316 0.831033 0.336134
505 1 0.984717 0.502809 0.180882
444 1 0.343481 0.579825 0.0829794
521 1 0.658932 0.506571 0.175527
478 1 0.922375 0.745444 0.00260977
448 1 0.502848 0.59266 0.0950541
457 1 0.994798 0.664172 0.00468575
452 1 0.67557 0.583268 0.0881866
15 1 0.591 0.989386 0.0928303
477 1 0.817963 0.669816 0.0163046
522 1 0.74247 0.582776 0.187066
482 1 0.0975669 0.923611 0.0033756
678 1 0.247746 0.761179 0.497626
456 1 0.80935 0.583476 0.0945641
436 1 0.986449 0.578844 0.106239
485 1 0.163652 0.844059 0.0128041
483 1 0.0752394 0.8396 0.0866865
464 1 0.177655 0.759106 0.0883479
463 1 0.25418 0.68086 0.0850656
534 1 0.25198 0.759764 0.163208
461 1 0.166202 0.673285 0.0125178
462 1 0.248703 0.754921 0.00435321
468 1 0.34386 0.765768 0.0771
467 1 0.436131 0.681045 0.0873785
472 1 0.517811 0.757349 0.0758404
517 1 0.491452 0.502968 0.16989
471 1 0.574477 0.67098 0.0986792
583 1 0.24327 0.525501 0.422152
541 1 0.493104 0.673274 0.176369
474 1 0.725634 0.752444 0.00229213
476 1 0.659321 0.746066 0.0974804
475 1 0.74547 0.668036 0.107076
480 1 0.827349 0.748873 0.092889
545 1 0.669932 0.668237 0.190744
460 1 0.994135 0.742882 0.0991741
479 1 0.91798 0.673053 0.0930266
710 1 0.59006 0.920627 0.497895
445 1 0.51141 0.506607 0.00558331
599 1 0.913929 0.512085 0.424276
487 1 0.248813 0.842825 0.0789989
488 1 0.167011 0.928751 0.0903717
558 1 0.250454 0.91807 0.173243
561 1 0.337874 0.842195 0.165288
585 1 0.331772 0.512945 0.347859
492 1 0.34802 0.916799 0.0944983
491 1 0.440141 0.830599 0.0914005
496 1 0.513576 0.91057 0.092794
465 1 0.34104 0.671929 0.0176488
495 1 0.594313 0.832974 0.0945935
500 1 0.679671 0.920094 0.0981393
453 1 0.830026 0.511382 0.00690017
569 1 0.675538 0.844594 0.171206
499 1 0.751547 0.829534 0.0941916
570 1 0.767387 0.924154 0.17473
498 1 0.766556 0.91367 0.0169127
9 1 0.351175 0.995587 0.000501677
484 1 0.995807 0.905087 0.0974355
504 1 0.840052 0.912316 0.0966635
503 1 0.918548 0.834888 0.0936517
147 1 0.0868464 0.993353 0.420053
512 1 0.169328 0.600926 0.240025
508 1 0.990139 0.581584 0.248154
510 1 0.263252 0.607365 0.156884
582 1 0.251177 0.584818 0.323223
501 1 0.828672 0.825756 0.0101325
514 1 0.417537 0.585623 0.167872
516 1 0.337791 0.576327 0.246656
217 1 0.99987 0.991252 0.487003
537 1 0.346978 0.673113 0.14212
145 1 0.0131649 0.999214 0.344487
589 1 0.496974 0.505604 0.351994
520 1 0.490266 0.568247 0.254629
518 1 0.569075 0.581219 0.180654
524 1 0.674863 0.587827 0.267912
17 1 0.683009 0.991384 0.00324356
528 1 0.843192 0.587275 0.279553
458 1 0.0973231 0.765901 0.0106214
526 1 0.904494 0.586655 0.181017
529 1 0.992347 0.668167 0.183393
666 1 0.759641 0.589625 0.499945
527 1 0.903808 0.503201 0.253613
533 1 0.18082 0.681399 0.163844
530 1 0.0896807 0.772431 0.171569
531 1 0.0854919 0.666403 0.242692
605 1 0.171251 0.668554 0.328844
602 1 0.0730136 0.763027 0.336254
536 1 0.158098 0.738498 0.2599
555 1 0.0891769 0.843498 0.251056
535 1 0.262112 0.670879 0.248374
540 1 0.334162 0.756506 0.255573
606 1 0.252197 0.760489 0.321394
538 1 0.419518 0.742814 0.166734
539 1 0.397247 0.670611 0.255051
544 1 0.486418 0.761613 0.266538
563 1 0.416163 0.845756 0.262846
610 1 0.404939 0.757948 0.332044
543 1 0.569277 0.672096 0.265932
542 1 0.584363 0.753913 0.172599
614 1 0.566379 0.755699 0.33792
549 1 0.833229 0.663418 0.170476
547 1 0.758483 0.666373 0.270033
621 1 0.84544 0.671105 0.346765
548 1 0.653837 0.75801 0.255703
546 1 0.754612 0.752908 0.178465
552 1 0.838775 0.740636 0.247685
553 1 0.986282 0.82476 0.166962
532 1 0.00525241 0.758777 0.256809
550 1 0.917183 0.749537 0.165032
551 1 0.911399 0.669699 0.25827
554 1 0.0784971 0.927171 0.164596
560 1 0.171212 0.921691 0.244154
442 1 0.419678 0.591988 0.00906671
626 1 0.0843633 0.918186 0.33013
557 1 0.173246 0.844568 0.164861
559 1 0.251498 0.838116 0.243187
630 1 0.252624 0.932951 0.337883
564 1 0.32755 0.922385 0.249819
562 1 0.42921 0.933173 0.176422
568 1 0.496164 0.926669 0.254945
634 1 0.409357 0.935597 0.331615
565 1 0.497761 0.829575 0.185062
566 1 0.58327 0.91407 0.171337
567 1 0.580001 0.832953 0.259014
641 1 0.67667 0.840788 0.331118
642 1 0.747992 0.928673 0.337524
571 1 0.748745 0.839462 0.256763
573 1 0.835291 0.838555 0.186035
572 1 0.657968 0.912607 0.259844
646 1 0.934209 0.926384 0.339971
556 1 0.000846203 0.932507 0.249491
576 1 0.833344 0.919003 0.268266
575 1 0.913936 0.835733 0.252077
574 1 0.91358 0.924275 0.173868
625 1 0.00419705 0.850124 0.325147
446 1 0.59291 0.587543 0.00535954
578 1 0.0881479 0.595314 0.330952
584 1 0.159927 0.593679 0.412828
649 1 0.999103 0.510366 0.494819
681 1 0.334558 0.677229 0.493216
607 1 0.236171 0.671048 0.412921
717 1 0.83571 0.845156 0.492036
588 1 0.323485 0.595687 0.417096
586 1 0.417086 0.57943 0.330405
609 1 0.327825 0.676198 0.336249
685 1 0.509784 0.671103 0.498056
643 1 0.757788 0.846793 0.402242
579 1 0.0848328 0.505421 0.43116
502 1 0.898604 0.917646 0.00904719
590 1 0.572762 0.585111 0.334633
647 1 0.925104 0.844421 0.413856
591 1 0.577765 0.513592 0.42364
592 1 0.496127 0.603066 0.414375
596 1 0.658766 0.581062 0.413087
658 1 0.415135 0.60301 0.490792
594 1 0.75483 0.590778 0.3468
600 1 0.837758 0.588325 0.431243
233 1 0.672011 0.996235 0.493581
690 1 0.753236 0.773316 0.476436
639 1 0.58723 0.841374 0.422436
577 1 0.991277 0.505947 0.350857
507 1 0.0883912 0.508489 0.259326
580 1 0.0119385 0.591329 0.428102
598 1 0.926702 0.590284 0.348474
511 1 0.260085 0.50604 0.234049
603 1 0.0940279 0.680306 0.406244
454 1 0.895497 0.593105 0.0301793
608 1 0.165956 0.751744 0.402198
633 1 0.327776 0.847159 0.342207
635 1 0.417466 0.838824 0.408728
612 1 0.333162 0.764616 0.414918
611 1 0.415064 0.67329 0.408182
450 1 0.745133 0.597432 0.0059659
617 1 0.666702 0.687333 0.338554
615 1 0.600395 0.667095 0.417408
613 1 0.483471 0.672322 0.325811
616 1 0.493687 0.749625 0.423292
620 1 0.663465 0.769552 0.417541
497 1 0.668373 0.846431 0.000139306
618 1 0.752355 0.747464 0.353632
648 1 0.836562 0.923032 0.413955
619 1 0.750406 0.664519 0.421941
622 1 0.929381 0.751623 0.329744
601 1 0.00845585 0.672147 0.332043
623 1 0.935419 0.661287 0.42805
624 1 0.850028 0.760737 0.41663
604 1 0.995038 0.759134 0.42077
628 1 0.00484023 0.906164 0.417757
629 1 0.162991 0.839081 0.320848
627 1 0.0774069 0.828121 0.430907
632 1 0.158067 0.918851 0.423347
237 1 0.826873 0.998219 0.47944
631 1 0.248761 0.831108 0.423058
640 1 0.492079 0.920866 0.417204
438 1 0.234349 0.597542 0.0246091
637 1 0.497674 0.839913 0.345426
636 1 0.331131 0.924205 0.434909
3 1 0.0706942 0.994666 0.0810762
469 1 0.511914 0.661687 0.0151295
638 1 0.585014 0.908146 0.334918
644 1 0.671378 0.920566 0.428808
435 1 0.067138 0.50187 0.0925461
677 1 0.162845 0.67463 0.493133
481 1 0.986601 0.840974 0.00307499
441 1 0.338538 0.508758 0.00149426
455 1 0.892389 0.503611 0.0884356
595 1 0.744052 0.507351 0.421876
581 1 0.17592 0.507466 0.337841
89 1 0.681262 0.991128 0.179897
437 1 0.149381 0.517527 0.0177864
149 1 0.159 0.993001 0.341733
75 1 0.0939195 0.99204 0.243793
466 1 0.433768 0.76648 0.0112617
490 1 0.425642 0.913825 0.00784777
473 1 0.65742 0.66864 0.00253176
674 1 0.079776 0.749701 0.494893
79 1 0.249218 0.99862 0.245445
151 1 0.23667 0.990782 0.433663
19 1 0.761025 0.995323 0.0915754
718 1 0.922166 0.923785 0.486585
587 1 0.410164 0.501848 0.425126
447 1 0.58697 0.501997 0.079303
439 1 0.263633 0.504991 0.0768174
705 1 0.341584 0.83086 0.497952
81 1 0.328058 0.999588 0.167803
85 1 0.517545 0.999869 0.168019
486 1 0.251916 0.922616 0.00133547
656 1 0.164721 0.5971 0.594345
652 1 0.000563191 0.57032 0.585419
860 1 0.67815 0.91635 0.915315
858 1 0.759556 0.916955 0.838799
749 1 0.163668 0.676237 0.671319
795 1 0.081689 0.505442 0.912159
714 1 0.747379 0.917943 0.502165
660 1 0.335498 0.600411 0.581073
727 1 0.242622 0.502176 0.758983
730 1 0.411315 0.586197 0.676887
664 1 0.50036 0.594665 0.59347
757 1 0.487756 0.683475 0.664404
663 1 0.575479 0.50752 0.60037
734 1 0.567604 0.580638 0.678356
799 1 0.240316 0.520726 0.920634
668 1 0.664622 0.592549 0.585169
738 1 0.759639 0.591332 0.675008
672 1 0.839243 0.597625 0.583633
723 1 0.0821823 0.507765 0.744461
739 1 0.752637 0.521491 0.755763
809 1 0.677689 0.514541 0.845643
470 1 0.58467 0.743596 0.996162
702 1 0.23433 0.917804 0.50546
742 1 0.924179 0.598743 0.663329
675 1 0.0768227 0.683629 0.587679
676 1 0.990607 0.767064 0.585862
680 1 0.164446 0.747903 0.566043
679 1 0.248591 0.678876 0.594434
684 1 0.344942 0.743883 0.586455
665 1 0.665365 0.50947 0.510099
683 1 0.422188 0.666264 0.566846
707 1 0.414147 0.836248 0.591604
667 1 0.749147 0.520694 0.583448
687 1 0.582347 0.667138 0.6076
688 1 0.495939 0.755849 0.589699
670 1 0.916586 0.586151 0.509203
711 1 0.586241 0.850145 0.58404
761 1 0.666755 0.639471 0.685431
692 1 0.674082 0.751157 0.592652
691 1 0.748162 0.65957 0.58986
715 1 0.75389 0.834381 0.588305
789 1 0.835271 0.844408 0.671311
696 1 0.828234 0.750407 0.583586
695 1 0.906403 0.679829 0.583103
377 1 0.676391 0.994518 0.839975
699 1 0.0845174 0.823478 0.578278
700 1 0.99106 0.92969 0.574653
661 1 0.516152 0.515404 0.511125
494 1 0.594273 0.929047 0.998325
697 1 0.00171066 0.837946 0.500649
703 1 0.25115 0.833381 0.583325
704 1 0.162651 0.913402 0.594916
777 1 0.323521 0.83641 0.669175
651 1 0.0903494 0.509383 0.581042
708 1 0.319434 0.917674 0.573835
712 1 0.499959 0.926608 0.578653
693 1 0.820471 0.684689 0.503495
716 1 0.661398 0.933586 0.585222
741 1 0.84199 0.506272 0.673783
720 1 0.833002 0.923892 0.58765
303 1 0.583626 0.998922 0.757658
706 1 0.420328 0.922351 0.505571
719 1 0.917874 0.841135 0.579982
373 1 0.50144 0.990334 0.824808
365 1 0.167649 0.995923 0.839608
722 1 0.083531 0.589956 0.677807
747 1 0.0850858 0.685132 0.765501
794 1 0.0803966 0.596679 0.836953
726 1 0.24977 0.595197 0.664621
662 1 0.586372 0.602909 0.511457
728 1 0.166676 0.589494 0.743333
732 1 0.339063 0.60473 0.768684
655 1 0.256541 0.517432 0.584473
689 1 0.674722 0.680063 0.510509
736 1 0.485303 0.586085 0.754383
755 1 0.410679 0.678157 0.749903
844 1 0.00525191 0.924608 0.913906
735 1 0.562069 0.509102 0.772691
686 1 0.585705 0.750061 0.524478
806 1 0.564043 0.574745 0.856958
740 1 0.638558 0.577937 0.769142
810 1 0.74565 0.59575 0.840425
744 1 0.852177 0.58554 0.746142
724 1 0.0114277 0.586615 0.745575
814 1 0.926699 0.59776 0.824003
817 1 0.999991 0.689011 0.856251
767 1 0.934603 0.671453 0.752099
813 1 0.834042 0.525977 0.836291
493 1 0.516518 0.850493 0.996215
746 1 0.0866751 0.754596 0.684863
745 1 0.0111705 0.680135 0.680807
752 1 0.176436 0.747894 0.753168
771 1 0.0956938 0.826572 0.765876
753 1 0.337285 0.675293 0.67143
750 1 0.257505 0.740915 0.684918
751 1 0.250817 0.664491 0.760748
756 1 0.328852 0.740695 0.764042
754 1 0.422201 0.758337 0.676292
779 1 0.405779 0.843693 0.740461
759 1 0.570536 0.675218 0.746896
760 1 0.50319 0.76333 0.746654
758 1 0.585162 0.763647 0.65306
764 1 0.678524 0.754045 0.721933
833 1 0.667681 0.674873 0.837624
830 1 0.590148 0.763316 0.812659
762 1 0.757789 0.755089 0.663287
763 1 0.745172 0.672034 0.756459
768 1 0.832859 0.751309 0.76413
857 1 0.668111 0.84312 0.830788
834 1 0.746854 0.758098 0.840487
765 1 0.838805 0.67619 0.662811
766 1 0.916953 0.749315 0.676902
837 1 0.83157 0.648957 0.826554
748 1 0.993924 0.764968 0.76374
770 1 0.0832083 0.914198 0.662426
694 1 0.914488 0.763926 0.500767
773 1 0.166067 0.820643 0.667459
219 1 0.0845125 0.989537 0.585561
775 1 0.261885 0.82985 0.771207
776 1 0.167027 0.91473 0.758804
774 1 0.250467 0.9322 0.6732
780 1 0.326155 0.925191 0.735122
803 1 0.405588 0.513354 0.91956
778 1 0.40219 0.924018 0.658794
784 1 0.486901 0.912953 0.740206
781 1 0.496095 0.841727 0.660479
785 1 0.664229 0.839994 0.652864
854 1 0.57981 0.917467 0.827769
782 1 0.576642 0.932594 0.657124
783 1 0.585778 0.835458 0.731353
786 1 0.750767 0.922954 0.669349
788 1 0.674727 0.924983 0.742593
787 1 0.752062 0.835739 0.749434
791 1 0.917021 0.835785 0.744723
769 1 0.99912 0.846395 0.652383
790 1 0.921183 0.92315 0.662644
772 1 0.00341393 0.90913 0.747613
792 1 0.829123 0.912909 0.751223
797 1 0.164148 0.518022 0.840587
743 1 0.925487 0.504538 0.743626
701 1 0.161022 0.837567 0.507009
821 1 0.164913 0.649555 0.836269
800 1 0.158782 0.585695 0.940475
819 1 0.0745564 0.662066 0.928238
798 1 0.248387 0.587973 0.841134
804 1 0.322233 0.595161 0.933904
807 1 0.583263 0.504444 0.921882
709 1 0.510815 0.837723 0.503699
864 1 0.83853 0.917896 0.920593
802 1 0.414617 0.602292 0.846028
827 1 0.423273 0.672628 0.934179
489 1 0.340855 0.834713 0.994127
698 1 0.0805758 0.906606 0.511338
808 1 0.496766 0.594082 0.937209
829 1 0.493647 0.674803 0.837241
812 1 0.664798 0.586822 0.917195
433 1 0.0025865 0.515544 0.98825
221 1 0.162196 0.998127 0.512066
737 1 0.666727 0.520817 0.67897
811 1 0.762796 0.510025 0.919169
816 1 0.827928 0.60698 0.924979
835 1 0.741409 0.677619 0.923242
815 1 0.90668 0.509214 0.924165
305 1 0.667035 0.996651 0.662055
796 1 0.999709 0.579271 0.910837
839 1 0.918957 0.651308 0.930615
650 1 0.087896 0.603126 0.502805
818 1 0.0940279 0.749246 0.846164
824 1 0.168672 0.764062 0.929319
823 1 0.236086 0.678051 0.922003
822 1 0.248895 0.750874 0.831122
293 1 0.147591 0.997639 0.675702
825 1 0.32012 0.667979 0.854041
828 1 0.337105 0.760791 0.913508
826 1 0.416098 0.753982 0.823125
855 1 0.595108 0.840516 0.904082
832 1 0.501076 0.758089 0.899464
831 1 0.573344 0.664288 0.908834
725 1 0.17415 0.50886 0.673632
299 1 0.413144 0.998944 0.752582
861 1 0.836176 0.836216 0.843447
840 1 0.822679 0.743801 0.932618
836 1 0.653136 0.752649 0.917808
841 1 0.0139095 0.8355 0.849397
838 1 0.905462 0.745978 0.853638
859 1 0.74828 0.833255 0.936628
820 1 0.0131186 0.755854 0.94433
863 1 0.912788 0.830613 0.925646
843 1 0.0891632 0.853218 0.918928
673 1 0.992827 0.670441 0.523746
842 1 0.0797547 0.92808 0.835029
848 1 0.175961 0.927199 0.933026
862 1 0.919394 0.92812 0.837151
845 1 0.164375 0.852416 0.84019
846 1 0.259654 0.924649 0.840201
847 1 0.254915 0.836612 0.920039
849 1 0.348047 0.843131 0.836878
852 1 0.334906 0.91999 0.919734
850 1 0.404079 0.929996 0.836529
851 1 0.421141 0.841433 0.917157
713 1 0.666398 0.833553 0.508127
856 1 0.493959 0.929515 0.907822
853 1 0.494343 0.841763 0.837544
654 1 0.244906 0.600831 0.511239
449 1 0.669921 0.511528 0.990508
801 1 0.321119 0.513629 0.844606
653 1 0.168604 0.525549 0.506574
793 1 0.0058475 0.511483 0.825206
682 1 0.425633 0.763528 0.505732
657 1 0.33674 0.513258 0.505811
