ITEM: TIMESTEP
16000
ITEM: NUMBER OF ATOMS
864
ITEM: BOX BOUNDS pp pp pp
0.0000000000000000e+00 3.1559999999999999e+01
0.0000000000000000e+00 3.1559999999999999e+01
0.0000000000000000e+00 3.1559999999999999e+01
ITEM: ATOMS id type xs ys zs
4 1 0.0487182 0.0878794 0.051097
38 1 0.107095 0.102095 0.14932
37 1 0.0173766 0.0136862 0.152217
8 1 0.193932 0.106701 0.0664815
42 1 0.271682 0.0745794 0.155713
41 1 0.180581 0.0192678 0.141651
19 1 0.282372 0.165581 0.0661068
7 1 0.278552 0.0146001 0.0672783
12 1 0.362102 0.0894981 0.0637569
46 1 0.440132 0.0846206 0.153437
45 1 0.365655 0.00393823 0.152464
11 1 0.441448 0.00179984 0.0480628
15 1 0.12406 0.185448 0.0703177
16 1 0.0294922 0.252833 0.0587814
50 1 0.114034 0.254504 0.144991
49 1 0.0163913 0.173113 0.155227
61 1 0.0400705 0.332225 0.140873
20 1 0.212024 0.260494 0.0674373
53 1 0.193541 0.184777 0.154184
65 1 0.198855 0.32146 0.165847
57 1 0.350676 0.172539 0.161971
24 1 0.33954 0.258431 0.0790339
23 1 0.428621 0.176756 0.0625923
58 1 0.429678 0.267526 0.133604
27 1 0.133895 0.341876 0.0806091
62 1 0.109074 0.41462 0.155064
28 1 0.0388001 0.414149 0.0510147
32 1 0.189947 0.442864 0.0664738
31 1 0.27478 0.347306 0.0778055
66 1 0.272376 0.432002 0.149013
69 1 0.368931 0.348832 0.153837
36 1 0.356186 0.434203 0.0712085
35 1 0.43083 0.351929 0.0642412
70 1 0.457786 0.440078 0.154405
40 1 0.030455 0.103375 0.23221
73 1 0.0296255 0.0194026 0.317094
39 1 0.106956 0.00762156 0.221332
44 1 0.186794 0.0849002 0.252767
78 1 0.273644 0.0820926 0.317346
77 1 0.182964 0.00518032 0.32673
48 1 0.351354 0.0905154 0.242703
82 1 0.455572 0.0948619 0.316913
47 1 0.444701 0.0137975 0.231337
51 1 0.119292 0.180659 0.241051
85 1 0.0210766 0.174431 0.315086
86 1 0.095726 0.251061 0.31762
52 1 0.0306378 0.261117 0.231195
63 1 0.114376 0.329991 0.234613
54 1 0.272322 0.250822 0.166819
55 1 0.27142 0.172519 0.242899
89 1 0.188356 0.180806 0.324808
56 1 0.191984 0.25016 0.242549
90 1 0.279817 0.260758 0.311261
59 1 0.4435 0.190271 0.229827
60 1 0.368534 0.266993 0.222689
94 1 0.455955 0.256365 0.307123
93 1 0.361196 0.175614 0.306613
64 1 0.0361174 0.414416 0.251948
98 1 0.117288 0.418877 0.322734
97 1 0.0244545 0.338056 0.325299
289 1 0.0328563 0.497166 0.326526
101 1 0.196582 0.341049 0.313993
67 1 0.276725 0.356626 0.239386
68 1 0.190609 0.431565 0.237526
102 1 0.273091 0.428924 0.323136
293 1 0.193385 0.499818 0.320366
71 1 0.443716 0.350899 0.238298
105 1 0.359127 0.344216 0.302941
106 1 0.434117 0.429153 0.317238
72 1 0.361053 0.445033 0.244052
74 1 0.102222 0.0941834 0.333731
76 1 0.0286113 0.0924376 0.409535
109 1 0.0241967 0.0256275 0.492611
110 1 0.119743 0.0915869 0.478611
75 1 0.111965 0.0127095 0.41953
114 1 0.290568 0.104187 0.486318
80 1 0.202202 0.0997151 0.402733
79 1 0.281641 0.0093461 0.42434
113 1 0.200405 0.0105143 0.484522
117 1 0.378974 0.00528023 0.467973
84 1 0.354115 0.100929 0.40093
118 1 0.452727 0.0975436 0.472317
121 1 0.0160008 0.175577 0.492208
87 1 0.0976578 0.183341 0.413808
88 1 0.0350757 0.262155 0.405612
122 1 0.119889 0.266899 0.485369
125 1 0.187158 0.174028 0.478936
126 1 0.288576 0.263086 0.481902
91 1 0.285471 0.181288 0.394052
92 1 0.201907 0.261662 0.410565
130 1 0.441922 0.257043 0.485405
129 1 0.359865 0.178118 0.48436
95 1 0.437386 0.178042 0.397577
96 1 0.373521 0.253594 0.382758
100 1 0.0352689 0.43027 0.405334
133 1 0.0320797 0.353066 0.491011
99 1 0.11951 0.344696 0.414016
138 1 0.28311 0.432832 0.481702
103 1 0.269595 0.339748 0.39463
104 1 0.197768 0.421708 0.398336
137 1 0.206201 0.346179 0.487835
142 1 0.45374 0.422047 0.480395
107 1 0.453167 0.337122 0.397298
108 1 0.360084 0.421409 0.40109
141 1 0.351521 0.346864 0.471479
146 1 0.111642 0.099089 0.637284
145 1 0.0171635 0.0260721 0.641758
112 1 0.0261084 0.103941 0.562341
111 1 0.101516 0.00791927 0.570918
115 1 0.271901 0.0169717 0.561166
116 1 0.187976 0.0923569 0.568651
150 1 0.290687 0.103896 0.641965
149 1 0.18959 0.0235527 0.64295
153 1 0.36831 0.0119058 0.647007
120 1 0.367612 0.086585 0.544344
154 1 0.429185 0.0979517 0.653432
119 1 0.443311 0.00747857 0.559497
123 1 0.0994765 0.179645 0.569061
124 1 0.0316697 0.260906 0.561519
158 1 0.114125 0.266855 0.652252
157 1 0.0132551 0.170296 0.656287
161 1 0.196366 0.178146 0.650868
127 1 0.272085 0.185725 0.557078
128 1 0.191855 0.255384 0.574241
162 1 0.286824 0.256277 0.656138
173 1 0.196938 0.333064 0.666368
131 1 0.452271 0.173043 0.572724
165 1 0.361852 0.18278 0.654006
132 1 0.360726 0.262233 0.561529
166 1 0.442018 0.248636 0.6452
143 1 0.443384 0.332775 0.56682
169 1 0.0072815 0.337096 0.650359
135 1 0.119575 0.344078 0.568931
170 1 0.129787 0.422651 0.64917
136 1 0.0313408 0.431767 0.579243
134 1 0.117733 0.432082 0.501165
139 1 0.286616 0.34596 0.568823
140 1 0.210774 0.426873 0.568449
174 1 0.276292 0.431426 0.651543
365 1 0.204891 0.495403 0.659789
177 1 0.368571 0.333622 0.64506
144 1 0.366699 0.420886 0.578376
178 1 0.453166 0.418815 0.645175
148 1 0.0123689 0.090406 0.736025
181 1 0.022132 0.00729254 0.807225
182 1 0.117231 0.0899699 0.789989
147 1 0.10066 0.0177239 0.713825
152 1 0.210713 0.092458 0.718182
186 1 0.28244 0.0937053 0.819803
151 1 0.281265 0.0135308 0.722743
185 1 0.196104 0.0158808 0.795784
156 1 0.36535 0.0859437 0.743732
190 1 0.446615 0.090824 0.82981
193 1 0.0208296 0.173344 0.801728
159 1 0.107212 0.178473 0.722918
194 1 0.120375 0.267639 0.812418
160 1 0.0189639 0.250137 0.730151
205 1 0.0232622 0.324612 0.822719
197 1 0.200847 0.170168 0.814828
163 1 0.276004 0.17007 0.735571
164 1 0.20059 0.244686 0.734889
198 1 0.28064 0.257576 0.817967
175 1 0.272186 0.327173 0.736242
168 1 0.369728 0.248178 0.745531
167 1 0.454111 0.176769 0.741216
201 1 0.361587 0.179154 0.823139
202 1 0.453772 0.270719 0.820778
179 1 0.455118 0.332776 0.723452
172 1 0.0198915 0.410615 0.745134
171 1 0.107392 0.345602 0.723522
206 1 0.0965648 0.428402 0.825264
363 1 0.105414 0.496904 0.735818
209 1 0.196206 0.344934 0.822131
210 1 0.281486 0.42182 0.813178
176 1 0.189505 0.427758 0.744287
367 1 0.273193 0.499297 0.738533
405 1 0.374244 0.484091 0.816763
371 1 0.457648 0.496941 0.750223
214 1 0.460965 0.401233 0.80288
180 1 0.377734 0.420545 0.717052
213 1 0.364704 0.348079 0.815325
183 1 0.121763 0.0224347 0.878734
1 1 0.0360176 0.00605606 0.97184
184 1 0.00494854 0.0975495 0.894104
2 1 0.105887 0.092631 0.966364
195 1 0.112272 0.157324 0.882939
5 1 0.191653 0.0230336 0.984258
187 1 0.279024 0.00721391 0.893486
188 1 0.203072 0.0796891 0.904441
6 1 0.286724 0.103936 0.984217
9 1 0.356437 0.00478054 0.972669
10 1 0.451892 0.0852301 0.946645
192 1 0.360994 0.0870204 0.889071
25 1 0.0331955 0.323008 0.967193
13 1 0.0299214 0.171432 0.980357
14 1 0.121122 0.265666 0.990485
196 1 0.040984 0.240981 0.889097
17 1 0.189358 0.175894 0.975523
18 1 0.273624 0.258429 0.980421
200 1 0.193374 0.262554 0.885502
199 1 0.269462 0.192187 0.902137
21 1 0.360792 0.182095 0.978791
203 1 0.443057 0.181516 0.896202
204 1 0.365685 0.263404 0.895045
22 1 0.445253 0.277652 0.986999
26 1 0.131881 0.422051 0.98148
207 1 0.120666 0.338445 0.904513
208 1 0.021135 0.416688 0.920357
211 1 0.273165 0.33749 0.900617
29 1 0.205182 0.342392 0.991904
212 1 0.194282 0.427234 0.901654
30 1 0.273193 0.428665 0.993813
216 1 0.358494 0.425445 0.918586
407 1 0.433691 0.49607 0.903389
34 1 0.439523 0.423892 0.985519
215 1 0.446492 0.355888 0.889385
33 1 0.347953 0.342537 0.988097
220 1 0.0227773 0.593919 0.0720803
254 1 0.1189 0.597576 0.149134
253 1 0.0449987 0.512217 0.14702
219 1 0.116641 0.534318 0.0622806
224 1 0.202746 0.609952 0.0719438
258 1 0.271736 0.596466 0.162248
223 1 0.270354 0.509972 0.0762748
257 1 0.168427 0.505327 0.162353
228 1 0.358633 0.605243 0.0755682
261 1 0.349419 0.508405 0.145048
262 1 0.439024 0.60751 0.152489
227 1 0.438525 0.525364 0.0775956
231 1 0.10814 0.668013 0.0727887
232 1 0.0339646 0.749364 0.0651175
266 1 0.119752 0.748154 0.135779
265 1 0.020117 0.679902 0.158594
277 1 0.0417842 0.831563 0.152926
269 1 0.200247 0.687888 0.164346
236 1 0.200601 0.76428 0.0697272
235 1 0.284302 0.68277 0.0640373
270 1 0.269451 0.761275 0.154887
240 1 0.363668 0.76676 0.0617867
273 1 0.349362 0.697498 0.146083
239 1 0.431201 0.680459 0.0766834
274 1 0.436636 0.754226 0.163621
244 1 0.0280329 0.91822 0.0588601
243 1 0.117 0.847387 0.0629404
278 1 0.110573 0.930756 0.142418
3 1 0.101401 0.998819 0.0481748
247 1 0.280975 0.852621 0.0767954
248 1 0.192696 0.925021 0.0575111
282 1 0.27899 0.932215 0.153016
281 1 0.204805 0.859903 0.155824
251 1 0.443601 0.843226 0.076325
285 1 0.364763 0.847304 0.156158
252 1 0.374248 0.932302 0.0488907
286 1 0.438974 0.926371 0.141078
290 1 0.108928 0.576001 0.326796
256 1 0.0276856 0.596638 0.239894
255 1 0.107185 0.504953 0.249128
260 1 0.187105 0.59087 0.233344
305 1 0.18239 0.663796 0.330484
294 1 0.273837 0.602697 0.329431
259 1 0.26903 0.508994 0.235696
263 1 0.449218 0.523423 0.2317
264 1 0.353551 0.60354 0.228208
298 1 0.440005 0.598528 0.312229
297 1 0.344199 0.514988 0.323594
267 1 0.104 0.678981 0.236271
268 1 0.0225408 0.758736 0.241805
313 1 0.0289657 0.822396 0.322017
302 1 0.121399 0.753706 0.318149
301 1 0.0293455 0.675468 0.315094
272 1 0.185216 0.763691 0.236293
306 1 0.281909 0.747305 0.318772
271 1 0.275104 0.682673 0.232677
275 1 0.45195 0.694323 0.239083
276 1 0.367207 0.759995 0.242807
310 1 0.447925 0.762105 0.324778
309 1 0.364228 0.680104 0.30671
321 1 0.355209 0.832549 0.326749
279 1 0.114466 0.857725 0.239306
280 1 0.0313681 0.915611 0.250112
318 1 0.271581 0.92381 0.316869
283 1 0.269547 0.834301 0.247013
284 1 0.186019 0.93446 0.239527
317 1 0.197238 0.851077 0.328322
43 1 0.263298 0.995568 0.23042
287 1 0.44987 0.838826 0.232867
322 1 0.446485 0.927196 0.309673
288 1 0.36387 0.911754 0.238689
81 1 0.347732 0.997729 0.317307
325 1 0.0333765 0.508698 0.499818
337 1 0.0302603 0.658732 0.484917
292 1 0.0306504 0.585842 0.413359
326 1 0.117366 0.597122 0.486275
291 1 0.105312 0.502213 0.417
330 1 0.275149 0.594054 0.483587
296 1 0.189234 0.588784 0.409896
329 1 0.200863 0.502449 0.495489
295 1 0.270223 0.510836 0.409717
333 1 0.376192 0.504875 0.477852
299 1 0.435879 0.507436 0.391984
334 1 0.448926 0.587223 0.475107
300 1 0.356432 0.58599 0.39539
304 1 0.0234784 0.75726 0.411017
303 1 0.101633 0.668547 0.404928
338 1 0.107627 0.752261 0.48561
342 1 0.288458 0.737325 0.483196
319 1 0.276394 0.82636 0.408133
341 1 0.190232 0.668167 0.488056
308 1 0.188799 0.750639 0.410536
307 1 0.276606 0.675315 0.401363
346 1 0.453774 0.770223 0.478115
311 1 0.448321 0.679217 0.389667
345 1 0.377366 0.668678 0.480528
312 1 0.359313 0.750257 0.399637
350 1 0.123907 0.932292 0.497969
314 1 0.113282 0.92201 0.334792
316 1 0.0305638 0.939991 0.417223
315 1 0.107306 0.852307 0.410162
349 1 0.0218958 0.850528 0.494917
320 1 0.205673 0.936002 0.403232
354 1 0.277912 0.912376 0.473068
353 1 0.20094 0.838384 0.486149
324 1 0.360955 0.921023 0.40349
323 1 0.44476 0.851522 0.404156
358 1 0.450366 0.918488 0.484087
357 1 0.355013 0.838086 0.475315
83 1 0.449857 0.997318 0.389104
362 1 0.112717 0.586877 0.656305
328 1 0.0307905 0.589376 0.569531
327 1 0.125608 0.513527 0.578704
361 1 0.0315637 0.509591 0.656617
332 1 0.20558 0.582871 0.560949
366 1 0.282187 0.574637 0.655147
343 1 0.291294 0.664932 0.563453
331 1 0.287484 0.50392 0.565636
336 1 0.366231 0.588105 0.545847
381 1 0.368789 0.666604 0.638541
369 1 0.37406 0.523898 0.643392
370 1 0.458296 0.603933 0.639393
335 1 0.44551 0.502798 0.568111
373 1 0.017843 0.67494 0.644497
339 1 0.101531 0.68285 0.57114
340 1 0.0137247 0.743498 0.561183
374 1 0.0956635 0.764942 0.647536
377 1 0.200814 0.678038 0.626158
344 1 0.192288 0.762462 0.559297
378 1 0.278045 0.762217 0.643759
355 1 0.284478 0.827261 0.554853
389 1 0.201775 0.832952 0.648371
347 1 0.474496 0.688959 0.559325
348 1 0.370821 0.760696 0.562026
382 1 0.464511 0.745149 0.653192
385 1 0.0187079 0.840475 0.638199
351 1 0.123256 0.852182 0.569227
386 1 0.119576 0.921739 0.644647
352 1 0.0225239 0.939117 0.559325
356 1 0.215257 0.920553 0.570327
390 1 0.290815 0.921523 0.634113
359 1 0.443291 0.846383 0.558226
393 1 0.36527 0.835547 0.630309
360 1 0.367454 0.934592 0.556929
394 1 0.443204 0.935892 0.642138
364 1 0.0239144 0.605559 0.740089
398 1 0.112994 0.598448 0.8088
397 1 0.0267963 0.516628 0.804795
368 1 0.19833 0.59511 0.73223
402 1 0.277336 0.585488 0.810282
401 1 0.180793 0.512033 0.820744
372 1 0.366823 0.573024 0.737801
406 1 0.440792 0.595166 0.81151
417 1 0.349607 0.654569 0.796766
375 1 0.109824 0.678349 0.71996
376 1 0.0334853 0.761958 0.737933
410 1 0.12528 0.747479 0.807596
409 1 0.0406447 0.682488 0.808157
379 1 0.269586 0.671177 0.718256
413 1 0.201424 0.672846 0.821365
380 1 0.195087 0.75482 0.727919
425 1 0.189576 0.82676 0.811901
391 1 0.281899 0.832145 0.726702
414 1 0.283736 0.749033 0.804923
383 1 0.433704 0.681144 0.732004
384 1 0.36854 0.754939 0.710443
418 1 0.440971 0.769581 0.809414
421 1 0.0418427 0.845342 0.818827
388 1 0.0261425 0.920888 0.719214
387 1 0.113887 0.848816 0.72302
422 1 0.11495 0.936818 0.803168
392 1 0.210197 0.918196 0.712016
426 1 0.279259 0.917878 0.804514
155 1 0.449223 0.999703 0.737598
395 1 0.452356 0.84135 0.715315
429 1 0.363021 0.838161 0.80832
396 1 0.358381 0.913691 0.723362
430 1 0.425154 0.919057 0.808573
189 1 0.359466 0.999571 0.800979
400 1 0.0385566 0.593695 0.884021
218 1 0.109783 0.597478 0.980909
399 1 0.112419 0.517192 0.89921
217 1 0.0391411 0.512192 0.976286
403 1 0.270621 0.514738 0.887014
404 1 0.199258 0.598136 0.897875
222 1 0.274254 0.583859 0.992886
221 1 0.182765 0.512093 0.977663
415 1 0.282375 0.661806 0.902626
408 1 0.365749 0.584967 0.913041
225 1 0.357988 0.513583 0.992846
226 1 0.434202 0.607067 0.994439
229 1 0.0378317 0.67338 0.986892
230 1 0.118129 0.753003 0.990215
412 1 0.048029 0.754638 0.896336
411 1 0.121457 0.668473 0.904179
241 1 0.0393579 0.832865 0.978611
423 1 0.119918 0.833209 0.905454
234 1 0.282346 0.769666 0.977355
233 1 0.193973 0.672887 0.994892
416 1 0.195533 0.751544 0.895233
238 1 0.462084 0.753213 0.978868
237 1 0.360726 0.692892 0.983545
419 1 0.433463 0.675522 0.89312
420 1 0.364917 0.768138 0.888209
242 1 0.101462 0.915135 0.970297
424 1 0.0267596 0.925764 0.887121
246 1 0.275468 0.930474 0.983099
427 1 0.282247 0.837952 0.89039
428 1 0.204969 0.920269 0.887352
245 1 0.200554 0.84856 0.981099
249 1 0.3524 0.852262 0.978916
191 1 0.443046 0.9843 0.894862
431 1 0.444075 0.848106 0.902002
432 1 0.351074 0.917345 0.888654
250 1 0.447026 0.919068 0.982806
470 1 0.617789 0.0808077 0.139928
436 1 0.518376 0.101972 0.0617452
435 1 0.617941 0.00623561 0.0626377
469 1 0.516429 0.000441495 0.134406
440 1 0.702215 0.076906 0.0501765
474 1 0.762063 0.0957757 0.153842
444 1 0.845115 0.0907192 0.0738775
478 1 0.931514 0.0845846 0.13862
477 1 0.860863 5.92687e-05 0.142518
447 1 0.607655 0.176873 0.0711958
482 1 0.609631 0.263578 0.148115
448 1 0.529449 0.260447 0.0614929
481 1 0.5034 0.182737 0.134723
451 1 0.776291 0.173553 0.0618657
485 1 0.693281 0.173655 0.134399
452 1 0.693621 0.266886 0.062609
486 1 0.780059 0.255534 0.141931
489 1 0.864985 0.184494 0.143977
456 1 0.873614 0.276371 0.0734212
455 1 0.935649 0.17796 0.0580434
490 1 0.948708 0.258106 0.151007
459 1 0.609072 0.352176 0.0654798
460 1 0.521016 0.439131 0.0618263
493 1 0.517517 0.344127 0.135655
497 1 0.706108 0.347269 0.148194
463 1 0.785363 0.358958 0.0857054
464 1 0.689724 0.430469 0.0775925
498 1 0.78438 0.440451 0.14434
467 1 0.955256 0.353611 0.063295
468 1 0.8661 0.426872 0.0653213
501 1 0.869203 0.341372 0.159384
502 1 0.968783 0.435207 0.153411
659 1 0.940871 0.494549 0.0628246
506 1 0.615065 0.096708 0.311427
472 1 0.521393 0.0971697 0.231443
505 1 0.533425 0.00704486 0.307937
471 1 0.613801 0.0200754 0.236589
509 1 0.689438 0.0170892 0.313702
476 1 0.686119 0.112914 0.229222
510 1 0.784854 0.0978206 0.321925
475 1 0.780455 0.00562822 0.249087
480 1 0.857287 0.093368 0.246093
514 1 0.944193 0.0769163 0.30915
513 1 0.851854 0.00422733 0.323801
484 1 0.525726 0.258305 0.230615
517 1 0.541061 0.175381 0.307632
483 1 0.598165 0.170311 0.20296
518 1 0.615934 0.250456 0.307645
495 1 0.613884 0.33269 0.223262
521 1 0.705359 0.181364 0.314011
487 1 0.791187 0.179397 0.21861
488 1 0.704258 0.249615 0.217952
522 1 0.778821 0.270556 0.299678
525 1 0.879496 0.17422 0.316063
491 1 0.949087 0.174174 0.231277
492 1 0.870615 0.259706 0.24088
526 1 0.959829 0.255638 0.321489
496 1 0.517182 0.454521 0.248236
494 1 0.591744 0.427118 0.175636
529 1 0.538088 0.339936 0.304153
530 1 0.606942 0.417443 0.318019
499 1 0.784033 0.352366 0.221536
533 1 0.700386 0.342852 0.299023
534 1 0.790753 0.416213 0.316397
500 1 0.689985 0.417912 0.224656
725 1 0.704151 0.49921 0.300349
537 1 0.868605 0.344011 0.292345
503 1 0.956048 0.344688 0.231426
538 1 0.94808 0.418491 0.328408
504 1 0.874021 0.431574 0.225125
508 1 0.529031 0.101946 0.395325
542 1 0.598542 0.0817016 0.489959
541 1 0.521126 0.0130166 0.474444
507 1 0.602091 0.00183174 0.391633
512 1 0.666761 0.093061 0.404743
546 1 0.772132 0.0813496 0.473365
523 1 0.780036 0.165097 0.415306
511 1 0.76103 0.00830129 0.399116
545 1 0.682142 0.0161551 0.479421
549 1 0.867636 0.0164267 0.486561
550 1 0.940214 0.0982297 0.4837
515 1 0.942984 0.00670824 0.411663
516 1 0.8488 0.0753698 0.401663
553 1 0.524757 0.18366 0.472386
554 1 0.616806 0.251275 0.497223
519 1 0.612391 0.179845 0.397016
520 1 0.536214 0.260912 0.382585
565 1 0.537779 0.320368 0.475605
557 1 0.697005 0.17733 0.471309
558 1 0.774719 0.2617 0.489883
524 1 0.698866 0.257198 0.387022
561 1 0.869393 0.178125 0.486406
562 1 0.94953 0.271864 0.487547
527 1 0.945385 0.166955 0.406851
528 1 0.881389 0.260989 0.396026
757 1 0.530324 0.491147 0.484814
531 1 0.618287 0.339982 0.395825
532 1 0.535546 0.410652 0.406196
566 1 0.619922 0.426777 0.467717
536 1 0.699437 0.415957 0.375487
535 1 0.789165 0.342582 0.390063
570 1 0.767606 0.432017 0.489034
569 1 0.678291 0.341744 0.493857
574 1 0.941123 0.44052 0.495499
573 1 0.849817 0.337399 0.481643
539 1 0.946534 0.355254 0.404118
540 1 0.868727 0.425722 0.409614
544 1 0.518512 0.0805114 0.575279
543 1 0.6171 0.00134543 0.566082
555 1 0.597083 0.164468 0.570011
578 1 0.619285 0.0978186 0.648207
577 1 0.546357 0.00423308 0.645953
548 1 0.691358 0.094468 0.568677
582 1 0.766467 0.0823841 0.656303
581 1 0.689307 0.00922844 0.654982
547 1 0.765237 0.0110985 0.563279
552 1 0.846843 0.0855189 0.567122
597 1 0.857759 0.166515 0.656961
586 1 0.934847 0.0910123 0.627425
585 1 0.860819 0.010956 0.647617
551 1 0.938584 0.0149329 0.558637
556 1 0.527056 0.256787 0.582343
590 1 0.619225 0.256557 0.654764
589 1 0.542633 0.176111 0.658854
559 1 0.782256 0.16857 0.588331
593 1 0.69982 0.176322 0.654607
560 1 0.698955 0.24471 0.578846
594 1 0.782171 0.273635 0.648968
563 1 0.947782 0.187529 0.568851
564 1 0.850514 0.247812 0.575829
598 1 0.928765 0.241997 0.658724
567 1 0.627349 0.347014 0.578366
602 1 0.602998 0.430716 0.645323
568 1 0.535344 0.407025 0.555455
601 1 0.545558 0.336395 0.651911
759 1 0.612721 0.491259 0.556613
571 1 0.762408 0.339564 0.576665
605 1 0.702316 0.355568 0.658508
572 1 0.698562 0.44265 0.574224
606 1 0.793444 0.42621 0.657947
575 1 0.926205 0.342346 0.563987
609 1 0.867995 0.341501 0.647735
576 1 0.855247 0.418291 0.568074
610 1 0.928395 0.424035 0.66494
613 1 0.529768 0.0162282 0.818042
580 1 0.536401 0.0867911 0.734138
614 1 0.624542 0.0785116 0.814767
579 1 0.615651 0.000550757 0.729004
584 1 0.69172 0.0966117 0.731916
618 1 0.780621 0.0770616 0.830447
583 1 0.771302 0.00673311 0.74484
629 1 0.698304 0.15729 0.824331
588 1 0.845341 0.0891424 0.753277
622 1 0.934247 0.0903973 0.812362
587 1 0.938341 0.00823347 0.739554
625 1 0.531777 0.174128 0.824862
591 1 0.617449 0.171639 0.7429
592 1 0.528804 0.259426 0.742908
626 1 0.622354 0.248645 0.824741
637 1 0.54155 0.33211 0.823767
596 1 0.688088 0.270614 0.727884
595 1 0.76681 0.182967 0.743356
630 1 0.770407 0.257262 0.825546
641 1 0.698123 0.332819 0.811828
599 1 0.926873 0.171331 0.738058
600 1 0.855424 0.252116 0.741965
634 1 0.940602 0.251376 0.81476
633 1 0.86042 0.173285 0.82025
603 1 0.61825 0.345985 0.737732
638 1 0.606559 0.421347 0.832602
604 1 0.535152 0.417276 0.722989
607 1 0.794309 0.348754 0.748853
608 1 0.694078 0.426549 0.74
642 1 0.754142 0.422508 0.820822
799 1 0.796164 0.495084 0.760412
833 1 0.689751 0.498451 0.812337
645 1 0.872976 0.338241 0.82648
611 1 0.937429 0.335193 0.738757
612 1 0.872976 0.426679 0.754017
616 1 0.548963 0.0936563 0.897483
433 1 0.524714 0.013736 0.968198
434 1 0.605188 0.084806 0.991427
615 1 0.611622 0.00310191 0.902112
617 1 0.695701 0.002707 0.835502
620 1 0.696563 0.0935603 0.912167
438 1 0.785654 0.0930765 0.982578
619 1 0.787205 0.0078975 0.905955
623 1 0.9347 0.00832613 0.892013
442 1 0.953548 0.0911968 0.987615
624 1 0.87406 0.0983551 0.90252
441 1 0.868917 0.0156192 0.976319
445 1 0.513163 0.172044 0.972125
628 1 0.5325 0.253696 0.906002
627 1 0.624258 0.176754 0.896097
446 1 0.603857 0.268783 0.983207
449 1 0.700303 0.173419 0.98668
450 1 0.770848 0.274292 0.991299
631 1 0.767058 0.178927 0.907727
632 1 0.692997 0.257199 0.910993
454 1 0.952277 0.25504 0.977742
635 1 0.939608 0.188288 0.897995
636 1 0.853733 0.248261 0.909332
453 1 0.861904 0.169246 0.987729
639 1 0.622244 0.340432 0.903231
640 1 0.524334 0.440897 0.885675
457 1 0.5306 0.354831 0.975999
458 1 0.598743 0.434384 0.980513
462 1 0.771756 0.428265 0.993523
644 1 0.690652 0.421085 0.905514
461 1 0.687216 0.362406 0.996601
643 1 0.778961 0.341156 0.903611
835 1 0.768574 0.499411 0.888944
466 1 0.938081 0.440064 0.976538
465 1 0.859202 0.348239 0.977791
648 1 0.846579 0.424694 0.90191
647 1 0.943353 0.338177 0.909025
646 1 0.94505 0.419421 0.835513
657 1 0.84632 0.497711 0.979223
686 1 0.606398 0.589385 0.152425
652 1 0.533728 0.591538 0.0679571
651 1 0.622252 0.514915 0.0708632
685 1 0.529589 0.522038 0.15511
656 1 0.683116 0.602663 0.0798695
690 1 0.790021 0.596996 0.160761
689 1 0.698 0.527396 0.15535
667 1 0.783797 0.663202 0.0773122
655 1 0.770459 0.526296 0.0834691
693 1 0.871941 0.508624 0.150875
660 1 0.869036 0.58184 0.0614905
694 1 0.946883 0.595281 0.156737
663 1 0.599613 0.679327 0.0646603
698 1 0.609519 0.761974 0.160814
664 1 0.52322 0.759838 0.0753445
697 1 0.531906 0.682673 0.159004
675 1 0.611814 0.83112 0.0748886
701 1 0.701577 0.680666 0.159565
668 1 0.686382 0.757124 0.073968
702 1 0.780084 0.75938 0.158064
665 1 0.705846 0.680482 0.00154164
705 1 0.865965 0.673527 0.147823
671 1 0.946829 0.667055 0.061478
672 1 0.873008 0.748136 0.0720611
706 1 0.951771 0.768937 0.15467
710 1 0.620019 0.933344 0.152941
709 1 0.532255 0.841437 0.146929
676 1 0.539143 0.907225 0.0660647
679 1 0.781535 0.838754 0.0745836
713 1 0.701619 0.842245 0.155162
680 1 0.688049 0.9194 0.0578422
714 1 0.790148 0.924222 0.142878
439 1 0.78022 0.989954 0.0485751
473 1 0.712755 0.994354 0.144745
717 1 0.887051 0.840868 0.127543
683 1 0.950199 0.847852 0.0431019
684 1 0.876526 0.924965 0.0484609
718 1 0.961302 0.908698 0.156004
443 1 0.957778 0.996883 0.0614145
722 1 0.618612 0.585058 0.308798
688 1 0.54449 0.597151 0.239863
721 1 0.525656 0.52376 0.3241
687 1 0.611116 0.506694 0.23969
692 1 0.703926 0.597172 0.234312
726 1 0.78416 0.586021 0.31842
691 1 0.786107 0.516637 0.231438
696 1 0.868893 0.584706 0.243703
730 1 0.950224 0.582242 0.322043
741 1 0.858533 0.665289 0.315718
695 1 0.944599 0.511451 0.227497
729 1 0.868679 0.505878 0.317499
733 1 0.543079 0.682071 0.311953
699 1 0.623476 0.67445 0.236125
734 1 0.627151 0.766304 0.323656
700 1 0.535885 0.767355 0.234181
703 1 0.770102 0.670568 0.235047
704 1 0.700245 0.772277 0.243771
738 1 0.778742 0.752066 0.311667
737 1 0.690063 0.672438 0.317935
707 1 0.939916 0.682476 0.236629
708 1 0.858533 0.766204 0.226561
742 1 0.925859 0.749768 0.325498
745 1 0.530727 0.862736 0.31085
712 1 0.519039 0.930939 0.223986
711 1 0.615943 0.847559 0.240079
746 1 0.623885 0.927403 0.31815
715 1 0.773028 0.852761 0.232293
749 1 0.706311 0.842832 0.32448
716 1 0.696138 0.925737 0.23619
750 1 0.785829 0.923259 0.324565
753 1 0.843882 0.843257 0.313012
719 1 0.943147 0.841987 0.246666
720 1 0.858097 0.926403 0.23959
754 1 0.963045 0.937579 0.327815
479 1 0.957478 0.988312 0.223609
724 1 0.526989 0.595866 0.396387
758 1 0.602938 0.570698 0.480038
723 1 0.611981 0.507759 0.387452
761 1 0.695637 0.508127 0.480296
762 1 0.767487 0.579557 0.491101
728 1 0.692532 0.582218 0.404905
727 1 0.775986 0.503443 0.400531
739 1 0.76247 0.662281 0.401341
773 1 0.694005 0.653553 0.484686
731 1 0.937101 0.508795 0.391272
732 1 0.847682 0.587889 0.406798
765 1 0.862535 0.507022 0.486829
743 1 0.942674 0.661588 0.392075
766 1 0.930885 0.593246 0.486125
770 1 0.598631 0.771016 0.478876
769 1 0.524356 0.697833 0.462836
735 1 0.608224 0.676672 0.39764
736 1 0.532257 0.76261 0.381119
740 1 0.688481 0.753499 0.409847
774 1 0.76424 0.764739 0.491721
744 1 0.843285 0.760131 0.404831
778 1 0.930946 0.760023 0.484351
755 1 0.937335 0.824751 0.402008
777 1 0.849624 0.677742 0.476907
782 1 0.61288 0.926449 0.48885
781 1 0.533094 0.851119 0.494014
748 1 0.529023 0.915218 0.409805
747 1 0.61985 0.846985 0.396055
785 1 0.694673 0.84687 0.479028
786 1 0.775003 0.933883 0.475806
751 1 0.77166 0.857744 0.411488
752 1 0.68868 0.923978 0.397255
790 1 0.93786 0.921686 0.489343
789 1 0.852548 0.84533 0.48979
756 1 0.875365 0.925427 0.390137
794 1 0.601096 0.565155 0.639882
760 1 0.519339 0.587007 0.551059
793 1 0.51704 0.504729 0.655728
763 1 0.786638 0.501052 0.578728
764 1 0.689353 0.563064 0.574858
798 1 0.770086 0.594993 0.652177
809 1 0.684903 0.660016 0.665194
797 1 0.706935 0.500854 0.661615
768 1 0.852975 0.594889 0.563506
802 1 0.95154 0.591735 0.641891
767 1 0.95072 0.5091 0.586081
801 1 0.865398 0.521073 0.646359
805 1 0.55286 0.669591 0.639566
771 1 0.595672 0.670132 0.542632
806 1 0.619694 0.769798 0.656087
772 1 0.54702 0.77547 0.564805
775 1 0.765267 0.676674 0.557178
776 1 0.690162 0.763591 0.570078
810 1 0.762205 0.746314 0.652457
779 1 0.934628 0.669752 0.554297
780 1 0.867572 0.751979 0.564477
813 1 0.867757 0.674269 0.640097
814 1 0.929208 0.760806 0.64664
817 1 0.527466 0.847024 0.645948
783 1 0.627003 0.847136 0.561998
784 1 0.5297 0.924877 0.56813
818 1 0.614786 0.910474 0.649295
821 1 0.699158 0.837985 0.655186
787 1 0.766156 0.834407 0.570343
788 1 0.699543 0.929834 0.568108
822 1 0.784561 0.920948 0.651847
791 1 0.933524 0.844611 0.567781
792 1 0.847918 0.947488 0.56061
825 1 0.863897 0.84702 0.646138
826 1 0.938868 0.936039 0.641727
830 1 0.618156 0.583939 0.807208
796 1 0.528431 0.602619 0.731427
829 1 0.535706 0.517025 0.817984
795 1 0.61155 0.501962 0.738349
800 1 0.702938 0.577623 0.746613
834 1 0.774863 0.578597 0.824335
803 1 0.935771 0.510527 0.736379
804 1 0.866002 0.591439 0.730299
838 1 0.957839 0.606716 0.815564
849 1 0.847282 0.664615 0.82975
837 1 0.874095 0.502485 0.832589
807 1 0.600357 0.674237 0.737173
808 1 0.542176 0.770081 0.723642
841 1 0.519937 0.676055 0.803652
842 1 0.607268 0.751654 0.813328
845 1 0.691794 0.679952 0.82588
811 1 0.762886 0.667906 0.743704
812 1 0.680826 0.745897 0.73606
846 1 0.776246 0.745146 0.821473
823 1 0.77517 0.822502 0.738851
857 1 0.685742 0.831143 0.802174
815 1 0.928527 0.674553 0.732353
816 1 0.864194 0.76967 0.729249
850 1 0.953585 0.750825 0.813076
861 1 0.876643 0.832073 0.815398
827 1 0.950752 0.832175 0.72811
820 1 0.527019 0.921582 0.746399
819 1 0.604101 0.847503 0.737395
853 1 0.521754 0.840466 0.813966
854 1 0.607539 0.94303 0.818221
824 1 0.707624 0.922784 0.735009
858 1 0.782384 0.905539 0.819497
862 1 0.941148 0.915583 0.79448
828 1 0.856845 0.924393 0.726823
621 1 0.857549 0.999938 0.812114
649 1 0.511275 0.53744 0.982071
832 1 0.523192 0.602679 0.8883
831 1 0.605145 0.516679 0.914513
650 1 0.618746 0.584511 0.98998
654 1 0.777156 0.593144 0.976564
836 1 0.688426 0.585457 0.900685
653 1 0.69874 0.50187 0.989781
658 1 0.955515 0.587192 0.980814
840 1 0.862913 0.591928 0.901161
839 1 0.959442 0.5175 0.902968
669 1 0.864766 0.662288 0.989612
662 1 0.601877 0.75059 0.988589
844 1 0.531409 0.757731 0.897039
843 1 0.617269 0.679328 0.89775
661 1 0.528642 0.670452 0.98943
666 1 0.777845 0.764834 0.995627
847 1 0.76799 0.688787 0.919731
848 1 0.685772 0.77049 0.902063
677 1 0.689749 0.831376 0.986076
851 1 0.95299 0.676459 0.899535
852 1 0.86662 0.74602 0.917918
670 1 0.949347 0.741779 0.985616
673 1 0.521806 0.833797 0.984223
856 1 0.521747 0.91863 0.889774
855 1 0.605807 0.851888 0.882492
674 1 0.61141 0.905259 0.983811
437 1 0.703942 0.987889 0.969696
678 1 0.774228 0.903248 0.983979
859 1 0.799249 0.834431 0.900745
860 1 0.704606 0.907949 0.89602
681 1 0.863724 0.835665 0.978273
682 1 0.953326 0.936025 0.97015
863 1 0.955903 0.841442 0.901372
864 1 0.867212 0.914471 0.90671
