ITEM: TIMESTEP
8000
ITEM: NUMBER OF ATOMS
864
ITEM: BOX BOUNDS pp pp pp
0.0000000000000000e+00 3.1559999999999999e+01
0.0000000000000000e+00 3.1559999999999999e+01
0.0000000000000000e+00 3.1559999999999999e+01
ITEM: ATOMS id type xs ys zs
5 1 0.176572 0.992147 0.997229
146 1 0.0858846 0.0770483 0.16207
8 1 0.18189 0.0719892 0.0916952
29 1 0.19504 0.152854 1.00773
12 1 0.350293 0.0910742 0.101735
150 1 0.255071 0.0767299 0.185377
6 1 0.258479 0.0718184 -0.00444399
31 1 0.26146 0.132555 0.0927768
7 1 0.262079 0.996156 0.0813942
16 1 0.504595 0.0921931 0.0848671
11 1 0.425745 0.0107989 0.0918824
10 1 0.418413 0.0996102 1.00992
158 1 0.587248 0.0754691 0.164982
17 1 0.666546 0.00197577 1.00268
20 1 0.676698 0.0844581 0.0840976
41 1 0.678121 0.176616 1.00222
15 1 0.589624 0.992249 0.0845631
24 1 0.827397 0.087548 0.0724301
43 1 0.750917 0.169056 0.0772144
4 1 -0.0132651 0.0786189 0.0967564
47 1 0.923498 0.172415 0.0841205
1 1 0.00300062 0.00445948 0.00132755
166 1 0.90644 0.0934528 0.168788
145 1 0.993531 -0.00660038 0.177176
22 1 0.921815 0.0828074 0.00335137
21 1 0.836614 0.997683 0.000926702
27 1 0.0910461 0.14653 0.0680815
170 1 0.0890631 0.245152 0.167086
51 1 0.0870469 0.343839 0.0913917
32 1 0.163288 0.244278 0.0920316
55 1 0.237917 0.32813 0.0812472
36 1 0.325044 0.23002 0.0848593
57 1 0.333301 0.316613 1.00786
35 1 0.41912 0.168245 0.102569
34 1 0.412249 0.242637 1.00026
33 1 0.324518 0.161251 0.997453
37 1 0.493475 0.172969 1.01854
40 1 0.498838 0.23962 0.0898682
39 1 0.588835 0.171268 0.0883132
182 1 0.583706 0.257354 0.157201
63 1 0.577557 0.334785 0.0730765
65 1 0.663693 0.33396 0.00283901
185 1 0.674909 0.15749 0.176302
44 1 0.659855 0.24488 0.0779212
48 1 0.850852 0.246472 0.0873837
42 1 0.754587 0.259078 1.00453
69 1 0.841306 0.325075 0.0232722
28 1 0.0159511 0.267539 0.0886888
193 1 0.0100985 0.332525 0.169005
46 1 0.929248 0.250679 0.00462811
190 1 0.918982 0.2449 0.172702
49 1 0.00268903 0.337057 0.000807958
71 1 0.928767 0.347264 0.0901095
194 1 0.0959431 0.419189 0.160674
221 1 0.172838 0.502301 0.161701
75 1 0.0911691 0.502704 0.0711176
52 1 0.0161588 0.426753 0.0906553
197 1 0.168524 0.325845 0.173478
56 1 0.178898 0.422157 0.0762531
60 1 0.327403 0.398469 0.0871343
225 1 0.331034 0.488964 0.170526
54 1 0.249861 0.414169 -0.0107102
59 1 0.406434 0.322057 0.0835184
83 1 0.411862 0.50383 0.083845
64 1 0.485896 0.406334 0.0828728
62 1 0.558925 0.411658 0.00857448
229 1 0.498801 0.49027 0.17179
87 1 0.569843 0.49151 0.0980213
209 1 0.66672 0.326347 0.169182
67 1 0.742038 0.331217 0.0866909
68 1 0.663274 0.412608 0.0864189
210 1 0.74409 0.415758 0.165608
91 1 0.747788 0.517352 0.0828982
72 1 0.84712 0.416901 0.0870236
95 1 0.919275 0.502284 0.0719027
214 1 0.93247 0.423656 0.186939
70 1 0.919962 0.412952 0.000911967
217 1 0.0090739 0.512082 0.165821
218 1 0.0873319 0.581668 0.154567
80 1 0.179923 0.579584 0.0743033
79 1 0.256424 0.488554 0.0710158
103 1 0.255374 0.672114 0.0866735
222 1 0.249096 0.592029 0.17065
84 1 0.330179 0.588878 0.077533
226 1 0.417372 0.590893 0.178202
249 1 0.336866 0.677275 0.168008
107 1 0.422098 0.663803 0.0727672
88 1 0.491468 0.579167 0.0901842
113 1 0.65713 0.66104 0.0112949
111 1 0.560666 0.664337 0.0834016
253 1 0.485337 0.669691 0.187702
230 1 0.576163 0.591704 0.178003
92 1 0.644076 0.592664 0.0964084
115 1 0.746294 0.666921 0.0846022
76 1 1.00059 0.583995 0.0825212
96 1 0.838853 0.598506 0.0795504
94 1 0.91723 0.590455 0.998362
99 1 0.090039 0.667824 0.0741227
104 1 0.178733 0.759564 0.0833593
100 1 1.0077 0.752428 0.0719074
242 1 0.0853444 0.759564 0.1638
246 1 0.255005 0.764505 0.165773
102 1 0.238793 0.747809 0.987131
127 1 0.263617 0.841009 0.0811096
245 1 0.16131 0.679967 0.160061
269 1 0.168165 0.836014 0.161228
108 1 0.343233 0.747578 0.0893816
112 1 0.482437 0.758637 0.0928545
277 1 0.492427 0.834137 0.175996
254 1 0.580293 0.751734 0.166932
110 1 0.586471 0.75505 -0.00652679
116 1 0.666577 0.750785 0.0811736
137 1 0.669843 0.834373 0.00102021
139 1 0.743114 0.825881 0.0809093
114 1 0.739597 0.755803 1.00479
119 1 0.930279 0.662289 0.0837072
120 1 0.833011 0.771174 0.0810148
117 1 0.842313 0.681696 0.0145473
118 1 0.924563 0.74542 0.99015
123 1 0.0859346 0.841986 0.081787
265 1 0.0134947 0.829049 0.16077
3 1 0.0881806 0.00558748 0.0702612
128 1 0.174322 0.916864 0.0738946
122 1 0.0949197 0.925174 0.994069
132 1 0.347126 0.929736 0.0788748
273 1 0.341774 0.83307 0.162922
149 1 0.181655 -0.00791794 0.159107
270 1 0.253797 0.91517 0.166433
131 1 0.415971 0.844619 0.0700052
136 1 0.50696 0.920168 0.0897054
274 1 0.426771 0.932322 0.165894
135 1 0.589229 0.844501 0.0881049
278 1 0.578872 0.910226 0.177943
134 1 0.588817 0.918498 1.00552
140 1 0.677824 0.926286 0.0746532
281 1 0.68219 0.852166 0.163419
19 1 0.752056 1.01216 0.0876083
144 1 0.834329 0.904652 0.0750571
138 1 0.761397 0.906562 1.00188
23 1 0.915462 -0.0118433 0.0787781
143 1 0.930402 0.831351 0.0720394
121 1 0.00837938 0.838444 0.991279
124 1 0.000889545 0.913633 0.0740724
141 1 0.845874 0.828177 0.994921
142 1 0.913575 0.908759 0.00423141
169 1 0.0114826 0.168827 0.158818
290 1 0.0958439 0.0826933 0.32548
171 1 0.0840258 0.157832 0.24373
147 1 0.0679913 0.993939 0.244226
317 1 0.153928 0.171045 0.337671
173 1 0.164455 0.160904 0.181488
152 1 0.159798 0.0703833 0.238399
156 1 0.344007 0.0740131 0.248264
151 1 0.246775 0.989532 0.248533
297 1 0.341608 1.00587 0.333307
154 1 0.430805 0.0792051 0.174889
157 1 0.505722 -0.00212584 0.177782
298 1 0.432162 0.0805775 0.32823
160 1 0.513562 0.0877449 0.247334
302 1 0.59059 0.0920005 0.332118
164 1 0.662241 0.0734534 0.251145
329 1 0.674831 0.180845 0.335196
159 1 0.578215 0.993709 0.264885
162 1 0.750624 0.0747155 0.174016
161 1 0.658684 0.993481 0.176965
165 1 0.835051 1.01007 0.166805
168 1 0.821116 0.0786077 0.249946
189 1 0.823874 0.167239 0.166299
187 1 0.743774 0.165853 0.253339
148 1 0.997722 0.0920531 0.244168
167 1 0.917212 0.00730354 0.249508
314 1 0.0735272 0.247809 0.324442
313 1 -0.000350868 0.153378 0.336122
172 1 1.00571 0.261385 0.246804
195 1 0.0910897 0.349125 0.249975
174 1 0.24573 0.248323 0.167949
201 1 0.326886 0.318139 0.170349
176 1 0.160355 0.260131 0.262066
175 1 0.24249 0.151394 0.266225
181 1 0.515248 0.167164 0.164715
177 1 0.335821 0.157444 0.189415
178 1 0.416204 0.242264 0.174094
179 1 0.411596 0.173239 0.254049
325 1 0.513393 0.159468 0.338772
180 1 0.332576 0.247735 0.257593
322 1 0.421873 0.250867 0.344467
321 1 0.348293 0.155401 0.34631
184 1 0.514355 0.241623 0.243433
183 1 0.592806 0.160081 0.240277
326 1 0.591182 0.250154 0.329182
188 1 0.673066 0.25457 0.257677
186 1 0.749971 0.243282 0.167895
192 1 0.842454 0.234804 0.252658
213 1 0.847847 0.334145 0.160984
191 1 0.928931 0.178464 0.252135
334 1 0.917436 0.254502 0.329728
215 1 0.921976 0.339041 0.239972
337 1 1.00547 0.344486 0.319236
200 1 0.174194 0.423878 0.257883
198 1 0.243403 0.411526 0.159979
199 1 0.251675 0.340484 0.263533
204 1 0.326178 0.413183 0.250406
202 1 0.402395 0.406654 0.165136
205 1 0.488996 0.330847 0.153299
203 1 0.421299 0.317586 0.252111
349 1 0.514212 0.317846 0.327659
207 1 0.59271 0.326313 0.250589
208 1 0.500856 0.417521 0.247434
206 1 0.586565 0.408143 0.173285
212 1 0.672535 0.415012 0.242011
350 1 0.583685 0.423006 0.322339
231 1 0.579979 0.493769 0.245659
211 1 0.755901 0.322813 0.229529
235 1 0.758354 0.511456 0.238403
216 1 0.832193 0.416212 0.245708
237 1 0.835394 0.516353 0.152691
196 1 0.0176052 0.425468 0.251153
239 1 0.912396 0.511941 0.23073
219 1 0.0892447 0.505969 0.251092
361 1 0.0143158 0.503773 0.324668
362 1 0.0831674 0.585845 0.335652
365 1 0.165169 0.511203 0.334912
224 1 0.157762 0.583049 0.25615
223 1 0.242821 0.519074 0.247491
247 1 0.250654 0.680216 0.251317
366 1 0.247287 0.586597 0.341662
228 1 0.325977 0.589142 0.251177
227 1 0.413428 0.493675 0.246436
370 1 0.416207 0.574515 0.32987
251 1 0.403122 0.679211 0.260539
232 1 0.497696 0.588225 0.255905
236 1 0.665743 0.578242 0.235603
255 1 0.575493 0.677433 0.252991
257 1 0.662652 0.66748 0.166232
377 1 0.674316 0.498287 0.32933
233 1 0.668814 0.494024 0.16094
234 1 0.758572 0.602088 0.17015
378 1 0.74464 0.594867 0.327045
241 1 0.0118328 0.684262 0.151831
220 1 0.0128366 0.610786 0.245724
240 1 0.833676 0.596529 0.239611
238 1 0.924741 0.594781 0.15871
382 1 0.92877 0.583219 0.315115
243 1 0.101474 0.677466 0.251545
385 1 0.0164901 0.68435 0.344299
389 1 0.175241 0.665436 0.337638
267 1 0.0913676 0.841155 0.243006
244 1 0.0121195 0.730515 0.249344
409 1 -0.00389149 0.822763 0.329867
386 1 0.0885577 0.762141 0.347297
248 1 0.172824 0.753041 0.244017
271 1 0.244014 0.849966 0.245374
390 1 0.253041 0.742426 0.337619
413 1 0.175961 0.830044 0.328439
393 1 0.331464 0.649402 0.354433
252 1 0.330579 0.764113 0.255066
250 1 0.422135 0.7606 0.176815
256 1 0.496878 0.751456 0.272981
275 1 0.418576 0.849049 0.252248
417 1 0.333067 0.844816 0.337666
394 1 0.4077 0.769505 0.333139
260 1 0.671639 0.749254 0.249662
398 1 0.587537 0.759374 0.341889
279 1 0.592188 0.817925 0.251966
261 1 0.834186 0.671693 0.147803
258 1 0.75658 0.748949 0.1646
259 1 0.754639 0.678958 0.240992
262 1 0.923829 0.764849 0.154693
263 1 0.912523 0.681228 0.22649
264 1 0.829203 0.75159 0.235766
406 1 0.920059 0.751377 0.321093
266 1 0.0856869 0.919586 0.157245
410 1 0.0840784 0.90943 0.331066
272 1 0.15551 0.920128 0.229985
276 1 0.330986 0.917548 0.247018
155 1 0.428945 0.98913 0.255392
153 1 0.345205 -0.00789541 0.181346
418 1 0.418321 0.906649 0.336549
301 1 0.506982 -0.0134092 0.347212
280 1 0.504634 0.915139 0.253308
422 1 0.589624 0.927638 0.353532
425 1 0.679998 0.821048 0.329316
284 1 0.665304 0.8987 0.256284
163 1 0.742218 -0.00184462 0.250572
283 1 0.757749 0.824858 0.247042
282 1 0.762106 0.929508 0.159557
426 1 0.755704 0.917246 0.332951
288 1 0.833009 0.914717 0.248027
286 1 0.91871 0.91017 0.154427
287 1 0.923718 0.831425 0.240797
268 1 0.994903 0.90985 0.246265
285 1 0.832103 0.845448 0.17042
289 1 0.00649168 -0.00279105 0.33844
292 1 0.00208901 0.0731814 0.427233
296 1 0.163264 0.0727099 0.412258
294 1 0.264745 0.0716611 0.335597
319 1 0.243068 0.163211 0.397897
461 1 0.163835 0.175206 0.499952
300 1 0.329409 0.0705961 0.411624
442 1 0.409637 0.0795141 0.495451
304 1 0.509606 0.0818298 0.423129
445 1 0.506398 1.00404 0.496081
308 1 0.668586 0.100842 0.41919
473 1 0.665182 0.186548 0.495487
306 1 0.757213 0.0762894 0.344285
450 1 0.756011 0.0790344 0.498628
331 1 0.760725 0.172067 0.428526
310 1 0.913627 0.0747573 0.335931
453 1 0.843792 0.991862 0.494046
312 1 0.843272 0.100102 0.420807
311 1 0.914926 0.989626 0.406041
454 1 0.925076 0.0701164 0.50078
315 1 0.0651781 0.174156 0.408715
316 1 1.00148 0.270258 0.406468
339 1 0.0894427 0.329152 0.401773
318 1 0.255163 0.25268 0.33496
341 1 0.17389 0.342865 0.336714
320 1 0.175725 0.261566 0.417227
343 1 0.252858 0.340391 0.426363
462 1 0.249812 0.244781 0.485974
324 1 0.338785 0.255528 0.414309
323 1 0.427182 0.162945 0.426292
328 1 0.50239 0.249757 0.429895
347 1 0.419788 0.346859 0.410588
327 1 0.593748 0.183021 0.418623
470 1 0.587247 0.273103 0.495203
330 1 0.755324 0.24766 0.332505
357 1 0.825685 0.334828 0.319715
332 1 0.68084 0.252247 0.419445
474 1 0.753052 0.252294 0.501854
333 1 0.838135 0.15244 0.323237
336 1 0.841514 0.24065 0.401303
477 1 0.842937 0.170087 0.497227
335 1 0.934512 0.179466 0.417293
478 1 0.913229 0.260141 0.492909
501 1 0.836344 0.339131 0.49527
338 1 0.0909692 0.425239 0.348127
363 1 0.0777936 0.501665 0.417358
340 1 -0.01002 0.422073 0.40713
482 1 0.0983506 0.41436 0.490201
344 1 0.170968 0.423923 0.416721
342 1 0.264996 0.413431 0.346945
345 1 0.344496 0.336519 0.328211
348 1 0.341704 0.433775 0.419019
489 1 0.331238 0.344916 0.517784
509 1 0.172188 0.504358 0.507385
486 1 0.256433 0.431319 0.495858
346 1 0.403566 0.424379 0.329131
352 1 0.505764 0.420113 0.395916
497 1 0.664524 0.344641 0.503074
351 1 0.581851 0.339083 0.400703
375 1 0.578323 0.504595 0.404402
494 1 0.576026 0.409947 0.490986
353 1 0.666675 0.329173 0.33577
355 1 0.753149 0.336517 0.411087
354 1 0.745369 0.417141 0.329079
356 1 0.668762 0.414575 0.410829
498 1 0.760276 0.418537 0.488263
358 1 0.920672 0.437669 0.317099
360 1 0.835026 0.426014 0.404774
359 1 0.913427 0.339263 0.398992
383 1 0.919445 0.513004 0.402223
506 1 0.0801464 0.584274 0.498824
529 1 0.995361 0.66354 0.503767
364 1 0.991658 0.588432 0.407937
505 1 0.99577 0.504263 0.502807
368 1 0.162068 0.578374 0.427299
367 1 0.254397 0.504166 0.41867
372 1 0.341955 0.559103 0.427999
391 1 0.241313 0.656908 0.421949
510 1 0.246248 0.581748 0.496766
369 1 0.315496 0.497466 0.315226
371 1 0.431567 0.492893 0.411103
376 1 0.488083 0.583623 0.408825
395 1 0.417569 0.665792 0.412871
397 1 0.496029 0.664759 0.335724
537 1 0.337534 0.658043 0.500679
374 1 0.579589 0.584136 0.33279
373 1 0.498653 0.492548 0.319071
518 1 0.602255 0.583842 0.494563
380 1 0.664436 0.584633 0.418731
379 1 0.748869 0.515818 0.410677
384 1 0.839225 0.579773 0.402833
521 1 0.668053 0.480019 0.493431
381 1 0.831947 0.504548 0.323076
407 1 0.916118 0.664845 0.399001
526 1 0.917953 0.580899 0.489245
387 1 0.0808174 0.672992 0.435055
411 1 0.0767019 0.838308 0.422656
388 1 -0.0133908 0.754056 0.422979
392 1 0.168979 0.753542 0.41777
396 1 0.325823 0.759497 0.428857
415 1 0.242648 0.827275 0.415654
557 1 0.173473 0.841449 0.498373
561 1 0.333154 0.847363 0.49843
421 1 0.517487 0.847939 0.336442
419 1 0.420524 0.837345 0.427359
401 1 0.668346 0.663582 0.325154
399 1 0.584241 0.680439 0.409976
400 1 0.49247 0.757754 0.403179
423 1 0.59873 0.826053 0.412783
402 1 0.758773 0.750235 0.326405
404 1 0.67485 0.747719 0.401202
403 1 0.753867 0.681476 0.403043
405 1 0.835813 0.676166 0.335024
408 1 0.833305 0.745502 0.409424
550 1 0.900892 0.749629 0.495881
549 1 0.832501 0.663899 0.489525
291 1 0.0854342 0.992524 0.412635
412 1 0.00523759 0.910951 0.411514
554 1 0.0834184 0.928488 0.49992
293 1 0.159906 0.984995 0.318916
295 1 0.233712 0.992484 0.410721
416 1 0.174379 0.908123 0.400424
414 1 0.255993 0.920198 0.325357
437 1 0.164915 1.00823 0.506827
558 1 0.248396 0.923642 0.507181
299 1 0.41615 -0.00772987 0.41661
420 1 0.331051 0.920951 0.430831
441 1 0.339873 0.998865 0.508246
424 1 0.499358 0.918661 0.423768
305 1 0.68263 0.998951 0.343654
449 1 0.680435 0.988873 0.505496
303 1 0.594352 0.00911035 0.42072
428 1 0.688417 0.900415 0.415637
307 1 0.773454 0.00848364 0.417622
427 1 0.76346 0.827233 0.413615
429 1 0.842729 0.839592 0.326557
432 1 0.826627 0.910719 0.415538
309 1 0.837207 1.0021 0.328608
430 1 0.918969 0.911826 0.335163
431 1 0.904845 0.832062 0.42058
574 1 0.923958 0.909163 0.499362
434 1 0.0851183 0.0860821 0.500684
436 1 0.993945 0.092684 0.586532
578 1 0.0667936 0.0856205 0.667833
440 1 0.169473 0.0680307 0.600894
438 1 0.253368 0.0817542 0.502196
605 1 0.172155 0.154962 0.662549
582 1 0.253229 0.0826849 0.668754
463 1 0.252037 0.158605 0.5737
465 1 0.328557 0.167025 0.489137
444 1 0.333654 0.0745047 0.59432
586 1 0.411819 0.0793226 0.664734
448 1 0.515091 0.087001 0.586696
443 1 0.428757 0.0192872 0.584718
446 1 0.608497 0.0921042 0.506094
590 1 0.584689 0.079564 0.673273
447 1 0.595769 1.00564 0.578622
589 1 0.508124 -0.00905877 0.664159
452 1 0.678944 0.0660026 0.594877
594 1 0.762445 0.0749697 0.672857
451 1 0.768961 -0.00323651 0.572289
456 1 0.834913 0.080331 0.580188
455 1 0.918354 0.000877432 0.580042
598 1 0.905124 0.0877026 0.664639
479 1 0.910461 0.177932 0.581701
621 1 0.840797 0.18866 0.659728
597 1 0.831794 0.994299 0.670393
458 1 0.0882925 0.253234 0.494945
457 1 0.00693742 0.166997 0.50392
459 1 0.0907576 0.176589 0.580977
460 1 -0.00543402 0.260729 0.575368
485 1 0.170641 0.331588 0.494979
464 1 0.182289 0.25026 0.573395
468 1 0.311691 0.25484 0.592929
609 1 0.324227 0.166565 0.65908
467 1 0.397709 0.16302 0.571038
466 1 0.39888 0.258578 0.519398
469 1 0.524684 0.171063 0.510107
633 1 0.341589 0.3338 0.672907
472 1 0.482156 0.242728 0.578929
471 1 0.602023 0.163959 0.586602
476 1 0.664732 0.266066 0.578913
613 1 0.492634 0.162492 0.660577
614 1 0.600859 0.249653 0.672531
617 1 0.68657 0.160277 0.673325
475 1 0.747481 0.171094 0.577068
618 1 0.740881 0.243299 0.66865
499 1 0.746261 0.35715 0.569882
480 1 0.83569 0.263023 0.587727
503 1 0.921235 0.346079 0.577133
622 1 0.916199 0.26299 0.660211
481 1 0.00366355 0.334198 0.505494
483 1 0.0964012 0.337371 0.571381
484 1 1.0061 0.423921 0.574231
487 1 0.249487 0.336209 0.588435
488 1 0.165223 0.421695 0.586956
511 1 0.249168 0.505346 0.584157
490 1 0.415569 0.423028 0.497568
492 1 0.336264 0.420378 0.609128
513 1 0.341549 0.494178 0.512615
491 1 0.419133 0.337796 0.594548
515 1 0.422997 0.50403 0.591798
493 1 0.487461 0.330339 0.500743
495 1 0.5696 0.324887 0.600245
496 1 0.494731 0.419171 0.575847
638 1 0.587648 0.412953 0.686466
641 1 0.673508 0.329946 0.66793
500 1 0.652891 0.414391 0.601674
525 1 0.840595 0.495491 0.489692
642 1 0.75194 0.42803 0.673895
504 1 0.847094 0.419837 0.568897
502 1 0.915485 0.404864 0.480834
527 1 0.910667 0.507925 0.573298
646 1 0.914926 0.429593 0.655637
507 1 0.0863894 0.504447 0.575858
531 1 0.0934242 0.668496 0.580059
508 1 -0.00397358 0.577147 0.575861
677 1 0.182717 0.673382 0.671952
533 1 0.165421 0.668972 0.49886
512 1 0.172777 0.590878 0.58652
654 1 0.252078 0.582239 0.668097
681 1 0.32878 0.67457 0.672486
514 1 0.42249 0.569842 0.506067
541 1 0.513848 0.659768 0.490272
516 1 0.332257 0.57489 0.581722
520 1 0.512979 0.572579 0.590514
539 1 0.418781 0.653541 0.577163
517 1 0.513437 0.49835 0.494399
519 1 0.592331 0.496794 0.574378
524 1 0.671073 0.574591 0.589409
685 1 0.503134 0.656576 0.657407
662 1 0.588709 0.575077 0.668252
545 1 0.67649 0.657632 0.493324
523 1 0.747563 0.486247 0.580495
522 1 0.737973 0.569281 0.496697
547 1 0.730783 0.661219 0.580843
666 1 0.747232 0.577721 0.671769
528 1 0.824445 0.572513 0.56565
551 1 0.898852 0.679555 0.570788
669 1 0.83487 0.502366 0.652741
530 1 0.0905126 0.759359 0.508127
673 1 0.00252287 0.669225 0.639513
674 1 0.0923195 0.746824 0.659094
534 1 0.243011 0.745978 0.502525
536 1 0.173615 0.750736 0.577969
535 1 0.260475 0.661655 0.591133
559 1 0.257668 0.835501 0.575373
538 1 0.428435 0.736399 0.493794
540 1 0.327971 0.747865 0.573055
682 1 0.41574 0.73714 0.675093
542 1 0.593587 0.748047 0.496881
543 1 0.594181 0.655436 0.583454
544 1 0.511778 0.750577 0.58463
565 1 0.514354 0.84106 0.510892
567 1 0.596521 0.833415 0.585606
546 1 0.749978 0.733762 0.502794
548 1 0.672235 0.758476 0.58778
552 1 0.816468 0.743038 0.58865
690 1 0.736605 0.729265 0.664982
573 1 0.822646 0.816985 0.516831
532 1 0.00269141 0.754333 0.576013
694 1 0.917017 0.753302 0.646015
575 1 0.917763 0.831769 0.581911
433 1 0.0172495 0.00965727 0.51473
435 1 0.0929961 0.985997 0.590583
555 1 0.0887779 0.838094 0.584512
697 1 -0.00452257 0.823355 0.663267
581 1 0.180087 0.993362 0.671623
560 1 0.178578 0.910735 0.578387
439 1 0.250248 1.00354 0.591566
564 1 0.338504 0.923004 0.58201
702 1 0.259348 0.914721 0.673752
562 1 0.415301 0.911905 0.513765
563 1 0.407102 0.820196 0.585061
706 1 0.417387 0.9282 0.668455
566 1 0.594787 0.924096 0.487247
569 1 0.666263 0.826585 0.506813
709 1 0.499423 0.838543 0.648893
568 1 0.509566 0.927789 0.574975
570 1 0.759389 0.904482 0.510529
571 1 0.75287 0.839408 0.604955
572 1 0.664746 0.914177 0.594913
576 1 0.846625 0.918796 0.585791
717 1 0.834912 0.833771 0.670409
714 1 0.747778 0.921829 0.684813
553 1 0.00902951 0.841421 0.504438
556 1 1.0089 0.913489 0.582552
718 1 0.930526 0.911841 0.668818
577 1 1.01484 -0.012507 0.657457
601 1 0.995737 0.179738 0.654854
579 1 0.082301 0.99276 0.733156
580 1 0.986828 0.0937744 0.741326
603 1 0.0831189 0.176971 0.739033
721 1 -0.00197818 0.980438 0.835313
585 1 0.327976 1.00558 0.675288
584 1 0.15565 0.0843273 0.737362
726 1 0.267052 0.0829842 0.842495
583 1 0.257876 1.00935 0.763679
588 1 0.336742 0.0723637 0.758035
611 1 0.403173 0.1806 0.734082
587 1 0.417843 0.0112046 0.744203
592 1 0.502843 0.0798849 0.742734
591 1 0.574515 1.01181 0.749725
615 1 0.599234 0.175568 0.756899
737 1 0.659632 0.98953 0.829369
593 1 0.663101 1.00314 0.67498
596 1 0.673664 0.0870174 0.7452
600 1 0.838763 0.082723 0.748034
619 1 0.766327 0.168173 0.766154
742 1 0.92525 0.076334 0.831842
623 1 0.894047 0.177822 0.752186
602 1 0.0894692 0.25288 0.653909
604 1 -0.00486318 0.265326 0.732877
627 1 0.0932336 0.326429 0.739647
606 1 0.24444 0.24926 0.675754
607 1 0.26274 0.152033 0.750632
608 1 0.163962 0.245064 0.740592
631 1 0.253346 0.329034 0.756546
750 1 0.239143 0.236746 0.832296
612 1 0.324312 0.245713 0.748286
610 1 0.405318 0.245289 0.650307
635 1 0.418848 0.323545 0.745179
753 1 0.340625 0.17068 0.827355
754 1 0.415353 0.240125 0.82421
616 1 0.507599 0.240795 0.730391
757 1 0.482297 0.156551 0.819949
758 1 0.589678 0.256404 0.828128
781 1 0.507701 0.313109 0.826934
765 1 0.836876 0.168099 0.846244
620 1 0.685669 0.248101 0.758016
624 1 0.825192 0.267861 0.763163
762 1 0.756491 0.255407 0.84531
625 1 0.999433 0.358662 0.663759
766 1 0.920548 0.254067 0.828225
647 1 0.914247 0.335478 0.742127
645 1 0.824094 0.347612 0.66107
769 1 0.988538 0.345439 0.814357
626 1 0.0915058 0.412887 0.666942
651 1 0.0822281 0.508263 0.746006
653 1 0.177607 0.486963 0.683237
629 1 0.168174 0.330616 0.661471
632 1 0.168406 0.411743 0.750499
630 1 0.249631 0.400875 0.683583
655 1 0.256687 0.513318 0.771115
636 1 0.33479 0.425557 0.746827
634 1 0.420468 0.415922 0.682027
659 1 0.414905 0.494287 0.756323
637 1 0.503015 0.349451 0.681995
639 1 0.593127 0.331875 0.754061
640 1 0.508594 0.423191 0.767447
663 1 0.588 0.504214 0.760452
643 1 0.755804 0.34019 0.739324
644 1 0.677992 0.402412 0.765194
786 1 0.771705 0.428163 0.833245
785 1 0.676542 0.340288 0.840582
628 1 0.00419571 0.427408 0.733921
648 1 0.838436 0.408854 0.752903
671 1 0.908646 0.503862 0.737924
790 1 0.919469 0.420284 0.838807
649 1 0.993398 0.516772 0.665364
793 1 -0.0097854 0.500151 0.835998
650 1 0.0922702 0.588646 0.656141
652 1 0.99003 0.577874 0.751479
675 1 0.084566 0.660721 0.738781
656 1 0.167668 0.581657 0.731054
798 1 0.265897 0.591308 0.862097
657 1 0.325576 0.50337 0.673333
658 1 0.418438 0.580529 0.668002
660 1 0.341444 0.577492 0.750388
664 1 0.506755 0.578297 0.735425
802 1 0.404906 0.593116 0.838509
661 1 0.52372 0.499512 0.67645
805 1 0.498068 0.525277 0.830027
665 1 0.670645 0.499451 0.681423
668 1 0.670913 0.583477 0.758961
667 1 0.747114 0.496349 0.749589
691 1 0.750105 0.656955 0.746701
810 1 0.754292 0.578601 0.825129
809 1 0.662638 0.504755 0.844576
813 1 0.842041 0.497758 0.836058
672 1 0.836066 0.576985 0.733368
670 1 0.900939 0.593574 0.6451
837 1 0.844488 0.666424 0.797033
818 1 0.0797565 0.746434 0.826154
679 1 0.263939 0.668613 0.756529
825 1 0.336074 0.683044 0.839903
680 1 0.173315 0.7423 0.750286
821 1 0.175285 0.661588 0.835299
678 1 0.256854 0.760736 0.652822
822 1 0.249991 0.754167 0.838382
683 1 0.431615 0.653958 0.750738
684 1 0.339539 0.751223 0.754101
826 1 0.417268 0.74586 0.835802
688 1 0.500804 0.751313 0.739213
686 1 0.5911 0.749409 0.67971
687 1 0.577819 0.668975 0.763343
857 1 0.677757 0.831669 0.826078
853 1 0.499572 0.827949 0.820049
689 1 0.653474 0.667355 0.673348
713 1 0.667379 0.831985 0.684122
692 1 0.66232 0.747594 0.757353
693 1 0.835676 0.672726 0.673238
695 1 0.93945 0.664019 0.722684
676 1 0.019811 0.7376 0.725887
696 1 0.826974 0.753453 0.739637
699 1 0.0913872 0.821186 0.747903
698 1 0.0785534 0.894196 0.673946
700 1 -0.00113658 0.915454 0.750367
701 1 0.176509 0.83031 0.654644
704 1 0.163024 0.911379 0.760107
703 1 0.245043 0.833893 0.75275
708 1 0.334876 0.929402 0.756965
705 1 0.335379 0.830481 0.675412
707 1 0.418254 0.841972 0.746343
849 1 0.348882 0.844433 0.835256
850 1 0.427286 0.918038 0.823601
712 1 0.503218 0.923327 0.756775
711 1 0.579036 0.830063 0.74917
710 1 0.577182 0.912646 0.6611
716 1 0.669226 0.921916 0.74885
715 1 0.749231 0.825991 0.749051
595 1 0.756719 1.00517 0.761388
741 1 0.849001 0.988249 0.8407
720 1 0.82188 0.908669 0.759263
861 1 0.83636 0.832297 0.829138
719 1 0.912478 0.842636 0.747407
599 1 0.909032 0.99184 0.744442
2 1 0.08688 0.0884432 0.97515
722 1 0.0710126 0.0876448 0.807553
745 1 1.00097 0.170953 0.820789
724 1 0.007711 0.0780244 0.901816
723 1 0.0873117 -0.00279699 0.910687
725 1 0.164789 0.00229112 0.818413
729 1 0.342954 0.990733 0.853323
728 1 0.18124 0.0830351 0.91541
751 1 0.25507 0.166301 0.906194
9 1 0.341452 1.0073 -0.00217963
727 1 0.249564 -0.0093913 0.916581
733 1 0.506595 0.00500581 0.83512
730 1 0.417293 0.0667217 0.836429
732 1 0.335776 0.0789732 0.924529
731 1 0.43072 0.001097 0.927183
14 1 0.592475 0.089127 1.0146
13 1 0.50899 1.01566 0.0034005
734 1 0.57067 0.105571 0.830235
736 1 0.509064 0.110266 0.917564
759 1 0.605797 0.169757 0.91849
18 1 0.746612 0.0934764 0.99636
45 1 0.834623 0.173228 1.00565
740 1 0.674997 0.0784106 0.92957
738 1 0.759577 0.0764557 0.843603
761 1 0.679315 0.143765 0.836673
763 1 0.759207 0.168216 0.915228
744 1 0.849483 0.0847439 0.916865
767 1 0.927599 0.156016 0.912118
743 1 0.920027 0.000517669 0.935851
26 1 0.0858995 0.23608 -0.00208286
747 1 0.081621 0.17019 0.888912
746 1 0.0787586 0.263435 0.82355
771 1 0.0774545 0.338883 0.902828
748 1 0.992626 0.242613 0.922017
749 1 0.164399 0.161179 0.826519
30 1 0.2398 0.254188 1.0076
752 1 0.157868 0.251041 0.915405
756 1 0.324597 0.243486 0.905614
755 1 0.413709 0.158639 0.911802
779 1 0.409442 0.320145 0.915244
38 1 0.576449 0.24613 -0.00528565
760 1 0.500419 0.228837 0.90639
764 1 0.674452 0.254723 0.918654
768 1 0.834922 0.26339 0.921792
25 1 0.00195065 0.159617 0.994714
789 1 0.846559 0.344537 0.849374
791 1 0.925633 0.325654 0.933855
50 1 0.0858784 0.416994 0.995336
770 1 0.0767561 0.434954 0.830171
776 1 0.17674 0.426516 0.916905
797 1 0.164287 0.497566 0.820817
774 1 0.244066 0.423679 0.829888
53 1 0.149413 0.322076 -0.00189081
773 1 0.172371 0.329536 0.826089
775 1 0.250966 0.334139 0.905754
780 1 0.32994 0.400996 0.909112
777 1 0.334676 0.32618 0.825873
77 1 0.165198 0.502342 0.996912
58 1 0.413553 0.4109 0.995965
778 1 0.413844 0.407989 0.845503
801 1 0.328538 0.48854 0.848771
81 1 0.334302 0.495114 0.00378529
803 1 0.407028 0.495251 0.919826
61 1 0.487427 0.31474 0.995291
85 1 0.485735 0.484786 0.00477219
782 1 0.579582 0.408053 0.835075
783 1 0.583301 0.331282 0.927847
784 1 0.505575 0.420336 0.90952
807 1 0.586084 0.492442 0.934084
787 1 0.756135 0.343436 0.931839
788 1 0.668675 0.416065 0.920939
66 1 0.75471 0.426256 0.0179273
792 1 0.834821 0.430664 0.927242
772 1 0.995385 0.420984 0.911278
73 1 1.00543 0.520746 0.995017
815 1 0.926298 0.516987 0.91732
794 1 0.0940099 0.591649 0.820629
74 1 0.0923928 0.584269 0.999411
795 1 0.079508 0.513825 0.917974
78 1 0.248609 0.596342 0.997693
800 1 0.166573 0.572858 0.918156
799 1 0.258359 0.502029 0.928436
105 1 0.328505 0.670438 1.00736
109 1 0.497487 0.661541 0.000775089
82 1 0.425609 0.586577 0.00341995
804 1 0.343019 0.584998 0.937443
827 1 0.413137 0.666758 0.9188
86 1 0.566416 0.571195 0.0139253
806 1 0.587535 0.585603 0.839875
808 1 0.504387 0.580945 0.920734
831 1 0.57744 0.662343 0.934299
833 1 0.682318 0.678668 0.842319
89 1 0.657433 0.473165 0.0132294
93 1 0.833172 0.505787 1.00761
90 1 0.741029 0.585725 1.00536
811 1 0.754236 0.49893 0.910726
812 1 0.669706 0.596422 0.917193
835 1 0.762288 0.669516 0.916644
814 1 0.912207 0.586102 0.827327
796 1 -0.00548006 0.597881 0.891055
816 1 0.83603 0.580918 0.920253
97 1 0.00238944 0.672714 0.990044
817 1 0.999879 0.679652 0.815791
98 1 0.083686 0.755494 -0.00361282
819 1 0.0840491 0.657061 0.921581
820 1 0.00743393 0.744983 0.913784
824 1 0.152116 0.742155 0.912722
101 1 0.176116 0.667316 0.0036399
823 1 0.249184 0.676289 0.913193
828 1 0.340675 0.756602 0.914904
847 1 0.257824 0.832465 0.922475
106 1 0.414011 0.756729 0.996125
133 1 0.500151 0.825093 -0.00684053
129 1 0.336414 0.828383 -0.0067411
851 1 0.429271 0.839004 0.911152
829 1 0.494469 0.672282 0.844532
832 1 0.500242 0.746321 0.911962
830 1 0.583082 0.754622 0.840133
855 1 0.56917 0.829068 0.92112
834 1 0.758677 0.746861 0.830014
836 1 0.659057 0.761254 0.916697
840 1 0.82708 0.754358 0.921347
838 1 0.910282 0.754855 0.82094
839 1 0.910146 0.67552 0.899601
863 1 0.927429 0.808998 0.903276
125 1 0.171191 0.832533 0.999382
842 1 0.0867848 0.924393 0.830557
843 1 0.0687529 0.8349 0.900508
844 1 -0.00421249 0.923335 0.925573
126 1 0.252499 0.917018 0.997698
846 1 0.25452 0.912147 0.834893
845 1 0.17039 0.83317 0.840063
848 1 0.171976 0.905493 0.915737
852 1 0.333007 0.910227 0.924617
130 1 0.417221 0.916832 0.991681
856 1 0.505984 0.921786 0.917112
854 1 0.582963 0.907274 0.843081
735 1 0.592843 -0.00609591 0.91463
860 1 0.666793 0.922218 0.927295
739 1 0.752093 0.00108152 0.925112
859 1 0.745612 0.828074 0.903576
858 1 0.758435 0.929344 0.854199
864 1 0.839952 0.915154 0.92057
841 1 -0.00167758 0.828233 0.813093
862 1 0.923995 0.904786 0.829846
