ITEM: TIMESTEP
1000
ITEM: NUMBER OF ATOMS
864
ITEM: BOX BOUNDS pp pp pp
0.0000000000000000e+00 3.1559999999999999e+01
0.0000000000000000e+00 3.1559999999999999e+01
0.0000000000000000e+00 3.1559999999999999e+01
ITEM: ATOMS id type xs ys zs
8 1 0.163921 0.0883341 0.0762408
27 1 0.0887126 0.161015 0.0931299
5 1 0.16533 0.00146059 0.0112514
2 1 0.0809412 0.0736915 0.00190136
12 1 0.331833 0.0806987 0.0702916
6 1 0.251715 0.0833086 0.00658772
78 1 0.253542 0.0830021 0.153743
101 1 0.167889 0.155416 0.166263
16 1 0.492156 0.0845202 0.0849634
11 1 0.413709 0.00841334 0.0767973
10 1 0.411446 0.101471 0.00207696
105 1 0.334382 0.15756 0.159357
85 1 0.502215 0.0139795 0.164595
86 1 0.590048 0.091975 0.15936
13 1 0.50576 0.00642147 0.00639456
14 1 0.581293 0.0931943 0.000480373
41 1 0.685281 0.160006 0.00409103
19 1 0.749952 0.00350101 0.0855625
20 1 0.674061 0.072847 0.0822094
43 1 0.755833 0.157101 0.102358
21 1 0.833295 0.00617052 0.00144227
4 1 0.994403 0.0798313 0.0857109
93 1 0.836473 0.00170556 0.14849
23 1 0.920271 0.00582977 0.0816615
24 1 0.836225 0.0830272 0.0787056
73 1 0.986848 9.75811e-05 0.164857
29 1 0.151637 0.16857 0.0129115
28 1 0.00380111 0.253239 0.0834734
51 1 0.0918724 0.3303 0.0676205
98 1 0.0886003 0.254326 0.157748
121 1 0.00704592 0.329693 0.15585
31 1 0.244539 0.16769 0.0850164
32 1 0.174252 0.251043 0.0823559
36 1 0.327682 0.256388 0.0695675
55 1 0.247045 0.330033 0.0835709
30 1 0.250435 0.233962 0.00915129
102 1 0.24948 0.251442 0.162184
129 1 0.330374 0.330104 0.162931
35 1 0.410065 0.183226 0.0823527
37 1 0.496906 0.166976 0.0139711
59 1 0.419896 0.32179 0.088829
109 1 0.487812 0.170147 0.156479
33 1 0.333733 0.16947 0.00956889
39 1 0.608736 0.166832 0.0855268
40 1 0.508222 0.247066 0.0773479
63 1 0.597279 0.321225 0.0680328
110 1 0.590344 0.257918 0.158521
133 1 0.507455 0.32693 0.157261
44 1 0.683478 0.244347 0.0812525
48 1 0.832111 0.238314 0.0756977
67 1 0.751574 0.326441 0.0858351
49 1 0.994664 0.321853 0.000782698
47 1 0.924904 0.167058 0.0913778
117 1 0.842146 0.177212 0.165599
69 1 0.84314 0.331483 0.00181099
52 1 0.0109406 0.422965 0.0931861
56 1 0.165267 0.420828 0.0867962
50 1 0.0892497 0.418651 0.00846742
122 1 0.0858224 0.427425 0.165775
125 1 0.160417 0.341483 0.158262
439 1 0.24298 0.492919 0.082273
60 1 0.331442 0.418902 0.0925142
54 1 0.247721 0.422494 7.44363e-05
58 1 0.425419 0.425547 0.00883405
130 1 0.432668 0.410303 0.159044
441 1 0.341994 0.499881 0.00516085
64 1 0.502999 0.41578 0.0833012
68 1 0.663627 0.412736 0.0718741
134 1 0.580179 0.409482 0.15664
62 1 0.583484 0.415512 0.0099177
138 1 0.760489 0.402679 0.165178
66 1 0.748721 0.404065 0.000970063
71 1 0.926372 0.339134 0.077641
72 1 0.842689 0.427167 0.0791331
141 1 0.848375 0.333822 0.160798
70 1 0.93867 0.415793 0.00544623
74 1 0.0619486 0.0781518 0.166844
76 1 0.00303766 0.0835772 0.256492
80 1 0.162543 0.0722766 0.24508
99 1 0.0831587 0.161825 0.250422
146 1 0.0856667 0.0846023 0.32093
84 1 0.332014 0.0925825 0.247266
103 1 0.245892 0.151779 0.247673
150 1 0.234124 0.0715301 0.333047
79 1 0.2511 0.00748983 0.242338
82 1 0.419079 0.099876 0.166811
88 1 0.494818 0.0857595 0.244064
83 1 0.421253 0.00531165 0.238165
157 1 0.501355 0.00596491 0.321403
89 1 0.661472 0.00148712 0.176134
92 1 0.662821 0.0821042 0.254343
158 1 0.577858 0.0936059 0.323161
185 1 0.664449 0.152055 0.32999
87 1 0.583332 0.00445145 0.240336
90 1 0.737846 0.0816916 0.169437
96 1 0.821962 0.0963721 0.249156
91 1 0.76169 0.00852417 0.242251
94 1 0.914169 0.0909312 0.181382
95 1 0.89245 0.00094346 0.248313
97 1 0.0111902 0.172835 0.174894
100 1 0.00727842 0.262471 0.245797
104 1 0.160175 0.239158 0.247856
127 1 0.236431 0.328925 0.262518
106 1 0.413459 0.253516 0.172462
107 1 0.428319 0.17497 0.257734
108 1 0.333803 0.239781 0.252665
131 1 0.419612 0.329888 0.24195
177 1 0.344063 0.168722 0.329985
205 1 0.521477 0.328306 0.331376
111 1 0.583657 0.180045 0.237055
112 1 0.510732 0.254091 0.247964
113 1 0.669232 0.178088 0.176733
114 1 0.753563 0.249862 0.167306
115 1 0.754831 0.171774 0.24757
116 1 0.673152 0.24742 0.259809
137 1 0.679137 0.329037 0.177381
118 1 0.926303 0.250249 0.170635
119 1 0.93755 0.172155 0.249689
120 1 0.845045 0.258028 0.260686
123 1 0.094927 0.334699 0.237292
124 1 0.0102776 0.428463 0.256028
193 1 0.0113549 0.343876 0.322939
194 1 0.101392 0.404939 0.325604
198 1 0.248538 0.422038 0.328754
126 1 0.248409 0.413012 0.168877
128 1 0.179434 0.417424 0.248375
132 1 0.330642 0.423325 0.240378
581 1 0.168309 0.491402 0.329964
515 1 0.4131 0.499715 0.240511
202 1 0.424781 0.427086 0.332043
201 1 0.335415 0.344857 0.327042
519 1 0.591207 0.494009 0.251325
521 1 0.661966 0.483506 0.173594
135 1 0.59382 0.334028 0.244766
136 1 0.512113 0.411272 0.251712
517 1 0.512296 0.489377 0.172528
523 1 0.757598 0.488707 0.256892
139 1 0.746137 0.337457 0.266895
140 1 0.679567 0.416929 0.264156
214 1 0.925288 0.41654 0.330707
142 1 0.914694 0.429601 0.168298
143 1 0.933198 0.338312 0.240944
144 1 0.840222 0.401256 0.249406
245 1 0.152113 0.13584 0.486641
152 1 0.158816 0.0674104 0.406837
169 1 0.000797934 0.161095 0.335363
171 1 0.074397 0.131149 0.423656
173 1 0.157454 0.155275 0.335902
249 1 0.325295 0.159727 0.495541
175 1 0.232189 0.145505 0.417033
153 1 0.341201 0.0100704 0.335005
226 1 0.416728 0.0754535 0.484747
154 1 0.418807 0.0856155 0.337159
156 1 0.334107 0.098762 0.412235
179 1 0.421122 0.160553 0.419309
230 1 0.587053 0.0892687 0.498472
160 1 0.504749 0.0881101 0.410461
233 1 0.659561 0.00377593 0.497254
159 1 0.585077 0.00988393 0.41042
162 1 0.745561 0.0855359 0.339821
164 1 0.666773 0.0872251 0.422254
168 1 0.831195 0.0700804 0.423636
187 1 0.751829 0.156317 0.421951
189 1 0.833254 0.161609 0.345518
148 1 0.990192 0.0580208 0.403405
166 1 0.913461 0.0818822 0.335967
191 1 0.911924 0.152612 0.421338
238 1 0.928194 0.0674615 0.490735
242 1 0.0865586 0.252917 0.490362
195 1 0.0870987 0.327116 0.41437
170 1 0.0806034 0.245621 0.335906
176 1 0.155498 0.228674 0.410131
199 1 0.256043 0.332795 0.3939
197 1 0.172091 0.332399 0.337573
174 1 0.252192 0.242397 0.334465
180 1 0.330967 0.23839 0.413441
246 1 0.248789 0.252378 0.492307
178 1 0.406814 0.260536 0.333421
181 1 0.498513 0.171268 0.342683
184 1 0.494134 0.254139 0.415252
250 1 0.41494 0.259619 0.495337
254 1 0.592401 0.252619 0.496406
207 1 0.591567 0.32997 0.424104
182 1 0.587747 0.239946 0.339016
183 1 0.58945 0.17045 0.429464
186 1 0.770947 0.243763 0.339759
188 1 0.681959 0.250753 0.395606
192 1 0.828002 0.245145 0.431523
215 1 0.92748 0.325676 0.405637
172 1 0.997078 0.237936 0.414505
190 1 0.919148 0.2343 0.334228
262 1 0.912074 0.235265 0.499532
266 1 0.0897583 0.42873 0.490777
579 1 0.0948101 0.498798 0.408962
200 1 0.160486 0.41331 0.411128
273 1 0.316411 0.336387 0.480543
269 1 0.180892 0.337465 0.491162
204 1 0.329963 0.451661 0.410903
270 1 0.242947 0.422445 0.494358
203 1 0.429044 0.338834 0.412143
212 1 0.664176 0.43102 0.435531
661 1 0.50663 0.497619 0.495046
281 1 0.665781 0.340289 0.496657
208 1 0.50195 0.42038 0.409744
278 1 0.570852 0.406158 0.487494
206 1 0.587641 0.428289 0.336515
211 1 0.743718 0.345735 0.420061
593 1 0.67399 0.495505 0.345973
210 1 0.76888 0.417144 0.35092
209 1 0.668797 0.357069 0.347603
216 1 0.838438 0.417406 0.424088
213 1 0.838402 0.340907 0.344562
597 1 0.844135 0.496659 0.344038
196 1 0.996788 0.419161 0.424013
243 1 0.0930968 0.166653 0.585845
218 1 0.0706265 0.0446796 0.507479
290 1 0.0873123 0.0894706 0.653973
224 1 0.176461 0.0665113 0.577009
293 1 0.174682 0.000520952 0.654342
222 1 0.258698 0.0664964 0.501193
247 1 0.233801 0.163768 0.552545
294 1 0.247647 0.0853357 0.657813
317 1 0.176559 0.162091 0.662121
228 1 0.335342 0.0890364 0.578255
232 1 0.481905 0.08193 0.574746
298 1 0.404858 0.0773143 0.664664
231 1 0.583991 0.0168931 0.5815
236 1 0.667651 0.091531 0.567461
261 1 0.82925 0.15979 0.505187
306 1 0.75533 0.0767283 0.665598
234 1 0.746622 0.0689547 0.501498
220 1 0.998548 0.0775588 0.57874
240 1 0.834007 0.0777087 0.577419
241 1 0.997134 0.161158 0.501192
263 1 0.922581 0.155391 0.578828
333 1 0.838735 0.157584 0.653775
265 1 0.00805512 0.332262 0.507519
267 1 0.103681 0.33147 0.559934
337 1 0.011907 0.329442 0.657531
248 1 0.169164 0.246658 0.579773
271 1 0.251039 0.324351 0.573998
341 1 0.169256 0.329584 0.651999
251 1 0.405976 0.170469 0.573729
252 1 0.333489 0.255151 0.57542
256 1 0.491971 0.253909 0.571347
322 1 0.400793 0.232756 0.65976
325 1 0.48819 0.169208 0.658363
349 1 0.495385 0.330609 0.658678
253 1 0.499852 0.168327 0.501115
255 1 0.576656 0.17668 0.578971
326 1 0.572314 0.24708 0.662997
353 1 0.660309 0.325639 0.661577
257 1 0.679049 0.172416 0.500065
259 1 0.753387 0.169838 0.587853
260 1 0.670859 0.24883 0.582003
283 1 0.752367 0.325833 0.596592
330 1 0.764504 0.2468 0.663507
258 1 0.74245 0.25377 0.503463
244 1 0.997995 0.235204 0.580865
264 1 0.846945 0.237672 0.5865
287 1 0.917195 0.323197 0.573185
334 1 0.922316 0.253182 0.659607
268 1 0.020021 0.424865 0.590278
338 1 0.0969151 0.42372 0.662637
272 1 0.168789 0.433937 0.578277
276 1 0.327694 0.409829 0.572191
345 1 0.32611 0.336825 0.654676
274 1 0.415868 0.418305 0.500839
275 1 0.420938 0.334822 0.583489
280 1 0.494039 0.430903 0.585728
279 1 0.572993 0.337489 0.583881
284 1 0.658349 0.414845 0.581083
350 1 0.582801 0.410215 0.664859
277 1 0.50014 0.337978 0.507075
282 1 0.750893 0.413365 0.517654
669 1 0.82887 0.490453 0.500101
288 1 0.838532 0.422992 0.598275
286 1 0.933872 0.417747 0.502233
285 1 0.835171 0.33594 0.508489
357 1 0.835801 0.33572 0.666546
358 1 0.926417 0.406869 0.665889
292 1 0.0037668 0.0940235 0.756984
296 1 0.165257 0.0754003 0.743527
313 1 0.0022764 0.164878 0.672401
315 1 0.0889894 0.156053 0.738696
295 1 0.261472 0.0159708 0.751038
319 1 0.242632 0.164904 0.757392
321 1 0.325613 0.156734 0.678121
299 1 0.416998 0.00493364 0.753854
300 1 0.341254 0.0805989 0.755094
304 1 0.489416 0.0912003 0.754971
305 1 0.664602 0.00557353 0.668393
302 1 0.572127 0.0923927 0.67361
374 1 0.580932 0.0958387 0.825828
308 1 0.649875 0.0838264 0.742686
401 1 0.666261 0.164012 0.815196
378 1 0.723703 0.0732594 0.830257
312 1 0.819014 0.0842191 0.76937
329 1 0.676617 0.165765 0.667991
310 1 0.934577 0.0844153 0.672743
335 1 0.910513 0.152402 0.743629
405 1 0.838464 0.164579 0.830278
311 1 0.919431 0.00460425 0.747015
314 1 0.0949541 0.243042 0.672419
316 1 0.0195027 0.238029 0.763775
339 1 0.0877222 0.329384 0.741676
318 1 0.24912 0.249176 0.673681
320 1 0.177914 0.258438 0.753384
390 1 0.252666 0.257542 0.83268
324 1 0.320237 0.255405 0.75213
323 1 0.405327 0.169612 0.759093
394 1 0.408034 0.248461 0.831859
328 1 0.490758 0.242239 0.755083
347 1 0.407773 0.320277 0.750795
327 1 0.581385 0.168699 0.745164
398 1 0.582218 0.238763 0.819822
332 1 0.662018 0.251162 0.739509
351 1 0.575104 0.32372 0.737472
425 1 0.666085 0.327669 0.817197
331 1 0.756497 0.168326 0.740339
355 1 0.758037 0.320121 0.745747
336 1 0.85114 0.246257 0.750753
406 1 0.932487 0.237783 0.830719
359 1 0.924444 0.323619 0.746922
429 1 0.834423 0.324684 0.830268
723 1 0.0889485 0.495312 0.747048
340 1 0.0047203 0.40937 0.728718
409 1 0.000232189 0.335659 0.818751
344 1 0.157078 0.413967 0.751878
793 1 0.0119326 0.490144 0.826757
342 1 0.247418 0.422055 0.667924
343 1 0.254985 0.343815 0.741665
727 1 0.248877 0.499562 0.752712
797 1 0.180728 0.481246 0.826538
346 1 0.408895 0.423537 0.666712
348 1 0.340378 0.423489 0.756994
417 1 0.335605 0.337113 0.828054
352 1 0.490435 0.425806 0.743367
737 1 0.659741 0.49977 0.672306
422 1 0.577481 0.425704 0.827672
356 1 0.663649 0.415646 0.741385
813 1 0.832189 0.49011 0.820102
354 1 0.742091 0.413379 0.668514
426 1 0.740247 0.422199 0.814658
741 1 0.833998 0.499515 0.67999
743 1 0.930813 0.492479 0.726086
360 1 0.845674 0.410894 0.747304
387 1 0.0832135 0.152964 0.933565
362 1 0.0764162 0.070827 0.840962
385 1 0.0140957 0.160259 0.842683
364 1 0.00139324 0.088918 0.932097
368 1 0.162851 0.0839165 0.918155
369 1 0.331208 0.0136632 0.833805
366 1 0.24651 0.0816585 0.844852
393 1 0.318415 0.166204 0.84311
372 1 0.326682 0.0841223 0.923351
371 1 0.41509 0.00130874 0.913442
370 1 0.408057 0.087493 0.842016
397 1 0.496315 0.15927 0.837428
376 1 0.497397 0.0882484 0.933629
375 1 0.586503 0.00852591 0.908442
380 1 0.659065 0.0975838 0.923587
373 1 0.504104 0.0145215 0.839452
17 1 0.671833 0.00359472 0.998129
18 1 0.750387 0.0704123 0.995758
384 1 0.826272 0.0824501 0.917556
403 1 0.750011 0.165363 0.896434
45 1 0.822818 0.166413 0.995527
379 1 0.737774 0.000447591 0.911565
381 1 0.826897 0.00970893 0.834585
383 1 0.919841 0.0140663 0.923029
22 1 0.917305 0.0999398 0.991123
382 1 0.910097 0.0804597 0.837741
26 1 0.0861775 0.255621 0.992959
25 1 0.00104477 0.169817 0.995807
388 1 0.00141919 0.240865 0.920085
386 1 0.0889172 0.25641 0.847388
389 1 0.163625 0.169635 0.840052
53 1 0.176049 0.331035 0.99996
396 1 0.323873 0.246043 0.91986
392 1 0.181097 0.24561 0.920089
391 1 0.248002 0.170068 0.921326
61 1 0.493937 0.320868 0.999294
395 1 0.41113 0.167019 0.921408
419 1 0.408698 0.333231 0.900355
400 1 0.484102 0.250197 0.91763
34 1 0.405349 0.2558 0.990939
423 1 0.579527 0.32459 0.903823
404 1 0.660471 0.246974 0.900171
421 1 0.504827 0.326172 0.837137
399 1 0.587731 0.176915 0.913715
38 1 0.580795 0.24194 0.998718
427 1 0.758017 0.3333 0.91296
42 1 0.754834 0.25506 0.989251
408 1 0.832053 0.242859 0.906401
402 1 0.738585 0.255587 0.833885
431 1 0.928966 0.315464 0.911722
46 1 0.909354 0.246466 0.995042
407 1 0.917578 0.17025 0.919955
437 1 0.159148 0.497691 0.999747
416 1 0.165375 0.414085 0.922357
412 1 0.0184144 0.431476 0.91624
411 1 0.0873727 0.33946 0.922862
410 1 0.0876407 0.41883 0.835843
415 1 0.25339 0.338113 0.924671
413 1 0.173327 0.342899 0.839274
414 1 0.25537 0.405976 0.841897
799 1 0.245239 0.499303 0.92416
420 1 0.334902 0.421951 0.920796
418 1 0.42361 0.418386 0.835959
803 1 0.426942 0.492136 0.917524
57 1 0.346333 0.349851 0.99933
424 1 0.505012 0.411095 0.913767
807 1 0.599684 0.494985 0.908851
65 1 0.662807 0.333968 0.974393
432 1 0.829888 0.412981 0.903743
428 1 0.674283 0.41316 0.898826
811 1 0.758266 0.497003 0.907368
449 1 0.688303 0.482867 0.989097
453 1 0.83919 0.486442 0.985458
430 1 0.91179 0.396618 0.836449
815 1 0.922386 0.477946 0.907418
440 1 0.164814 0.583487 0.0873858
459 1 0.0624189 0.661348 0.0839021
435 1 0.0815166 0.516581 0.0848126
533 1 0.161129 0.660297 0.156747
513 1 0.325075 0.51407 0.153976
463 1 0.252689 0.655988 0.0779814
509 1 0.169887 0.507506 0.161427
510 1 0.246382 0.588944 0.163815
443 1 0.427203 0.511097 0.0860211
444 1 0.356435 0.594325 0.0747046
537 1 0.33661 0.66303 0.153462
448 1 0.504611 0.586447 0.0661427
471 1 0.596579 0.664781 0.0872687
445 1 0.50065 0.501611 0.00436409
447 1 0.593365 0.504742 0.0866555
518 1 0.589849 0.586429 0.16264
452 1 0.666736 0.581881 0.0863074
456 1 0.82798 0.574454 0.06318
451 1 0.74382 0.507131 0.0799438
436 1 0.99738 0.586172 0.060646
479 1 0.928957 0.665054 0.0758324
526 1 0.917683 0.570033 0.141837
549 1 0.846179 0.645274 0.165536
455 1 0.927113 0.500694 0.0691656
464 1 0.14284 0.741222 0.0772998
530 1 0.0632833 0.733263 0.163175
461 1 0.164152 0.671159 0.00744228
465 1 0.332374 0.671385 0.00300477
487 1 0.252629 0.830324 0.0797656
534 1 0.246334 0.741352 0.140853
561 1 0.328585 0.825826 0.156152
462 1 0.250559 0.753021 0.0133324
467 1 0.429852 0.668137 0.0814487
468 1 0.338978 0.7514 0.0773687
491 1 0.41632 0.830297 0.0899507
466 1 0.412873 0.757608 0.000595353
538 1 0.405301 0.750147 0.160814
472 1 0.502202 0.761451 0.0689955
541 1 0.511217 0.674681 0.160129
542 1 0.58717 0.74924 0.155947
475 1 0.755784 0.66891 0.0834202
476 1 0.671112 0.73494 0.0746705
480 1 0.833075 0.730567 0.0675596
546 1 0.765823 0.748598 0.161614
569 1 0.687271 0.832834 0.153789
460 1 0.984128 0.756114 0.082589
483 1 0.0858274 0.839691 0.0827466
484 1 0.00616122 0.91503 0.0799
554 1 0.081553 0.909833 0.161376
3 1 0.0842548 0.994073 0.0927379
481 1 0.00903567 0.845892 0.000501427
77 1 0.169217 0.992234 0.166069
7 1 0.25392 0.999602 0.0890132
488 1 0.173261 0.905757 0.0776263
558 1 0.247315 0.908873 0.161159
486 1 0.250671 0.917913 0.0101119
490 1 0.437258 0.918196 0.00354027
489 1 0.342798 0.835396 0.00347158
492 1 0.351655 0.916219 0.0811854
562 1 0.42501 0.908047 0.165615
9 1 0.344972 0.998356 0.00601093
15 1 0.576531 0.983865 0.0871486
495 1 0.603437 0.835363 0.0861943
496 1 0.509135 0.897773 0.0804417
499 1 0.759357 0.834104 0.0739316
500 1 0.66727 0.91744 0.075992
573 1 0.831156 0.83505 0.147639
570 1 0.756036 0.912675 0.166315
503 1 0.915872 0.834726 0.0762019
504 1 0.836282 0.917784 0.077183
574 1 0.913425 0.911232 0.161032
507 1 0.102328 0.513686 0.240227
505 1 0.0202916 0.512568 0.177964
506 1 0.0836915 0.589905 0.167889
508 1 0.0176801 0.58217 0.261153
577 1 0.0208243 0.507426 0.325509
585 1 0.329591 0.504648 0.31888
512 1 0.170112 0.594682 0.249228
535 1 0.259883 0.659031 0.234475
582 1 0.239639 0.590265 0.333112
511 1 0.241824 0.501302 0.249534
514 1 0.439258 0.58099 0.168651
516 1 0.339002 0.592104 0.238408
586 1 0.41821 0.578995 0.318321
613 1 0.49804 0.660619 0.33299
589 1 0.496367 0.505384 0.326128
520 1 0.521029 0.592516 0.249732
590 1 0.586898 0.583058 0.325677
522 1 0.74624 0.571729 0.174305
524 1 0.676081 0.572369 0.257319
545 1 0.671632 0.647568 0.174301
547 1 0.749695 0.648069 0.24853
617 1 0.668868 0.658338 0.329908
525 1 0.835453 0.501581 0.172039
527 1 0.924711 0.510145 0.254184
528 1 0.834777 0.578402 0.264704
529 1 0.976514 0.661585 0.172255
551 1 0.916095 0.64128 0.251481
531 1 0.0900675 0.68007 0.251954
555 1 0.0753538 0.824665 0.234459
557 1 0.164507 0.822594 0.171431
536 1 0.171724 0.755638 0.242736
605 1 0.180811 0.678313 0.323526
629 1 0.170125 0.826182 0.325007
539 1 0.422388 0.673014 0.24583
540 1 0.342648 0.750181 0.252803
563 1 0.417753 0.83208 0.244766
565 1 0.493986 0.826956 0.168767
609 1 0.335506 0.670901 0.323468
610 1 0.422936 0.761907 0.322991
633 1 0.33646 0.830962 0.328848
543 1 0.600071 0.674442 0.247949
544 1 0.506845 0.739585 0.244747
567 1 0.59463 0.826448 0.238939
614 1 0.594493 0.738909 0.330478
637 1 0.509725 0.826113 0.317224
641 1 0.661588 0.826933 0.317049
548 1 0.680861 0.744211 0.236228
571 1 0.746758 0.824288 0.244424
552 1 0.82485 0.719785 0.255503
532 1 0.992051 0.737466 0.259809
553 1 0.996163 0.818069 0.171171
550 1 0.893489 0.740841 0.167755
575 1 0.907891 0.828057 0.240785
622 1 0.9064 0.754562 0.331514
75 1 0.0865715 0.997969 0.247428
626 1 0.071891 0.898376 0.327912
630 1 0.257544 0.927151 0.317895
559 1 0.252979 0.8412 0.25198
560 1 0.167939 0.916523 0.243522
81 1 0.331687 0.987111 0.169651
634 1 0.431277 0.923897 0.318619
564 1 0.348736 0.92009 0.247809
638 1 0.588765 0.90915 0.323329
161 1 0.664331 0.984289 0.319499
566 1 0.583394 0.90903 0.16843
568 1 0.507262 0.911842 0.24647
572 1 0.665174 0.907533 0.242336
642 1 0.747338 0.915909 0.313692
576 1 0.825383 0.903846 0.243435
645 1 0.814505 0.843165 0.324116
165 1 0.831648 0.985734 0.327372
646 1 0.906336 0.910092 0.32778
145 1 0.991717 0.993301 0.307684
556 1 0.985253 0.902136 0.253705
578 1 0.0893735 0.591502 0.33611
584 1 0.162985 0.593458 0.422727
603 1 0.0836235 0.661248 0.418277
583 1 0.231776 0.501605 0.411176
654 1 0.250046 0.589378 0.492019
653 1 0.172353 0.513661 0.494684
607 1 0.258006 0.662577 0.419248
657 1 0.340911 0.515503 0.49357
681 1 0.353894 0.662865 0.49041
588 1 0.338617 0.583751 0.40375
592 1 0.498554 0.585865 0.41226
587 1 0.425409 0.506006 0.424501
591 1 0.589368 0.506952 0.418201
685 1 0.507033 0.662002 0.491508
595 1 0.753581 0.510049 0.416769
594 1 0.752049 0.579451 0.340868
596 1 0.676963 0.585191 0.426568
600 1 0.827722 0.593518 0.433256
619 1 0.752781 0.666255 0.432927
599 1 0.913589 0.522426 0.43212
580 1 0.994729 0.586185 0.439106
623 1 0.909265 0.661665 0.425113
598 1 0.929005 0.577982 0.343301
621 1 0.843369 0.658463 0.346654
602 1 0.0814538 0.752695 0.344705
627 1 0.0737351 0.828067 0.424872
678 1 0.260298 0.768294 0.48775
606 1 0.247846 0.75327 0.338712
608 1 0.168086 0.748464 0.422758
682 1 0.416621 0.749108 0.482996
611 1 0.422121 0.672529 0.403625
612 1 0.336557 0.741968 0.409764
713 1 0.656685 0.821825 0.499862
615 1 0.596806 0.66676 0.43128
616 1 0.501342 0.754702 0.400386
639 1 0.584501 0.829887 0.406895
624 1 0.826482 0.752899 0.419216
618 1 0.755607 0.742316 0.346613
620 1 0.669415 0.736512 0.423662
643 1 0.744989 0.828125 0.416787
601 1 0.996082 0.669663 0.346233
604 1 0.970003 0.753091 0.409677
625 1 0.988906 0.830305 0.336047
149 1 0.142877 0.980353 0.338207
632 1 0.149181 0.900061 0.404594
698 1 0.0738918 0.907046 0.498897
147 1 0.0684653 0.98073 0.41574
702 1 0.278282 0.91414 0.487804
701 1 0.177321 0.845458 0.497759
631 1 0.260158 0.839806 0.395242
151 1 0.242842 0.984471 0.406021
221 1 0.180179 0.964864 0.491378
705 1 0.346903 0.835762 0.482439
636 1 0.343774 0.929661 0.395391
706 1 0.423846 0.914046 0.494307
155 1 0.438339 0.985456 0.400325
635 1 0.417288 0.839048 0.396193
225 1 0.348771 0.9962 0.48357
644 1 0.664515 0.903538 0.402468
710 1 0.60381 0.90842 0.493362
640 1 0.521358 0.917148 0.404393
709 1 0.503755 0.834593 0.482606
229 1 0.524677 0.996028 0.499153
648 1 0.817182 0.910328 0.412266
163 1 0.744803 0.98394 0.408078
167 1 0.917203 0.982866 0.411762
628 1 0.989692 0.90782 0.420212
647 1 0.900772 0.834187 0.415471
697 1 0.991725 0.840871 0.499766
652 1 0.00476232 0.588976 0.583127
650 1 0.087388 0.587286 0.50238
651 1 0.0871118 0.51065 0.583899
649 1 0.00661089 0.505297 0.50221
656 1 0.175263 0.597727 0.592911
726 1 0.26232 0.605698 0.662108
677 1 0.172472 0.663232 0.502997
655 1 0.243279 0.510183 0.575395
659 1 0.420637 0.507236 0.584393
660 1 0.337947 0.59533 0.576152
733 1 0.495663 0.514348 0.656808
730 1 0.407926 0.584016 0.660607
658 1 0.428689 0.584288 0.505573
664 1 0.50213 0.588974 0.582106
668 1 0.663048 0.575651 0.592596
665 1 0.662661 0.501972 0.515169
663 1 0.575854 0.501322 0.588512
734 1 0.581457 0.591 0.657861
757 1 0.50812 0.663469 0.663461
662 1 0.589437 0.578358 0.504037
672 1 0.8309 0.58281 0.589437
689 1 0.668693 0.660024 0.506223
667 1 0.751181 0.50253 0.588815
666 1 0.74611 0.570435 0.504324
670 1 0.927834 0.584524 0.515384
742 1 0.926997 0.586296 0.658506
671 1 0.926935 0.507532 0.587371
675 1 0.0818666 0.678596 0.580053
676 1 0.0112998 0.753642 0.601482
745 1 0.0112594 0.670303 0.66042
674 1 0.102721 0.750373 0.507405
679 1 0.260761 0.678273 0.571285
680 1 0.18182 0.756439 0.583567
703 1 0.263657 0.832909 0.574803
749 1 0.178269 0.685004 0.663457
753 1 0.331592 0.688225 0.666411
683 1 0.418773 0.668572 0.591377
684 1 0.334074 0.753315 0.566891
754 1 0.427835 0.748114 0.665053
687 1 0.592959 0.666847 0.5785
688 1 0.512493 0.734905 0.584391
692 1 0.652809 0.756108 0.592627
686 1 0.579269 0.740351 0.50251
690 1 0.745965 0.746662 0.501585
691 1 0.749129 0.667568 0.583461
696 1 0.830666 0.754635 0.595465
761 1 0.66803 0.671399 0.662578
717 1 0.809102 0.831669 0.501739
693 1 0.840111 0.671973 0.507628
695 1 0.912564 0.686175 0.594556
719 1 0.925828 0.832729 0.574422
694 1 0.909293 0.768342 0.50441
673 1 0.99572 0.687229 0.503668
699 1 0.0883366 0.835135 0.590148
700 1 0.011255 0.923285 0.595124
704 1 0.155037 0.911297 0.586453
219 1 0.0874787 0.994346 0.603609
297 1 0.326122 0.998255 0.662024
223 1 0.249999 0.979513 0.574401
773 1 0.180012 0.842928 0.664106
774 1 0.261245 0.915281 0.666012
707 1 0.434129 0.833511 0.570257
708 1 0.338765 0.907871 0.573714
227 1 0.408533 0.991082 0.582548
777 1 0.363437 0.836154 0.664879
711 1 0.555061 0.834931 0.585183
712 1 0.500946 0.926695 0.578828
716 1 0.662899 0.93435 0.585593
782 1 0.585557 0.911 0.666531
715 1 0.731801 0.836238 0.580441
720 1 0.828807 0.904201 0.586972
714 1 0.73103 0.919288 0.506899
235 1 0.752605 0.995311 0.590343
786 1 0.748442 0.920032 0.665684
239 1 0.92014 0.98316 0.59912
217 1 0.98766 0.978428 0.507828
718 1 0.907447 0.90651 0.500129
237 1 0.834021 0.992882 0.504232
725 1 0.162061 0.505721 0.676806
722 1 0.0945276 0.59729 0.670117
794 1 0.0755023 0.589632 0.811691
721 1 0.0159942 0.508244 0.675654
728 1 0.175888 0.592484 0.750192
751 1 0.241672 0.666567 0.748382
729 1 0.330651 0.508171 0.670718
801 1 0.349017 0.505153 0.82171
805 1 0.497102 0.509648 0.832014
731 1 0.423504 0.508238 0.752038
732 1 0.335521 0.585287 0.741543
736 1 0.494488 0.597008 0.747843
825 1 0.343976 0.659413 0.822567
735 1 0.576357 0.509814 0.752217
809 1 0.664984 0.502336 0.825701
740 1 0.664496 0.58321 0.757671
759 1 0.584142 0.665464 0.749237
739 1 0.738547 0.500503 0.743432
738 1 0.747964 0.57396 0.678216
810 1 0.753016 0.5776 0.828867
763 1 0.740426 0.663624 0.747489
765 1 0.831274 0.653071 0.677918
837 1 0.830698 0.659919 0.811387
724 1 0.987269 0.588038 0.746346
744 1 0.858056 0.575208 0.747631
817 1 0.984301 0.661331 0.827772
746 1 0.111877 0.763373 0.670709
747 1 0.087203 0.674597 0.741801
748 1 0.00200048 0.744145 0.760056
769 1 0.0136696 0.826347 0.682862
771 1 0.10078 0.831389 0.754594
818 1 0.0875537 0.754326 0.827729
841 1 0.00318249 0.827346 0.831738
750 1 0.267958 0.765991 0.672543
752 1 0.189777 0.765071 0.747054
755 1 0.424864 0.670113 0.746835
756 1 0.344307 0.749154 0.743274
779 1 0.415486 0.826794 0.765952
760 1 0.497047 0.748503 0.758339
758 1 0.57667 0.760589 0.685297
764 1 0.665344 0.745715 0.748825
833 1 0.657531 0.674226 0.830533
762 1 0.739908 0.747809 0.674673
785 1 0.672765 0.832606 0.68091
787 1 0.744998 0.833207 0.750827
834 1 0.759241 0.74783 0.8247
766 1 0.918354 0.763224 0.668488
767 1 0.915899 0.673343 0.738896
768 1 0.841684 0.751251 0.742472
791 1 0.923608 0.830643 0.76086
838 1 0.908336 0.741961 0.828008
291 1 0.081673 0.995856 0.748827
365 1 0.16351 0.992151 0.827166
770 1 0.0857877 0.904922 0.672183
772 1 0.0100263 0.913009 0.761603
842 1 0.0941803 0.915228 0.831443
776 1 0.163655 0.916552 0.747046
289 1 0.00600275 0.990332 0.672759
775 1 0.265267 0.843473 0.747221
781 1 0.483455 0.841458 0.66993
778 1 0.416348 0.930261 0.676722
780 1 0.333418 0.929623 0.749272
784 1 0.491807 0.917495 0.75594
303 1 0.576548 0.999169 0.751135
783 1 0.589267 0.841374 0.760487
853 1 0.507379 0.837364 0.825902
854 1 0.574541 0.924046 0.832946
788 1 0.661072 0.919629 0.748285
377 1 0.658288 0.995945 0.818967
301 1 0.514688 0.991023 0.672397
789 1 0.818002 0.833529 0.676544
792 1 0.820914 0.920168 0.743847
307 1 0.747876 0.999769 0.749069
309 1 0.832763 0.994915 0.668406
361 1 0.99575 0.996824 0.821157
861 1 0.835568 0.846012 0.828393
790 1 0.924832 0.89807 0.666774
795 1 0.103258 0.511309 0.912923
796 1 0.00447544 0.576184 0.91492
433 1 0.0222992 0.501271 0.995353
434 1 0.0896416 0.587263 0.998398
798 1 0.262418 0.582481 0.842402
438 1 0.257114 0.57974 0.999654
800 1 0.18911 0.59423 0.9224
802 1 0.422736 0.590414 0.834703
804 1 0.344343 0.57579 0.914194
827 1 0.407733 0.664133 0.920867
442 1 0.425622 0.590831 0.985665
446 1 0.59735 0.569854 0.990592
806 1 0.577203 0.580386 0.848297
808 1 0.510305 0.571495 0.924754
831 1 0.601193 0.662607 0.915015
469 1 0.506209 0.66618 0.990592
473 1 0.67273 0.658005 0.994579
450 1 0.743254 0.581814 0.994309
835 1 0.770057 0.662561 0.907003
812 1 0.675503 0.579522 0.904237
816 1 0.827687 0.574727 0.909382
454 1 0.926215 0.577651 0.986052
477 1 0.848255 0.665896 0.99187
814 1 0.919961 0.573836 0.842105
485 1 0.163188 0.824067 0.99976
819 1 0.0860249 0.666877 0.924101
820 1 0.000313575 0.739915 0.897676
843 1 0.0799838 0.830393 0.907546
458 1 0.0775276 0.754587 0.994791
821 1 0.169423 0.673244 0.845187
822 1 0.270835 0.751388 0.838393
845 1 0.190424 0.830363 0.84348
823 1 0.272458 0.672383 0.914073
824 1 0.192636 0.742773 0.933689
826 1 0.418455 0.759002 0.847579
829 1 0.499114 0.67046 0.852994
828 1 0.333781 0.761927 0.924232
470 1 0.585382 0.761014 0.999251
830 1 0.589239 0.754944 0.841166
832 1 0.508571 0.750385 0.926839
474 1 0.748062 0.739552 0.996731
497 1 0.677552 0.831245 0.993376
859 1 0.756888 0.831651 0.905125
836 1 0.684105 0.754501 0.908291
478 1 0.926256 0.751278 0.991793
840 1 0.835633 0.750279 0.912299
839 1 0.91543 0.66988 0.909182
501 1 0.837651 0.82197 0.990078
457 1 0.989875 0.666985 0.992769
844 1 0.00691361 0.921142 0.905626
363 1 0.0750882 0.995748 0.913797
482 1 0.0920461 0.912233 0.9982
848 1 0.171723 0.925286 0.917305
367 1 0.249637 0.997372 0.929649
849 1 0.330433 0.840043 0.835105
846 1 0.246976 0.932695 0.839974
847 1 0.250977 0.838653 0.935716
852 1 0.335953 0.912176 0.921797
850 1 0.403505 0.914227 0.835203
851 1 0.421395 0.842497 0.922465
860 1 0.662586 0.921805 0.915079
856 1 0.502225 0.935636 0.917605
494 1 0.581555 0.906248 0.997125
855 1 0.5802 0.841858 0.917166
857 1 0.663175 0.84432 0.842038
493 1 0.504837 0.834635 0.987215
498 1 0.753763 0.917371 0.996759
858 1 0.755212 0.919288 0.834665
864 1 0.834261 0.931348 0.917448
502 1 0.915771 0.918211 0.997728
863 1 0.934645 0.842204 0.913495
1 1 0.999397 0.992059 0.99909
862 1 0.922608 0.914741 0.836857
