ITEM: TIMESTEP
3250
ITEM: NUMBER OF ATOMS
864
ITEM: BOX BOUNDS pp pp pp
0.0000000000000000e+00 3.1559999999999999e+01
0.0000000000000000e+00 3.1559999999999999e+01
0.0000000000000000e+00 3.1559999999999999e+01
ITEM: ATOMS id type xs ys zs
27 1 0.0773814 0.161902 0.0868454
97 1 0.997121 0.153537 0.164883
8 1 0.165929 0.0764235 0.0830183
31 1 0.256961 0.166558 0.0615473
78 1 0.247471 0.0812031 0.157078
151 1 0.268524 0.000833521 0.427529
12 1 0.334315 0.0730071 0.0760528
105 1 0.317501 0.158418 0.139283
82 1 0.404365 0.082456 0.153875
16 1 0.497256 0.0715308 0.0608386
39 1 0.573468 0.153886 0.0722354
89 1 0.662912 0.00447058 0.170317
20 1 0.665364 0.0942403 0.0786833
117 1 0.846009 0.168907 0.165132
90 1 0.754992 0.0710639 0.163219
4 1 0.985301 0.0740562 0.0772334
24 1 0.81701 0.0771413 0.0796264
47 1 0.908855 0.153441 0.0761804
589 1 0.503714 0.495351 0.330427
94 1 0.91151 0.0910997 0.172745
523 1 0.758752 0.485129 0.244982
241 1 0.99278 0.161178 0.498851
98 1 0.10209 0.246919 0.167862
121 1 0.0124955 0.331999 0.168284
101 1 0.176251 0.170129 0.146322
32 1 0.154855 0.248111 0.0764064
36 1 0.343112 0.254886 0.0877318
102 1 0.254915 0.262564 0.152599
29 1 0.152968 0.163008 0.00674769
35 1 0.414549 0.173209 0.079471
59 1 0.421428 0.348977 0.0744317
106 1 0.4244 0.266189 0.15409
113 1 0.661528 0.153138 0.167446
40 1 0.496338 0.240451 0.0661174
44 1 0.668456 0.240553 0.0781451
109 1 0.494466 0.155849 0.162938
505 1 0.016054 0.497255 0.162181
43 1 0.751301 0.174553 0.0908694
114 1 0.746072 0.252105 0.161977
48 1 0.83424 0.246074 0.0772324
669 1 0.830248 0.495363 0.497416
28 1 0.992227 0.236114 0.0902946
71 1 0.907096 0.340899 0.0884102
57 1 0.33692 0.31905 0.00449156
125 1 0.173149 0.33707 0.178985
51 1 0.0850949 0.35478 0.0809346
122 1 0.090876 0.414476 0.166244
439 1 0.255299 0.49897 0.0765027
52 1 0.989947 0.408317 0.0964824
55 1 0.257217 0.332053 0.0781624
56 1 0.177095 0.406258 0.0862043
126 1 0.249932 0.415637 0.168646
17 1 0.66886 0.000313763 0.000247883
509 1 0.163301 0.497345 0.153538
60 1 0.337949 0.416481 0.0790874
130 1 0.417477 0.434032 0.163952
64 1 0.505802 0.424581 0.0856966
270 1 0.23752 0.414988 0.487018
133 1 0.507452 0.333135 0.154307
63 1 0.593532 0.323644 0.0868831
62 1 0.584984 0.426161 0.00836796
68 1 0.664657 0.417767 0.104851
67 1 0.742715 0.325121 0.0797635
163 1 0.754862 0.000193454 0.402255
453 1 0.838224 0.495192 0.00229557
66 1 0.752322 0.423177 0.00681177
65 1 0.652399 0.350516 0.00429341
282 1 0.744255 0.403143 0.486828
72 1 0.822296 0.416834 0.0918031
142 1 0.912919 0.423769 0.171038
70 1 0.912729 0.422773 0.00720679
216 1 0.836482 0.414493 0.423691
69 1 0.833762 0.334765 0.0174198
74 1 0.0639753 0.0743737 0.174586
146 1 0.103882 0.100072 0.320871
76 1 0.99955 0.0931896 0.254906
262 1 0.925294 0.23567 0.486827
173 1 0.1805 0.181478 0.317093
80 1 0.171194 0.0764441 0.228277
150 1 0.258907 0.0785276 0.328249
593 1 0.659316 0.49225 0.323849
84 1 0.336853 0.0870798 0.249853
88 1 0.48491 0.074893 0.250099
177 1 0.341863 0.166974 0.321438
107 1 0.428403 0.161951 0.243607
265 1 0.00370821 0.328375 0.497541
154 1 0.42255 0.0984713 0.341477
161 1 0.673676 0.00621232 0.326851
86 1 0.574844 0.0714741 0.157987
158 1 0.588633 0.0809409 0.321804
507 1 0.0954646 0.497962 0.231821
92 1 0.65819 0.0823764 0.244286
185 1 0.657224 0.158489 0.336984
96 1 0.840239 0.0943234 0.242157
119 1 0.930382 0.171771 0.242442
189 1 0.856543 0.155739 0.324743
166 1 0.926557 0.074577 0.336268
99 1 0.0952934 0.158649 0.231256
123 1 0.0799115 0.326856 0.250798
100 1 0.0200059 0.238715 0.23311
193 1 0.00929112 0.328733 0.33408
103 1 0.261476 0.162978 0.230736
104 1 0.184233 0.243963 0.231435
201 1 0.343616 0.326136 0.318528
127 1 0.24599 0.347889 0.249115
174 1 0.253063 0.260324 0.339909
108 1 0.325746 0.250858 0.253187
129 1 0.335623 0.347009 0.168075
178 1 0.425633 0.252237 0.323458
181 1 0.50863 0.179712 0.323563
110 1 0.583294 0.229062 0.154162
111 1 0.585803 0.16422 0.245363
112 1 0.497134 0.260123 0.234579
116 1 0.65964 0.241099 0.246752
182 1 0.569473 0.266471 0.320159
137 1 0.663168 0.3258 0.161475
115 1 0.744686 0.171755 0.240671
209 1 0.66314 0.335142 0.317114
118 1 0.914384 0.260238 0.168957
120 1 0.828669 0.247946 0.234116
190 1 0.923663 0.24461 0.330826
143 1 0.919459 0.326805 0.24637
194 1 0.0775841 0.416556 0.3207
124 1 0.00735243 0.423125 0.23985
128 1 0.164014 0.419036 0.256918
79 1 0.265993 0.00295179 0.259171
197 1 0.157125 0.3389 0.325119
132 1 0.333903 0.424228 0.251099
131 1 0.410236 0.326552 0.239286
58 1 0.429411 0.42724 0.00412953
449 1 0.668244 0.499758 0.0237598
202 1 0.418308 0.421208 0.332338
136 1 0.498835 0.408904 0.246159
205 1 0.494428 0.33328 0.311919
135 1 0.57963 0.33373 0.232207
134 1 0.568166 0.427443 0.171148
140 1 0.664205 0.41219 0.238826
206 1 0.579969 0.418551 0.339418
595 1 0.742344 0.491046 0.410144
138 1 0.755657 0.416235 0.164589
139 1 0.751075 0.331159 0.254375
144 1 0.840792 0.411523 0.256126
210 1 0.748121 0.407754 0.323583
527 1 0.911014 0.496269 0.259286
141 1 0.836218 0.337586 0.179409
171 1 0.0942557 0.162337 0.41337
152 1 0.167311 0.0855185 0.412937
169 1 0.00727646 0.164427 0.336783
249 1 0.338862 0.173108 0.499507
175 1 0.229413 0.16687 0.410096
155 1 0.407698 0.00615854 0.425256
153 1 0.357935 0.00119828 0.327607
156 1 0.338012 0.0889794 0.409303
160 1 0.503441 0.0804839 0.407708
230 1 0.576502 0.0927404 0.49938
257 1 0.67629 0.167052 0.484407
159 1 0.59079 0.00383135 0.418871
3 1 0.0892671 0.0133553 0.0675592
162 1 0.745402 0.0853465 0.330853
164 1 0.662812 0.0830711 0.414889
168 1 0.834958 0.0857478 0.41656
187 1 0.750913 0.16385 0.407945
451 1 0.758982 0.499399 0.0979088
148 1 0.997415 0.0851938 0.424305
191 1 0.917992 0.162504 0.408027
254 1 0.587349 0.250653 0.499222
172 1 0.0249829 0.234274 0.422458
195 1 0.0860264 0.340371 0.407853
170 1 0.0892088 0.250689 0.32218
214 1 0.931326 0.415462 0.339319
246 1 0.25077 0.24348 0.485152
273 1 0.3157 0.333685 0.491508
286 1 0.91995 0.412828 0.493901
176 1 0.160466 0.247001 0.413722
180 1 0.335145 0.260541 0.400921
179 1 0.418986 0.177396 0.414407
49 1 0.979676 0.343258 0.0132577
183 1 0.585251 0.162427 0.419478
184 1 0.519152 0.234431 0.4187
186 1 0.769262 0.252447 0.332099
258 1 0.748341 0.253923 0.480472
211 1 0.734987 0.332361 0.402532
188 1 0.654586 0.253869 0.394662
234 1 0.744819 0.0853692 0.480216
215 1 0.916258 0.323967 0.424475
192 1 0.843752 0.235964 0.407546
213 1 0.856095 0.324416 0.33893
196 1 0.0121406 0.423986 0.423049
200 1 0.161563 0.417308 0.413108
261 1 0.843768 0.160667 0.494168
212 1 0.664387 0.414799 0.408334
222 1 0.246638 0.0848122 0.498392
583 1 0.259378 0.499959 0.414607
204 1 0.340749 0.416313 0.414875
198 1 0.24919 0.407297 0.330718
199 1 0.246951 0.332237 0.411772
208 1 0.494702 0.406264 0.417373
203 1 0.422476 0.315266 0.408983
147 1 0.09716 0.0017528 0.424472
274 1 0.418446 0.399145 0.492759
597 1 0.827011 0.479218 0.335688
281 1 0.664301 0.334081 0.492318
665 1 0.674776 0.497874 0.499611
207 1 0.582142 0.340755 0.413519
277 1 0.505497 0.335487 0.498974
585 1 0.339313 0.492897 0.328936
165 1 0.841747 0.00540916 0.333906
149 1 0.172832 0.00719501 0.324279
579 1 0.0937061 0.498037 0.415083
7 1 0.249815 0.00267956 0.0798415
269 1 0.155133 0.308297 0.498575
218 1 0.0740885 0.0856404 0.49347
577 1 0.00710681 0.492264 0.334966
435 1 0.0840518 0.493817 0.0828377
253 1 0.489963 0.161126 0.490494
455 1 0.907993 0.496591 0.0869415
285 1 0.832702 0.315083 0.488628
25 1 0.00171384 0.153263 0.00623554
157 1 0.471729 0.00377358 0.33953
661 1 0.50275 0.499113 0.499383
266 1 0.0871714 0.399013 0.49907
26 1 0.0634711 0.252596 0.01168
6 1 0.239131 0.0774246 3.5829e-06
245 1 0.157905 0.153756 0.508231
290 1 0.0993011 0.0714603 0.672969
224 1 0.17188 0.078283 0.586252
228 1 0.321847 0.0889086 0.575789
247 1 0.244564 0.173929 0.579745
298 1 0.418764 0.0785457 0.655805
251 1 0.404786 0.164307 0.583883
233 1 0.661325 0.00607936 0.500698
795 1 0.0762582 0.495137 0.908926
232 1 0.488851 0.083257 0.570734
236 1 0.669678 0.088616 0.563173
302 1 0.582083 0.0615189 0.641608
38 1 0.570764 0.257618 0.994788
5 1 0.164249 0.000535164 0.996726
50 1 0.0778749 0.427264 0.997011
226 1 0.407301 0.0848332 0.507649
306 1 0.754374 0.0731253 0.671677
240 1 0.815215 0.0904213 0.58149
663 1 0.594874 0.490397 0.588187
220 1 0.00390184 0.0739942 0.58676
333 1 0.830889 0.17304 0.667922
263 1 0.918652 0.164423 0.600273
313 1 0.983144 0.166338 0.679633
238 1 0.896628 0.073716 0.504205
813 1 0.83298 0.499551 0.826701
243 1 0.0644365 0.153637 0.615558
267 1 0.0743013 0.31553 0.579254
248 1 0.15458 0.235735 0.578798
341 1 0.150306 0.341741 0.664746
809 1 0.664095 0.498877 0.814186
271 1 0.238043 0.325314 0.5859
252 1 0.323172 0.245724 0.576282
345 1 0.317518 0.342213 0.65233
321 1 0.328734 0.165329 0.666898
305 1 0.661782 0.000618227 0.66583
322 1 0.406819 0.257036 0.654349
275 1 0.409264 0.327205 0.578865
255 1 0.583585 0.164054 0.589727
256 1 0.498025 0.249258 0.570917
279 1 0.593522 0.335146 0.579671
326 1 0.572783 0.25364 0.656962
737 1 0.667732 0.495404 0.673556
259 1 0.752966 0.174351 0.580899
260 1 0.663096 0.247534 0.573538
329 1 0.677757 0.171302 0.666253
244 1 0.996563 0.24468 0.593208
264 1 0.837647 0.257095 0.584802
287 1 0.92946 0.330045 0.588621
250 1 0.414018 0.247946 0.509144
428 1 0.666858 0.436489 0.910665
242 1 0.0707335 0.224992 0.51543
268 1 0.995352 0.419585 0.574146
729 1 0.325255 0.495442 0.659254
412 1 0.980607 0.425732 0.916769
21 1 0.822995 0.0054036 0.991035
223 1 0.249111 0.00691312 0.579615
272 1 0.162744 0.419545 0.570123
276 1 0.345431 0.418426 0.580181
801 1 0.336268 0.492419 0.826907
346 1 0.394101 0.413546 0.675701
349 1 0.480763 0.333719 0.665719
426 1 0.753665 0.417981 0.83263
280 1 0.499916 0.421575 0.574506
284 1 0.676082 0.416523 0.584928
367 1 0.237979 0.0145098 0.912847
283 1 0.75148 0.331794 0.577831
354 1 0.759136 0.40952 0.668736
288 1 0.839968 0.413954 0.580638
735 1 0.579506 0.477124 0.741977
42 1 0.738804 0.253139 0.998
357 1 0.831143 0.328562 0.670788
337 1 0.998808 0.322206 0.686974
358 1 0.911848 0.40314 0.665103
743 1 0.910197 0.482547 0.735738
315 1 0.0748248 0.165677 0.746868
317 1 0.167352 0.160669 0.653696
385 1 0.997272 0.169132 0.832757
294 1 0.258541 0.071035 0.665958
296 1 0.176792 0.0714103 0.753952
300 1 0.340581 0.0684376 0.745844
304 1 0.503648 0.0746246 0.736054
323 1 0.416796 0.142447 0.753812
370 1 0.417076 0.0702262 0.846139
325 1 0.493242 0.167923 0.656206
374 1 0.594608 0.0885276 0.820026
46 1 0.919331 0.249971 0.998135
308 1 0.679373 0.0954958 0.746943
378 1 0.740968 0.0952312 0.843532
312 1 0.834072 0.0849783 0.758632
310 1 0.902871 0.0646819 0.658533
292 1 0.990583 0.0592694 0.71826
314 1 0.064894 0.242491 0.678063
386 1 0.0874328 0.239967 0.834069
320 1 0.1626 0.240618 0.737796
319 1 0.241496 0.156224 0.744627
318 1 0.238436 0.247325 0.659808
324 1 0.32524 0.236485 0.747523
394 1 0.418606 0.256408 0.821591
328 1 0.481859 0.240255 0.741828
347 1 0.396476 0.335914 0.753022
397 1 0.500073 0.164994 0.826182
327 1 0.580476 0.181576 0.752359
332 1 0.664173 0.248927 0.74597
401 1 0.674564 0.171814 0.837529
351 1 0.582217 0.330876 0.748633
398 1 0.585177 0.276884 0.843993
330 1 0.758987 0.245409 0.665988
331 1 0.76403 0.174022 0.751792
402 1 0.739431 0.249908 0.82863
336 1 0.835322 0.261765 0.759117
334 1 0.918437 0.252513 0.674833
335 1 0.901443 0.171325 0.761547
316 1 0.97835 0.252527 0.762169
339 1 0.0732214 0.347517 0.742718
338 1 0.0799721 0.423118 0.648883
344 1 0.161341 0.422244 0.754591
342 1 0.233844 0.40948 0.671119
343 1 0.251891 0.326841 0.745285
414 1 0.236074 0.420655 0.840176
348 1 0.32002 0.406471 0.767198
418 1 0.419044 0.406497 0.832054
352 1 0.500524 0.410892 0.75269
417 1 0.335471 0.328637 0.836736
350 1 0.590887 0.406236 0.662782
422 1 0.582614 0.421885 0.835525
733 1 0.48991 0.498135 0.663035
421 1 0.492942 0.334016 0.825368
425 1 0.671299 0.343341 0.839519
811 1 0.761772 0.49838 0.921328
353 1 0.663157 0.317138 0.655054
437 1 0.15423 0.497019 0.996539
355 1 0.747721 0.316077 0.744447
356 1 0.67884 0.415003 0.750908
360 1 0.817229 0.409514 0.750567
340 1 0.990508 0.418226 0.750535
359 1 0.907318 0.337404 0.749789
409 1 0.998057 0.349013 0.834254
430 1 0.916808 0.425069 0.833
2 1 0.0884957 0.0875087 0.997794
362 1 0.0741574 0.0846108 0.819056
389 1 0.179485 0.155925 0.820161
387 1 0.0790183 0.161127 0.916283
364 1 0.00566713 0.0813105 0.914275
424 1 0.499991 0.417078 0.920289
295 1 0.254558 0.001721 0.755419
366 1 0.259311 0.0778549 0.82706
368 1 0.160706 0.0830071 0.909556
391 1 0.241461 0.149644 0.92259
432 1 0.840285 0.414706 0.926205
10 1 0.423437 0.073233 0.970793
278 1 0.588871 0.414657 0.506424
393 1 0.331441 0.15811 0.818787
372 1 0.334894 0.0833842 0.911665
395 1 0.42389 0.1749 0.902366
376 1 0.519652 0.0780008 0.910575
14 1 0.582261 0.0775975 0.994886
399 1 0.589604 0.18442 0.900871
37 1 0.494308 0.161452 0.985548
18 1 0.737914 0.104131 0.992871
380 1 0.657657 0.0935899 0.917512
384 1 0.827804 0.0733507 0.903548
429 1 0.832025 0.342271 0.841581
22 1 0.911377 0.0667192 0.993744
382 1 0.912247 0.0875462 0.828922
373 1 0.520645 0.0112244 0.828386
53 1 0.176772 0.337556 0.998929
413 1 0.151016 0.337345 0.835946
411 1 0.0661599 0.345943 0.927291
30 1 0.253548 0.248613 0.996737
392 1 0.169448 0.223585 0.911185
390 1 0.254082 0.235765 0.847322
221 1 0.172718 0.00228695 0.502136
34 1 0.420366 0.255952 0.995851
396 1 0.333408 0.246659 0.911717
41 1 0.656005 0.172751 0.993708
400 1 0.495706 0.254473 0.916164
423 1 0.579439 0.351144 0.925039
405 1 0.815667 0.166965 0.838921
403 1 0.745705 0.183467 0.92016
404 1 0.665453 0.263583 0.910409
731 1 0.413056 0.484867 0.742525
408 1 0.838421 0.257174 0.918102
406 1 0.905804 0.257274 0.841469
407 1 0.909494 0.164069 0.906439
307 1 0.751959 0.01412 0.763363
388 1 0.998702 0.246673 0.912179
431 1 0.915058 0.331312 0.925405
45 1 0.840013 0.158755 0.991173
410 1 0.0821644 0.41954 0.841412
33 1 0.349532 0.163177 0.991041
427 1 0.749437 0.343842 0.931346
54 1 0.253697 0.419898 0.991172
415 1 0.253487 0.336325 0.912283
416 1 0.165235 0.42541 0.917469
807 1 0.584048 0.497656 0.912594
420 1 0.335063 0.423086 0.915114
379 1 0.747482 0.00353562 0.912764
419 1 0.418911 0.340562 0.932951
793 1 0.00374349 0.499765 0.822837
61 1 0.501601 0.336924 0.999993
440 1 0.177913 0.571558 0.0796363
459 1 0.0901676 0.668364 0.0736965
506 1 0.0812222 0.595399 0.172896
463 1 0.245521 0.658056 0.0735719
510 1 0.248767 0.56792 0.168713
533 1 0.175081 0.665611 0.157279
444 1 0.330115 0.582431 0.0757398
467 1 0.418721 0.667507 0.0857236
517 1 0.498798 0.514505 0.163195
514 1 0.423223 0.590365 0.15736
448 1 0.508612 0.593836 0.0841517
452 1 0.687613 0.593558 0.0834698
447 1 0.593014 0.517352 0.0993937
653 1 0.171759 0.504291 0.49086
456 1 0.824312 0.584286 0.0891155
462 1 0.240664 0.745513 0.0138873
666 1 0.753479 0.579892 0.494448
436 1 0.989277 0.595878 0.092209
526 1 0.919496 0.569065 0.167722
529 1 0.999955 0.670315 0.162301
549 1 0.836427 0.667847 0.167148
479 1 0.910339 0.658889 0.0960128
454 1 0.911478 0.5759 0.00159109
217 1 0.00439796 0.995713 0.495692
460 1 0.00614056 0.741725 0.0814966
464 1 0.158487 0.753075 0.0966561
483 1 0.0851913 0.827749 0.0777027
487 1 0.248112 0.836389 0.0742378
468 1 0.322031 0.735882 0.0821761
491 1 0.419514 0.821669 0.0777688
471 1 0.604444 0.678502 0.0887331
472 1 0.506109 0.744419 0.0805839
476 1 0.678994 0.758677 0.0848913
495 1 0.583829 0.826603 0.0884501
475 1 0.751598 0.673233 0.0843923
546 1 0.758193 0.751041 0.167954
499 1 0.760482 0.840667 0.0807561
644 1 0.661566 0.931355 0.400466
474 1 0.751765 0.752907 0.00883832
493 1 0.519268 0.83285 0.00412631
473 1 0.679532 0.676956 0.00742236
480 1 0.838665 0.746151 0.0843189
503 1 0.913752 0.833949 0.0826578
550 1 0.916898 0.748948 0.159419
649 1 0.998987 0.506722 0.498833
553 1 0.0042659 0.837825 0.166438
484 1 0.994673 0.899018 0.0849648
587 1 0.425624 0.5018 0.409277
554 1 0.0882684 0.91174 0.143987
77 1 0.174288 0.987306 0.14898
87 1 0.580472 0.996798 0.23808
81 1 0.330346 0.998007 0.168742
557 1 0.149748 0.828809 0.17022
488 1 0.161377 0.912124 0.072783
492 1 0.330465 0.918449 0.0833797
229 1 0.495109 0.9932 0.472345
478 1 0.920771 0.759171 0.0134955
562 1 0.417229 0.904461 0.161066
525 1 0.832714 0.502727 0.165209
515 1 0.427511 0.509225 0.251026
496 1 0.496582 0.910184 0.0826268
500 1 0.669918 0.919113 0.0923223
15 1 0.581567 0.994416 0.0775936
73 1 0.982719 0.998226 0.160598
570 1 0.745347 0.918904 0.168381
504 1 0.833668 0.922005 0.0825939
85 1 0.489856 0.992562 0.158375
573 1 0.825399 0.840025 0.17266
23 1 0.913305 0.99336 0.0776449
75 1 0.0767403 0.988724 0.24562
642 1 0.742905 0.916186 0.342126
508 1 0.999949 0.571402 0.243913
578 1 0.0832041 0.579595 0.318814
512 1 0.16677 0.598803 0.243423
531 1 0.0936348 0.671793 0.240534
601 1 0.000354043 0.654379 0.31327
646 1 0.926915 0.91425 0.343322
516 1 0.346144 0.581589 0.242023
605 1 0.171399 0.664979 0.334922
537 1 0.332948 0.652654 0.160011
535 1 0.247887 0.663833 0.243839
520 1 0.508233 0.58725 0.249705
539 1 0.412926 0.66781 0.247261
706 1 0.424834 0.901856 0.489359
541 1 0.501373 0.678953 0.166077
521 1 0.677733 0.50429 0.174515
518 1 0.590541 0.588613 0.17243
543 1 0.599238 0.669358 0.264982
519 1 0.573283 0.509654 0.24851
522 1 0.749012 0.589651 0.178001
524 1 0.660679 0.582089 0.266059
547 1 0.755679 0.674326 0.25656
433 1 0.997682 0.506176 0.0155074
528 1 0.839902 0.577321 0.246977
551 1 0.916062 0.658207 0.235105
1 1 0.99746 0.994294 0.00346314
598 1 0.922862 0.565879 0.340382
530 1 0.0730101 0.741555 0.156615
555 1 0.0972937 0.868969 0.255235
536 1 0.159927 0.745549 0.250307
532 1 0.0225878 0.764903 0.255397
534 1 0.236465 0.750587 0.180574
561 1 0.332702 0.82603 0.175795
559 1 0.230658 0.83802 0.247998
633 1 0.334816 0.823575 0.326943
606 1 0.248832 0.744728 0.324214
538 1 0.412587 0.74292 0.169121
565 1 0.498002 0.82527 0.158265
540 1 0.332364 0.732628 0.250622
544 1 0.498648 0.749955 0.240313
563 1 0.420054 0.823735 0.242969
609 1 0.329792 0.667415 0.335457
545 1 0.675445 0.673068 0.175837
617 1 0.680449 0.664629 0.34102
542 1 0.589635 0.748072 0.167795
548 1 0.670071 0.748946 0.263353
567 1 0.591074 0.829254 0.257128
569 1 0.675783 0.821611 0.175768
571 1 0.750301 0.832479 0.258233
618 1 0.771562 0.753076 0.332401
552 1 0.853019 0.747751 0.24428
622 1 0.929994 0.731861 0.31601
645 1 0.84097 0.827739 0.33158
511 1 0.245035 0.505672 0.249366
625 1 0.998857 0.836981 0.338227
626 1 0.0827428 0.92625 0.335571
556 1 0.996022 0.915506 0.247371
674 1 0.0832038 0.754219 0.497985
560 1 0.179624 0.932823 0.250811
558 1 0.249746 0.906858 0.158358
564 1 0.322532 0.901193 0.255544
445 1 0.503749 0.515174 0.00463076
83 1 0.419325 0.986472 0.239981
566 1 0.578797 0.900155 0.167565
638 1 0.574729 0.930766 0.335368
568 1 0.507055 0.913922 0.245124
572 1 0.669027 0.925731 0.24499
650 1 0.0946926 0.580439 0.498773
641 1 0.670572 0.836171 0.339704
575 1 0.908299 0.83723 0.24678
574 1 0.914194 0.916639 0.159885
576 1 0.826111 0.908689 0.258998
95 1 0.905495 0.987437 0.246369
673 1 0.00717874 0.670164 0.495466
603 1 0.0873278 0.66537 0.413075
580 1 0.00242303 0.579129 0.414262
677 1 0.16916 0.668259 0.490327
582 1 0.254152 0.584466 0.329989
584 1 0.16804 0.579091 0.412233
607 1 0.246529 0.665633 0.418266
588 1 0.329304 0.579132 0.403095
442 1 0.419485 0.580955 0.00308988
513 1 0.33199 0.505056 0.168851
586 1 0.42449 0.577733 0.326652
592 1 0.503234 0.587897 0.416606
611 1 0.409141 0.663955 0.409265
654 1 0.238391 0.588736 0.492122
590 1 0.584648 0.577481 0.332207
596 1 0.657213 0.577786 0.413082
615 1 0.579774 0.669338 0.422337
701 1 0.18421 0.827057 0.495715
594 1 0.755346 0.57187 0.330631
648 1 0.841689 0.910383 0.42732
621 1 0.845234 0.651445 0.332091
93 1 0.838999 0.998071 0.168999
600 1 0.837486 0.574652 0.42026
602 1 0.082965 0.748695 0.341591
627 1 0.0911989 0.835962 0.427769
608 1 0.172375 0.74513 0.416746
613 1 0.499858 0.660609 0.336271
612 1 0.326177 0.735671 0.416813
610 1 0.417529 0.745854 0.331983
616 1 0.498868 0.73798 0.424983
709 1 0.502676 0.833355 0.49467
614 1 0.581271 0.751748 0.348228
639 1 0.593642 0.836806 0.41794
686 1 0.588027 0.736525 0.491658
713 1 0.676749 0.831775 0.49167
710 1 0.586894 0.904408 0.492568
619 1 0.764271 0.655109 0.424829
620 1 0.691917 0.741575 0.421345
643 1 0.764595 0.823028 0.425392
599 1 0.913398 0.501578 0.419372
489 1 0.332174 0.819479 0.00988845
623 1 0.923473 0.668974 0.405666
624 1 0.839386 0.73809 0.416322
647 1 0.928935 0.838045 0.421902
694 1 0.922897 0.743705 0.495457
604 1 0.994684 0.746502 0.419935
494 1 0.58872 0.912387 0.0105365
628 1 0.00854928 0.913859 0.424586
632 1 0.181483 0.943874 0.417564
591 1 0.571305 0.505612 0.416557
629 1 0.168132 0.838479 0.33961
630 1 0.246591 0.907337 0.346898
631 1 0.259488 0.820432 0.407933
658 1 0.414079 0.574031 0.489559
481 1 0.0102233 0.828751 0.00248609
634 1 0.416097 0.910984 0.320416
714 1 0.735869 0.919916 0.476965
635 1 0.421687 0.814003 0.420721
637 1 0.498696 0.828043 0.326456
636 1 0.34505 0.9047 0.407548
145 1 0.992969 0.997246 0.350429
446 1 0.604404 0.599854 0.0129862
640 1 0.496294 0.907757 0.406886
662 1 0.58731 0.573639 0.495915
434 1 0.0797648 0.583719 0.00421595
11 1 0.424972 0.993383 0.0734835
443 1 0.413736 0.509572 0.0918813
91 1 0.760933 0.988603 0.253714
167 1 0.908698 0.99283 0.435938
581 1 0.17575 0.509342 0.328446
19 1 0.734128 0.998789 0.0802323
477 1 0.842629 0.660232 0.00012218
458 1 0.0853153 0.742604 8.09117e-05
652 1 0.0157227 0.596606 0.578236
749 1 0.160772 0.666026 0.66233
722 1 0.083079 0.591156 0.657234
656 1 0.171286 0.578837 0.585525
466 1 0.409284 0.747982 0.984511
660 1 0.326879 0.58977 0.586011
679 1 0.248531 0.667624 0.574277
671 1 0.923307 0.500101 0.576609
730 1 0.415115 0.582433 0.666941
683 1 0.420973 0.654636 0.577744
664 1 0.496554 0.576295 0.579612
681 1 0.334549 0.666949 0.50599
383 1 0.931042 0.998435 0.903664
309 1 0.823391 0.986153 0.676576
734 1 0.584646 0.569055 0.655816
757 1 0.509161 0.663827 0.67201
668 1 0.667474 0.572216 0.57809
685 1 0.501255 0.646732 0.501069
738 1 0.753828 0.585937 0.67266
672 1 0.834682 0.596875 0.602676
450 1 0.75796 0.572231 0.997519
482 1 0.0668105 0.909639 0.993233
725 1 0.159954 0.506718 0.677495
742 1 0.915334 0.577703 0.668067
718 1 0.931797 0.918135 0.503974
675 1 0.0959705 0.67148 0.583344
746 1 0.0844716 0.733497 0.674098
651 1 0.090536 0.504043 0.571296
680 1 0.168249 0.752936 0.574609
864 1 0.847227 0.919174 0.904632
844 1 0.00442552 0.894925 0.911162
365 1 0.16167 0.992714 0.837187
684 1 0.322999 0.740318 0.604382
754 1 0.430348 0.740892 0.652649
688 1 0.503281 0.735422 0.561234
657 1 0.327522 0.506364 0.507272
682 1 0.406322 0.745212 0.504007
687 1 0.582714 0.657042 0.579793
692 1 0.659358 0.741142 0.579991
781 1 0.505732 0.843155 0.668266
761 1 0.637775 0.670998 0.667299
785 1 0.673312 0.822274 0.66111
765 1 0.816513 0.663525 0.679312
691 1 0.74796 0.664192 0.591048
715 1 0.744707 0.834669 0.573336
762 1 0.729356 0.725839 0.677026
695 1 0.93324 0.664591 0.578686
745 1 0.996733 0.669644 0.663358
676 1 0.00943974 0.75009 0.582337
696 1 0.842982 0.739839 0.59193
769 1 0.0135374 0.828957 0.657228
766 1 0.931637 0.753021 0.650261
699 1 0.0949024 0.834506 0.595163
700 1 0.998732 0.908442 0.581685
698 1 0.086971 0.916072 0.506478
219 1 0.0873863 0.99645 0.597769
703 1 0.247927 0.831203 0.576188
498 1 0.755261 0.912638 0.99618
704 1 0.176897 0.91268 0.58874
377 1 0.667802 0.997843 0.835032
659 1 0.417485 0.506767 0.571442
707 1 0.422966 0.824777 0.579457
708 1 0.327601 0.911689 0.586716
490 1 0.410838 0.903997 0.98668
711 1 0.582184 0.83607 0.574558
712 1 0.496793 0.915664 0.578588
782 1 0.602686 0.910664 0.668146
237 1 0.827709 0.992048 0.500785
716 1 0.663419 0.918837 0.570672
720 1 0.833855 0.907647 0.598532
786 1 0.745247 0.906524 0.659654
719 1 0.918124 0.830029 0.582997
789 1 0.83378 0.821902 0.663749
363 1 0.0863746 0.995057 0.910264
9 1 0.345258 0.984809 0.994274
794 1 0.0970597 0.57864 0.837704
747 1 0.070839 0.654309 0.750122
723 1 0.0929736 0.50786 0.761639
821 1 0.186469 0.656681 0.83424
227 1 0.426337 0.993684 0.591315
726 1 0.25335 0.577682 0.669565
728 1 0.170048 0.587506 0.745146
732 1 0.345649 0.572972 0.742469
727 1 0.260532 0.501458 0.751469
753 1 0.348287 0.668785 0.667398
802 1 0.424626 0.583592 0.830133
291 1 0.0963202 0.986768 0.745495
293 1 0.181935 0.997039 0.662999
736 1 0.512423 0.601373 0.762806
759 1 0.597509 0.662313 0.775092
740 1 0.665799 0.575909 0.74792
806 1 0.595302 0.581838 0.849336
837 1 0.837109 0.658536 0.837958
744 1 0.829682 0.579344 0.747636
810 1 0.751567 0.574001 0.830151
724 1 0.000268756 0.571853 0.748145
767 1 0.907368 0.666769 0.72716
369 1 0.343293 0.99437 0.828757
817 1 0.9986 0.648478 0.842823
818 1 0.0856807 0.723514 0.840092
771 1 0.0728344 0.812027 0.745202
751 1 0.258486 0.652764 0.750074
752 1 0.170041 0.750578 0.744193
750 1 0.236748 0.740303 0.660708
775 1 0.250108 0.819961 0.737115
777 1 0.341667 0.837645 0.668308
755 1 0.4188 0.661748 0.751169
825 1 0.337852 0.671346 0.832279
756 1 0.343138 0.749867 0.74202
779 1 0.429614 0.812325 0.745682
849 1 0.327638 0.822192 0.833936
826 1 0.425985 0.75228 0.839193
758 1 0.576735 0.753544 0.657406
760 1 0.513424 0.733075 0.750904
764 1 0.66894 0.752913 0.756934
783 1 0.608276 0.844103 0.751368
763 1 0.745122 0.658646 0.761178
857 1 0.683657 0.835068 0.831088
834 1 0.750112 0.73926 0.842332
748 1 0.00202477 0.726892 0.758604
768 1 0.819054 0.74304 0.75021
838 1 0.908038 0.757042 0.828775
791 1 0.917073 0.820557 0.73278
361 1 0.00615809 0.977496 0.826609
799 1 0.257293 0.508257 0.908719
770 1 0.0949587 0.90759 0.675976
772 1 0.00762965 0.893495 0.7506
289 1 0.000619414 0.97027 0.667937
773 1 0.165398 0.818357 0.668589
774 1 0.24745 0.915502 0.673797
693 1 0.837741 0.658506 0.512857
776 1 0.165507 0.902442 0.761851
846 1 0.241698 0.916273 0.827074
375 1 0.610272 0.992916 0.918799
299 1 0.426442 0.99784 0.75123
778 1 0.426523 0.919867 0.674256
780 1 0.330697 0.908113 0.758368
850 1 0.433471 0.903295 0.816424
502 1 0.927178 0.92268 0.986853
854 1 0.597884 0.9165 0.840483
853 1 0.517163 0.82264 0.822801
784 1 0.511733 0.916613 0.750593
301 1 0.513057 0.990723 0.656005
470 1 0.59682 0.752928 0.995473
239 1 0.918259 0.982901 0.578166
787 1 0.757999 0.823838 0.742967
788 1 0.683159 0.928426 0.74766
721 1 0.00735232 0.508954 0.664374
858 1 0.754146 0.919205 0.841706
790 1 0.908589 0.906533 0.662636
792 1 0.831035 0.909568 0.748334
862 1 0.92471 0.889679 0.818965
667 1 0.749557 0.501751 0.575526
441 1 0.34073 0.501991 0.999788
819 1 0.070084 0.665127 0.923033
805 1 0.499496 0.501689 0.825977
798 1 0.274353 0.587993 0.83211
697 1 0.0160698 0.830606 0.512402
800 1 0.170092 0.56915 0.916543
438 1 0.247555 0.572013 0.993111
690 1 0.749877 0.741455 0.517726
689 1 0.662145 0.654056 0.501877
457 1 0.987583 0.658789 0.999894
804 1 0.347506 0.586628 0.91797
808 1 0.510579 0.579441 0.920385
831 1 0.608307 0.665022 0.925229
13 1 0.508623 0.980086 0.98737
381 1 0.844108 0.993295 0.832243
833 1 0.680148 0.661297 0.842975
717 1 0.83974 0.840709 0.514704
812 1 0.665729 0.56011 0.936421
816 1 0.837238 0.585964 0.915292
835 1 0.743994 0.654858 0.925094
796 1 0.985927 0.571374 0.934238
839 1 0.920587 0.665943 0.903401
814 1 0.916132 0.580566 0.819834
815 1 0.911278 0.500279 0.91906
461 1 0.165863 0.656793 0.993029
231 1 0.570626 0.992626 0.556359
843 1 0.0844076 0.827335 0.911775
824 1 0.163363 0.748666 0.910159
822 1 0.256946 0.739593 0.818944
823 1 0.253607 0.669448 0.929341
847 1 0.249604 0.833734 0.917793
797 1 0.169466 0.50837 0.828754
845 1 0.195736 0.812987 0.837696
678 1 0.255519 0.745903 0.509466
465 1 0.337021 0.656453 0.995687
827 1 0.413008 0.673658 0.914965
828 1 0.325301 0.747968 0.920506
830 1 0.602749 0.756013 0.833518
829 1 0.522898 0.662185 0.858415
832 1 0.508356 0.747037 0.915513
469 1 0.509426 0.667854 0.994937
655 1 0.252267 0.501317 0.588242
861 1 0.831363 0.831425 0.837636
836 1 0.674233 0.77427 0.917087
859 1 0.760471 0.835344 0.913259
840 1 0.83455 0.743748 0.919903
841 1 0.0024188 0.808252 0.824511
497 1 0.665715 0.845336 0.995209
863 1 0.924708 0.824973 0.914919
820 1 0.00853722 0.754086 0.914756
702 1 0.254452 0.920943 0.50227
855 1 0.587623 0.839184 0.907217
485 1 0.168154 0.822169 0.998671
842 1 0.0855063 0.909959 0.831962
225 1 0.329451 0.989721 0.5163
297 1 0.329876 0.98809 0.668355
739 1 0.755513 0.503579 0.74448
486 1 0.263452 0.917661 0.990897
848 1 0.170016 0.909557 0.913385
852 1 0.327352 0.915074 0.904526
371 1 0.421724 0.982892 0.90239
851 1 0.415679 0.830672 0.917651
856 1 0.507672 0.909514 0.913149
860 1 0.676251 0.914812 0.919663
803 1 0.434719 0.509182 0.922811
235 1 0.747686 0.994055 0.570594
303 1 0.597306 0.991452 0.75377
741 1 0.838503 0.507674 0.654207
311 1 0.913882 0.977617 0.750673
705 1 0.331567 0.828034 0.513977
670 1 0.910623 0.58276 0.500057
501 1 0.845222 0.85337 0.997702
