ITEM: TIMESTEP
5000
ITEM: NUMBER OF ATOMS
864
ITEM: BOX BOUNDS pp pp pp
0.0000000000000000e+00 3.1559999999999999e+01
0.0000000000000000e+00 3.1559999999999999e+01
0.0000000000000000e+00 3.1559999999999999e+01
ITEM: ATOMS id type xs ys zs
8 1 0.147513 0.0843914 0.0782387
2 1 0.0598664 0.0641909 0.0133951
3 1 0.0770627 0.0042785 0.0935783
12 1 0.326259 0.0925546 0.0729919
6 1 0.240678 0.0899245 0.00239794
31 1 0.237124 0.152824 0.0876173
7 1 0.255755 0.00936946 0.0967108
35 1 0.430657 0.159803 0.0728742
11 1 0.420856 0.0107581 0.0908196
9 1 0.350415 0.00117999 0.0133332
16 1 0.504996 0.0831256 0.0751643
86 1 0.590039 0.0968512 0.166351
13 1 0.50114 0.000161728 0.00828353
15 1 0.595938 0.00935809 0.095742
20 1 0.669057 0.0780676 0.0831128
43 1 0.75131 0.165465 0.0792385
90 1 0.747412 0.0823881 0.154834
113 1 0.669316 0.157233 0.155765
89 1 0.675424 0.0038952 0.161181
18 1 0.752019 0.0818569 0.000989485
19 1 0.755445 0.00318917 0.0724721
4 1 0.998486 0.0883163 0.102354
24 1 0.83385 0.0838023 0.0720464
47 1 0.925011 0.161109 0.0816153
23 1 0.910232 0.000550107 0.0944255
94 1 0.915087 0.0908148 0.165211
117 1 0.838058 0.16105 0.144013
22 1 0.927285 0.0735031 0.0102201
27 1 0.072726 0.187199 0.0836655
97 1 0.00597013 0.173445 0.165136
25 1 0.00781195 0.170044 0.000329863
26 1 0.0807405 0.255945 0.00195777
32 1 0.171778 0.247137 0.0855079
36 1 0.33244 0.243166 0.0905898
30 1 0.253107 0.235182 0.0140767
105 1 0.337263 0.168008 0.166636
33 1 0.340449 0.176865 0.00370996
129 1 0.339491 0.332938 0.165092
40 1 0.496876 0.254938 0.0847643
39 1 0.581167 0.169833 0.0849279
41 1 0.66049 0.170937 0.0069845
63 1 0.58815 0.327205 0.0833581
65 1 0.6611 0.314823 0.00423244
44 1 0.669667 0.244944 0.0877029
48 1 0.828377 0.2462 0.0713017
114 1 0.757573 0.249556 0.158103
137 1 0.669725 0.329422 0.166597
28 1 0.99682 0.252347 0.0938174
46 1 0.927008 0.246492 0.00694186
118 1 0.91698 0.248952 0.157142
51 1 0.0904406 0.336866 0.0814249
122 1 0.0777174 0.435762 0.162593
125 1 0.165325 0.352222 0.166377
56 1 0.162535 0.41507 0.0736807
435 1 0.0772142 0.477934 0.070774
55 1 0.250911 0.337159 0.0862234
509 1 0.168053 0.492215 0.166312
441 1 0.325071 0.485287 0.0051494
59 1 0.426553 0.339529 0.0656882
60 1 0.338429 0.420074 0.0981295
443 1 0.425589 0.486996 0.0782958
64 1 0.514176 0.414381 0.0718035
134 1 0.573734 0.420553 0.165597
68 1 0.659239 0.419805 0.104965
133 1 0.518122 0.335111 0.160127
67 1 0.749125 0.343375 0.0804157
72 1 0.832986 0.411593 0.0773481
449 1 0.674692 0.481594 0.017424
451 1 0.754279 0.490145 0.0872039
521 1 0.674865 0.492002 0.162683
71 1 0.909672 0.339981 0.0764428
525 1 0.845849 0.486413 0.157261
52 1 0.990316 0.414693 0.076272
141 1 0.842743 0.335904 0.155456
505 1 0.987676 0.499641 0.146511
74 1 0.091723 0.0854618 0.174705
149 1 0.166202 0.00158036 0.318567
76 1 0.00119148 0.0906037 0.24341
146 1 0.09761 0.0901936 0.321397
145 1 0.0181561 0.0179102 0.331538
78 1 0.249758 0.0809457 0.173599
80 1 0.189398 0.0888482 0.253757
79 1 0.260557 0.0162758 0.257738
82 1 0.422194 0.0803187 0.17187
84 1 0.339593 0.0840233 0.24972
88 1 0.488396 0.0854706 0.252061
81 1 0.341218 0.00781056 0.170907
87 1 0.595393 0.0188004 0.260653
111 1 0.572185 0.165146 0.247949
85 1 0.509978 0.00693896 0.168884
92 1 0.677867 0.0793462 0.242354
115 1 0.747687 0.159874 0.238001
96 1 0.830149 0.0972981 0.233783
189 1 0.828282 0.161514 0.322495
161 1 0.677785 0.00853671 0.327115
166 1 0.914912 0.0974711 0.31704
95 1 0.918725 0.00825633 0.251534
165 1 0.838312 0.0133551 0.322073
98 1 0.0883746 0.24545 0.169671
99 1 0.0876495 0.170116 0.247944
170 1 0.0853243 0.249819 0.320487
101 1 0.17078 0.172325 0.175963
173 1 0.167914 0.175492 0.320736
103 1 0.256243 0.184699 0.266602
104 1 0.169174 0.259753 0.252753
102 1 0.243662 0.268827 0.177672
106 1 0.42665 0.251174 0.170627
107 1 0.407045 0.176677 0.252522
108 1 0.349144 0.256461 0.247158
131 1 0.439778 0.326535 0.256952
109 1 0.503898 0.167542 0.17035
112 1 0.502741 0.244802 0.255556
110 1 0.5834 0.241468 0.170966
135 1 0.585164 0.332056 0.249768
185 1 0.670425 0.169342 0.32858
116 1 0.678646 0.244203 0.245029
120 1 0.824626 0.257563 0.254795
139 1 0.748375 0.330763 0.243585
100 1 0.990419 0.255528 0.247066
119 1 0.912526 0.1811 0.234501
143 1 0.911156 0.312279 0.247545
121 1 0.0193969 0.334118 0.170894
123 1 0.0879733 0.341192 0.261998
194 1 0.0850442 0.425526 0.331319
127 1 0.258503 0.341193 0.250574
126 1 0.255292 0.426102 0.173923
128 1 0.170471 0.427376 0.253205
511 1 0.266082 0.498901 0.259556
517 1 0.490586 0.497496 0.173629
201 1 0.345427 0.336986 0.324201
130 1 0.426257 0.396755 0.174649
132 1 0.338601 0.413688 0.251076
515 1 0.419748 0.48112 0.256395
136 1 0.503998 0.420304 0.260493
140 1 0.658802 0.414379 0.239415
523 1 0.739959 0.49669 0.253011
138 1 0.759123 0.412305 0.168446
210 1 0.749939 0.416315 0.33023
209 1 0.679707 0.335165 0.325876
214 1 0.91818 0.41668 0.332199
527 1 0.921678 0.490589 0.248339
142 1 0.928726 0.397348 0.16848
124 1 0.989649 0.408486 0.264133
144 1 0.841271 0.406139 0.258013
221 1 0.161475 0.0013852 0.49672
169 1 0.0122782 0.1642 0.334366
148 1 0.0188976 0.0885206 0.414303
152 1 0.165936 0.0792233 0.399335
150 1 0.242494 0.100703 0.339842
156 1 0.332431 0.0828227 0.403689
222 1 0.257597 0.0800515 0.493242
253 1 0.484603 0.159704 0.494949
226 1 0.417781 0.0707145 0.490331
154 1 0.413493 0.091059 0.335642
179 1 0.418307 0.163468 0.411767
155 1 0.40773 0.00616875 0.406676
249 1 0.343448 0.163951 0.496111
181 1 0.515235 0.166657 0.340511
160 1 0.502727 0.0834197 0.413747
158 1 0.589844 0.0959234 0.352611
162 1 0.753276 0.0855765 0.337691
164 1 0.679617 0.0947064 0.419171
187 1 0.761213 0.163141 0.422977
168 1 0.8327 0.0752685 0.411648
261 1 0.844695 0.159572 0.499436
167 1 0.923638 0.0114266 0.397107
191 1 0.917062 0.164201 0.412697
242 1 0.0897333 0.269576 0.491258
245 1 0.166258 0.169756 0.488548
193 1 0.0118812 0.317502 0.343689
171 1 0.0870572 0.172008 0.418831
172 1 0.00109967 0.234021 0.41974
246 1 0.23984 0.245267 0.49407
174 1 0.26183 0.27166 0.341552
175 1 0.26062 0.170477 0.414761
176 1 0.178179 0.252067 0.407633
250 1 0.426782 0.245371 0.49981
177 1 0.337651 0.181663 0.341108
178 1 0.413732 0.256328 0.3497
180 1 0.337439 0.251991 0.439418
203 1 0.420331 0.332134 0.424018
182 1 0.600378 0.256109 0.334939
183 1 0.583509 0.170726 0.433524
184 1 0.512131 0.250944 0.410716
254 1 0.594109 0.26067 0.498631
207 1 0.582002 0.329659 0.416221
258 1 0.761199 0.251648 0.492828
188 1 0.678494 0.236035 0.416936
186 1 0.756573 0.255755 0.33902
262 1 0.92209 0.251802 0.498365
285 1 0.845531 0.330316 0.496948
265 1 0.999413 0.328203 0.479178
192 1 0.836202 0.254615 0.403815
190 1 0.910956 0.23965 0.335378
200 1 0.160316 0.425889 0.421983
195 1 0.0857834 0.340777 0.402721
196 1 0.00553458 0.410735 0.412409
197 1 0.172276 0.343433 0.334344
198 1 0.255546 0.41596 0.33832
199 1 0.253986 0.344845 0.42776
274 1 0.42794 0.415077 0.499404
204 1 0.345922 0.426148 0.409944
202 1 0.428867 0.411657 0.338974
585 1 0.343804 0.494527 0.336409
273 1 0.339059 0.34557 0.498583
208 1 0.519501 0.422191 0.42228
205 1 0.510935 0.343657 0.334178
206 1 0.585711 0.411935 0.333759
212 1 0.664965 0.412004 0.422897
281 1 0.677671 0.333939 0.49923
665 1 0.675067 0.485885 0.49614
282 1 0.765211 0.423712 0.475821
593 1 0.66721 0.479481 0.337404
211 1 0.761622 0.340847 0.410736
577 1 0.9839 0.49502 0.343278
216 1 0.847047 0.444234 0.404175
213 1 0.841708 0.334025 0.336211
215 1 0.920005 0.337683 0.407751
224 1 0.163336 0.0910301 0.585147
243 1 0.0781846 0.163061 0.60011
317 1 0.160536 0.165878 0.660511
218 1 0.0845935 0.0872465 0.501462
247 1 0.248065 0.159949 0.573553
297 1 0.33079 0.00535709 0.65707
228 1 0.341116 0.0858074 0.585856
232 1 0.4962 0.0858552 0.575645
298 1 0.426887 0.0871449 0.661963
321 1 0.335703 0.162382 0.662305
230 1 0.573721 0.084366 0.501138
302 1 0.579545 0.0803045 0.653496
255 1 0.573158 0.164389 0.575432
231 1 0.581752 0.00561246 0.579911
236 1 0.667355 0.0678252 0.579014
259 1 0.757434 0.159706 0.576156
329 1 0.669214 0.16016 0.664761
240 1 0.832743 0.0597524 0.572104
306 1 0.775503 0.075021 0.659206
333 1 0.829729 0.165217 0.664142
257 1 0.671736 0.160164 0.506162
234 1 0.745065 0.0671229 0.501879
220 1 0.998941 0.0966544 0.59277
263 1 0.916503 0.162088 0.585631
239 1 0.924694 0.0167651 0.578477
238 1 0.930704 0.101024 0.507061
241 1 0.0250952 0.181834 0.515286
244 1 0.00839795 0.26175 0.591822
248 1 0.172989 0.235659 0.584801
271 1 0.251689 0.329127 0.583503
251 1 0.410377 0.172858 0.584475
252 1 0.33397 0.254221 0.581051
325 1 0.499428 0.185663 0.654615
345 1 0.337987 0.331711 0.665034
256 1 0.505068 0.257813 0.574041
326 1 0.59231 0.239121 0.658005
349 1 0.510142 0.326832 0.664993
260 1 0.671799 0.24184 0.582017
283 1 0.757657 0.328012 0.58707
330 1 0.747928 0.235733 0.658095
264 1 0.829826 0.241224 0.571349
334 1 0.902961 0.248667 0.65798
287 1 0.918686 0.325809 0.578035
721 1 0.00127079 0.467507 0.662188
267 1 0.0970118 0.335337 0.589034
268 1 0.000672948 0.414816 0.5632
338 1 0.0969521 0.421016 0.656767
266 1 0.0898028 0.405829 0.509745
337 1 0.00819115 0.345779 0.652118
649 1 0.0104047 0.49819 0.502424
272 1 0.182493 0.422304 0.583357
276 1 0.327852 0.412202 0.58596
269 1 0.174124 0.340781 0.500875
270 1 0.25973 0.424771 0.501524
275 1 0.416203 0.344397 0.591106
277 1 0.495044 0.335415 0.503785
278 1 0.58609 0.422202 0.514709
279 1 0.602039 0.338402 0.586491
280 1 0.507306 0.413508 0.584184
350 1 0.584629 0.419922 0.662367
357 1 0.825534 0.337395 0.662795
284 1 0.672983 0.418822 0.586965
354 1 0.751487 0.419439 0.664185
288 1 0.831439 0.414508 0.588064
667 1 0.750617 0.486099 0.574445
671 1 0.911868 0.483061 0.578448
741 1 0.836551 0.492051 0.659289
286 1 0.919428 0.412566 0.502298
290 1 0.089648 0.078496 0.67433
296 1 0.149836 0.0844287 0.751101
292 1 0.011468 0.0905633 0.748489
289 1 0.00238307 0.00938587 0.668711
294 1 0.247837 0.0958629 0.674544
319 1 0.244296 0.159438 0.755701
366 1 0.230301 0.0730108 0.832916
295 1 0.258295 0.00304628 0.752521
300 1 0.335418 0.0851918 0.745928
370 1 0.423184 0.0849097 0.828798
303 1 0.590923 0.015509 0.749256
304 1 0.501074 0.096938 0.748223
327 1 0.588483 0.164077 0.740857
373 1 0.512224 0.0123137 0.818357
397 1 0.503914 0.15879 0.829475
308 1 0.676571 0.0803953 0.748847
331 1 0.756731 0.155629 0.73989
310 1 0.916575 0.0906 0.669122
312 1 0.836444 0.0736729 0.752825
335 1 0.911501 0.164641 0.751753
382 1 0.933894 0.0740899 0.83262
315 1 0.0866466 0.179147 0.747466
314 1 0.0870257 0.255919 0.670718
339 1 0.0847826 0.321864 0.757827
409 1 0.00273819 0.32615 0.830439
318 1 0.244848 0.24323 0.670184
320 1 0.172175 0.23462 0.754132
343 1 0.266062 0.321269 0.750893
413 1 0.181537 0.319682 0.826589
390 1 0.253473 0.239111 0.832667
323 1 0.418972 0.169462 0.753591
324 1 0.337801 0.239594 0.741841
322 1 0.418007 0.247616 0.668076
347 1 0.41995 0.323955 0.743991
417 1 0.342127 0.328141 0.831105
328 1 0.504809 0.262299 0.757068
332 1 0.664794 0.245795 0.753256
425 1 0.665475 0.328235 0.82512
353 1 0.677974 0.316625 0.670097
336 1 0.81135 0.258445 0.746954
313 1 0.986827 0.167269 0.671105
385 1 0.99845 0.176171 0.821919
316 1 0.993114 0.253345 0.740752
359 1 0.908755 0.327004 0.733733
406 1 0.916762 0.258337 0.82544
410 1 0.0944387 0.41304 0.817841
340 1 0.0168611 0.405524 0.751758
723 1 0.0782386 0.492366 0.737963
341 1 0.168131 0.339004 0.669775
727 1 0.256024 0.496023 0.749074
729 1 0.333035 0.487603 0.669995
344 1 0.175549 0.406583 0.755854
342 1 0.249385 0.415787 0.676487
414 1 0.255088 0.408744 0.83035
348 1 0.331491 0.41384 0.745166
346 1 0.410557 0.41263 0.668788
801 1 0.339394 0.492391 0.824594
418 1 0.414621 0.411755 0.825834
352 1 0.497088 0.416055 0.744299
805 1 0.497024 0.486176 0.825676
351 1 0.583285 0.345017 0.752512
739 1 0.752293 0.494502 0.757951
355 1 0.749459 0.347503 0.754603
356 1 0.671413 0.41558 0.743845
429 1 0.841156 0.337119 0.82045
360 1 0.836583 0.412999 0.746028
358 1 0.916767 0.405821 0.666745
430 1 0.93477 0.401104 0.822664
743 1 0.926321 0.499409 0.73403
389 1 0.161529 0.16062 0.839704
362 1 0.0838422 0.0707215 0.833842
368 1 0.155904 0.0729078 0.929331
364 1 0.000877245 0.0682537 0.925779
387 1 0.0837946 0.161316 0.912754
367 1 0.245922 0.00080564 0.927157
393 1 0.330934 0.154959 0.837038
372 1 0.325273 0.0782017 0.923449
391 1 0.240408 0.158182 0.914511
10 1 0.418012 0.0804633 0.996474
395 1 0.411862 0.152428 0.915983
371 1 0.418999 0.000875748 0.915895
376 1 0.500615 0.0755518 0.914729
374 1 0.594759 0.0813436 0.834946
399 1 0.592193 0.16616 0.923147
14 1 0.579756 0.0750548 0.992604
17 1 0.664397 0.00210347 0.994777
380 1 0.669302 0.0633562 0.90963
378 1 0.758943 0.0818505 0.841427
401 1 0.680962 0.15664 0.849446
45 1 0.84393 0.163321 0.997851
381 1 0.84724 0.000432716 0.837246
384 1 0.862826 0.0780697 0.925528
386 1 0.0784041 0.242205 0.836475
388 1 0.00285718 0.242271 0.913643
392 1 0.158691 0.245351 0.910414
411 1 0.0838756 0.331782 0.900908
57 1 0.320433 0.323179 0.995455
53 1 0.167328 0.329514 0.98291
29 1 0.16776 0.171445 0.989684
415 1 0.253564 0.324977 0.912782
394 1 0.418364 0.246369 0.835918
34 1 0.425003 0.24504 0.992216
396 1 0.336641 0.23743 0.916286
400 1 0.485536 0.242506 0.911038
37 1 0.510581 0.168924 0.98871
38 1 0.575132 0.257253 0.986355
398 1 0.59203 0.229369 0.835556
61 1 0.504579 0.332263 0.996438
405 1 0.818534 0.171001 0.840554
403 1 0.751305 0.180321 0.939168
42 1 0.756337 0.274357 0.996297
402 1 0.745778 0.25528 0.836708
404 1 0.672008 0.247655 0.918207
408 1 0.842779 0.253716 0.903904
407 1 0.915048 0.170657 0.895966
431 1 0.929573 0.322856 0.915218
50 1 0.0917623 0.406328 0.988067
795 1 0.0818203 0.480902 0.900025
412 1 0.00351591 0.408274 0.906201
416 1 0.16383 0.413014 0.90165
799 1 0.257464 0.49293 0.907358
54 1 0.257219 0.405436 0.997314
437 1 0.176573 0.491562 0.987177
58 1 0.406976 0.422094 0.988254
420 1 0.343441 0.416262 0.906186
421 1 0.499454 0.343647 0.835417
419 1 0.418772 0.335678 0.91939
445 1 0.500791 0.479649 0.994619
422 1 0.586098 0.413839 0.836041
423 1 0.589468 0.335527 0.89564
807 1 0.595807 0.491861 0.93304
424 1 0.506689 0.410968 0.915944
62 1 0.598949 0.406351 0.998582
428 1 0.670882 0.425751 0.926413
66 1 0.752621 0.411376 0.99817
426 1 0.756192 0.421748 0.835742
427 1 0.756737 0.340827 0.9057
432 1 0.856111 0.403059 0.899208
453 1 0.838371 0.482142 0.975978
69 1 0.848116 0.346632 0.983177
70 1 0.924787 0.423723 0.983128
49 1 0.988871 0.340032 0.99978
815 1 0.925067 0.499642 0.904826
459 1 0.085955 0.654208 0.0719422
506 1 0.0805132 0.576916 0.156735
529 1 0.0111366 0.666221 0.159888
440 1 0.17205 0.578706 0.0817259
444 1 0.319882 0.58064 0.0825501
533 1 0.179487 0.662912 0.157032
439 1 0.249019 0.501191 0.080487
448 1 0.489275 0.588237 0.0574703
467 1 0.405755 0.6659 0.0684318
541 1 0.498051 0.661508 0.139074
514 1 0.410672 0.578902 0.159085
442 1 0.406036 0.566344 0.00424001
545 1 0.649969 0.649525 0.163577
447 1 0.568442 0.512876 0.0809095
452 1 0.670214 0.592202 0.0708217
456 1 0.830942 0.576205 0.0669197
522 1 0.740115 0.567174 0.160856
475 1 0.748638 0.665337 0.0812439
549 1 0.817173 0.662399 0.163543
436 1 0.996789 0.584777 0.0707745
526 1 0.923838 0.586512 0.164653
455 1 0.916396 0.503244 0.0663887
483 1 0.0686013 0.829058 0.0940989
530 1 0.0962079 0.731833 0.150283
557 1 0.152086 0.81903 0.149526
458 1 0.0889787 0.754383 0.00225718
464 1 0.173487 0.736246 0.0679555
463 1 0.258724 0.668615 0.0898277
534 1 0.249128 0.750205 0.15695
468 1 0.333884 0.749752 0.0798589
537 1 0.343533 0.669898 0.158874
538 1 0.420869 0.74883 0.155482
469 1 0.498937 0.67823 0.00840568
466 1 0.417374 0.746237 0.00177361
493 1 0.498627 0.829851 0.00134485
471 1 0.587641 0.670153 0.0649594
472 1 0.507951 0.754844 0.0839766
476 1 0.660457 0.764442 0.0803861
565 1 0.501086 0.831272 0.161538
501 1 0.826252 0.823375 0.0158751
474 1 0.739344 0.741735 0.00903004
479 1 0.914094 0.671642 0.0962302
480 1 0.840026 0.744889 0.0901602
460 1 0.993599 0.743755 0.0827093
478 1 0.916071 0.748788 0.00638578
503 1 0.91929 0.823972 0.0946535
481 1 0.995559 0.828445 0.0087418
554 1 0.0868728 0.910793 0.166225
482 1 0.070269 0.913046 0.0197078
5 1 0.147424 0.994427 0.0117519
485 1 0.155828 0.850925 0.0178352
487 1 0.243941 0.844542 0.0845492
488 1 0.172358 0.917894 0.0960426
492 1 0.327265 0.917288 0.097467
491 1 0.425046 0.836857 0.0805818
562 1 0.410961 0.913079 0.155159
496 1 0.499895 0.924849 0.0927588
490 1 0.418123 0.920863 0.0141385
489 1 0.339586 0.838792 0.026261
495 1 0.578035 0.836796 0.0947557
500 1 0.663314 0.915905 0.0974036
494 1 0.589879 0.921652 0.0090785
497 1 0.673376 0.854187 0.0068453
499 1 0.746733 0.83478 0.087622
573 1 0.827686 0.836407 0.162524
504 1 0.823153 0.907794 0.0783437
93 1 0.821968 0.994251 0.158065
484 1 0.988211 0.916013 0.096516
502 1 0.911049 0.897606 0.00802898
1 1 0.988599 0.986355 0.0126765
507 1 0.0666789 0.51052 0.242163
578 1 0.0840121 0.577543 0.32326
531 1 0.0731972 0.655589 0.24894
605 1 0.165813 0.65128 0.320287
510 1 0.264902 0.580332 0.169633
512 1 0.169003 0.577238 0.24422
535 1 0.258968 0.660984 0.246791
582 1 0.251563 0.577967 0.320591
609 1 0.330096 0.665487 0.327245
513 1 0.331026 0.500855 0.180886
516 1 0.343642 0.576902 0.253978
520 1 0.495514 0.572912 0.244138
518 1 0.567669 0.577544 0.169157
543 1 0.58615 0.652197 0.259633
590 1 0.581996 0.565087 0.324684
519 1 0.58952 0.501975 0.247256
597 1 0.827401 0.500987 0.316803
524 1 0.667154 0.580179 0.249392
528 1 0.825005 0.576974 0.236563
594 1 0.760262 0.592682 0.316153
508 1 0.98067 0.591308 0.250259
551 1 0.905421 0.662841 0.263926
598 1 0.915015 0.581529 0.325528
532 1 0.00693789 0.741659 0.251513
602 1 0.0864682 0.742753 0.321386
555 1 0.0896802 0.805235 0.231185
625 1 0.00065163 0.822391 0.332572
536 1 0.166914 0.735231 0.246513
606 1 0.256146 0.74104 0.32799
559 1 0.23581 0.831139 0.251486
633 1 0.327427 0.826153 0.308765
539 1 0.427955 0.667436 0.23399
540 1 0.336235 0.738493 0.248135
610 1 0.425789 0.73854 0.322136
563 1 0.421756 0.829093 0.238516
542 1 0.578434 0.742462 0.167748
569 1 0.657445 0.830933 0.174997
544 1 0.507097 0.752675 0.237668
548 1 0.652004 0.758256 0.256714
567 1 0.578216 0.829856 0.260252
546 1 0.724167 0.741439 0.171816
547 1 0.727874 0.674245 0.245254
618 1 0.739428 0.745505 0.325068
552 1 0.818346 0.754173 0.252774
571 1 0.73525 0.829179 0.244301
550 1 0.907132 0.733871 0.184508
553 1 0.997867 0.808169 0.177905
575 1 0.906943 0.825577 0.248914
77 1 0.163138 0.990068 0.18132
560 1 0.158479 0.902897 0.255058
556 1 0.00327315 0.909709 0.237592
75 1 0.0772805 0.991325 0.252911
558 1 0.250083 0.908187 0.188078
561 1 0.330684 0.833376 0.17379
564 1 0.331613 0.915145 0.253411
630 1 0.24631 0.91309 0.323358
83 1 0.42427 0.986613 0.259538
641 1 0.666234 0.841069 0.332521
566 1 0.587181 0.921232 0.172877
568 1 0.510179 0.921931 0.25425
572 1 0.656254 0.916335 0.251348
642 1 0.750935 0.927345 0.328801
570 1 0.740526 0.905873 0.168198
91 1 0.740361 0.990335 0.247857
73 1 0.99496 0.999199 0.17292
574 1 0.90844 0.911425 0.179614
646 1 0.940998 0.915199 0.327831
576 1 0.837554 0.919007 0.250609
603 1 0.0951846 0.665283 0.408502
579 1 0.0862596 0.500471 0.419561
580 1 0.0111919 0.587654 0.414452
583 1 0.261495 0.502954 0.409792
584 1 0.178195 0.59002 0.417555
588 1 0.329523 0.590126 0.419489
581 1 0.169232 0.503643 0.345317
587 1 0.413794 0.503057 0.414395
586 1 0.422774 0.585924 0.334034
658 1 0.415353 0.591983 0.490291
611 1 0.411593 0.665683 0.413332
592 1 0.490384 0.583355 0.414807
589 1 0.494499 0.500602 0.335194
591 1 0.581758 0.507353 0.422918
617 1 0.661333 0.661959 0.335352
613 1 0.514356 0.655962 0.333914
615 1 0.577614 0.653876 0.41444
596 1 0.658798 0.587219 0.410831
661 1 0.508551 0.501992 0.497963
685 1 0.507514 0.66232 0.485589
595 1 0.747546 0.50887 0.407216
621 1 0.828018 0.663083 0.338676
600 1 0.82627 0.58044 0.419177
619 1 0.742519 0.659797 0.415431
601 1 0.993817 0.661526 0.340776
623 1 0.913597 0.66157 0.420155
599 1 0.927613 0.516923 0.428913
674 1 0.0679463 0.754946 0.49219
629 1 0.163686 0.83109 0.339641
607 1 0.244323 0.674171 0.409654
608 1 0.172348 0.751237 0.415421
631 1 0.244624 0.830184 0.417555
637 1 0.485524 0.821998 0.338831
682 1 0.426268 0.752992 0.497855
612 1 0.337643 0.74445 0.403404
635 1 0.415886 0.823753 0.416792
616 1 0.49471 0.743665 0.413333
614 1 0.588577 0.74433 0.337907
639 1 0.57302 0.82185 0.411751
686 1 0.594401 0.745148 0.490758
690 1 0.746995 0.766298 0.489088
689 1 0.667417 0.667034 0.49795
620 1 0.669347 0.738762 0.415432
604 1 0.988056 0.742731 0.425339
624 1 0.837437 0.765921 0.409885
622 1 0.922355 0.736644 0.341573
647 1 0.923216 0.831747 0.413865
628 1 0.00806788 0.913479 0.425602
701 1 0.158171 0.836109 0.497025
626 1 0.0680438 0.921461 0.336736
627 1 0.0808648 0.838241 0.409105
147 1 0.0800722 0.995396 0.433963
153 1 0.318479 0.988337 0.35368
632 1 0.168434 0.917602 0.416549
702 1 0.238395 0.918435 0.496967
636 1 0.323205 0.89777 0.406488
151 1 0.23778 0.999998 0.418444
705 1 0.335564 0.835915 0.496499
706 1 0.407489 0.930708 0.491783
634 1 0.40922 0.906701 0.344767
709 1 0.493413 0.838631 0.4947
640 1 0.487193 0.923154 0.418286
157 1 0.498532 0.998198 0.341212
159 1 0.581294 0.994431 0.408369
710 1 0.573721 0.921928 0.49543
638 1 0.583898 0.913791 0.338917
644 1 0.662963 0.916234 0.412703
229 1 0.507234 0.993227 0.499927
233 1 0.65989 0.98991 0.496285
163 1 0.743153 0.992638 0.413354
643 1 0.751369 0.842065 0.411147
714 1 0.752527 0.909734 0.48697
237 1 0.829978 0.997886 0.495603
648 1 0.851632 0.925473 0.412929
645 1 0.834905 0.854596 0.333795
717 1 0.838566 0.852225 0.488616
722 1 0.0791044 0.586753 0.664276
656 1 0.159036 0.588733 0.587665
653 1 0.162904 0.505973 0.504385
650 1 0.0925704 0.586982 0.502877
651 1 0.0947274 0.502803 0.581031
679 1 0.246999 0.664697 0.586634
654 1 0.244891 0.584696 0.502804
655 1 0.259571 0.500919 0.586487
660 1 0.338716 0.57922 0.588668
730 1 0.440075 0.583979 0.659778
664 1 0.49666 0.601311 0.57148
659 1 0.427553 0.504838 0.569907
657 1 0.337735 0.511096 0.5037
733 1 0.510787 0.500236 0.656802
663 1 0.595446 0.517224 0.587938
662 1 0.582808 0.594199 0.503486
668 1 0.674323 0.580054 0.576718
738 1 0.757432 0.590831 0.657775
672 1 0.830328 0.589168 0.582266
666 1 0.749591 0.583309 0.502608
652 1 0.984066 0.575031 0.594147
742 1 0.902845 0.588474 0.66475
673 1 0.996395 0.663177 0.514219
669 1 0.833778 0.509942 0.501013
670 1 0.925267 0.578607 0.511685
675 1 0.0829517 0.68619 0.586297
680 1 0.16464 0.752928 0.584844
676 1 0.0042157 0.75825 0.593894
745 1 0.00678667 0.678445 0.663038
677 1 0.165104 0.670121 0.503755
703 1 0.249309 0.830535 0.598662
684 1 0.323319 0.743469 0.586257
681 1 0.330592 0.669465 0.502213
678 1 0.247985 0.761523 0.508485
683 1 0.420957 0.670447 0.575084
754 1 0.421847 0.751836 0.655645
777 1 0.343136 0.822177 0.665335
688 1 0.51415 0.756773 0.586315
687 1 0.57829 0.669972 0.584901
692 1 0.655166 0.761389 0.592249
691 1 0.741733 0.679585 0.587842
762 1 0.741841 0.759665 0.665537
696 1 0.824285 0.77003 0.590347
765 1 0.823284 0.687127 0.663985
693 1 0.824468 0.689431 0.503146
695 1 0.903749 0.669556 0.579214
694 1 0.909802 0.760717 0.503847
766 1 0.92225 0.762349 0.656588
697 1 0.988671 0.826466 0.503026
699 1 0.0930086 0.843476 0.585695
700 1 0.00485884 0.911933 0.586227
698 1 0.0915075 0.921399 0.51089
217 1 0.0111185 0.998436 0.505253
219 1 0.0925521 0.997962 0.589591
704 1 0.180803 0.915059 0.591613
225 1 0.325812 0.993643 0.501053
223 1 0.246165 0.998407 0.576421
707 1 0.416825 0.836285 0.576225
708 1 0.339819 0.911287 0.570918
712 1 0.496573 0.914964 0.587364
781 1 0.497263 0.839499 0.661694
227 1 0.421998 0.999585 0.581192
305 1 0.659769 0.994463 0.663313
711 1 0.584856 0.842532 0.584038
716 1 0.649034 0.922234 0.591135
713 1 0.659339 0.844564 0.504712
715 1 0.733209 0.839673 0.58177
786 1 0.758104 0.920883 0.661032
235 1 0.744107 0.986973 0.586453
719 1 0.91519 0.840913 0.577436
720 1 0.837417 0.919031 0.585824
790 1 0.926304 0.915791 0.6626
309 1 0.85111 0.99474 0.663655
718 1 0.931106 0.92801 0.501873
724 1 0.0140801 0.587632 0.751018
794 1 0.0823652 0.593305 0.822993
797 1 0.164037 0.502131 0.802794
749 1 0.17518 0.666515 0.669127
726 1 0.262657 0.586869 0.679907
728 1 0.176926 0.597199 0.752187
725 1 0.176458 0.502988 0.668865
732 1 0.341403 0.593395 0.760288
731 1 0.414366 0.505664 0.749751
734 1 0.59074 0.583481 0.686487
736 1 0.502524 0.591025 0.76611
809 1 0.657266 0.503331 0.819385
735 1 0.579974 0.505764 0.750432
737 1 0.674384 0.501912 0.669181
761 1 0.668 0.665374 0.677599
740 1 0.67722 0.580648 0.757264
744 1 0.82803 0.582874 0.7428
810 1 0.755876 0.597512 0.825179
814 1 0.92235 0.598627 0.811833
813 1 0.847464 0.507971 0.809725
793 1 0.994434 0.503349 0.821726
746 1 0.0921485 0.763233 0.669781
747 1 0.0982574 0.679881 0.752892
752 1 0.166575 0.763488 0.756695
748 1 0.00456864 0.74639 0.750139
751 1 0.259203 0.668558 0.759884
750 1 0.246063 0.74978 0.669552
756 1 0.328412 0.747789 0.748882
753 1 0.345737 0.676065 0.667636
755 1 0.421092 0.66913 0.746169
757 1 0.495746 0.669675 0.673615
779 1 0.399708 0.829582 0.759766
826 1 0.4094 0.744639 0.829152
760 1 0.490734 0.761808 0.756413
759 1 0.585807 0.675997 0.748014
758 1 0.579754 0.764829 0.683199
764 1 0.656382 0.760764 0.751359
833 1 0.657865 0.676545 0.831219
857 1 0.673813 0.830407 0.833026
763 1 0.749839 0.67981 0.743567
834 1 0.746397 0.747142 0.823216
767 1 0.916874 0.667928 0.735273
768 1 0.846467 0.758244 0.736987
837 1 0.843955 0.668714 0.817655
817 1 0.999725 0.683509 0.830595
838 1 0.913777 0.75262 0.830325
769 1 0.00207043 0.842469 0.678274
770 1 0.0968997 0.910508 0.67134
771 1 0.0759488 0.839423 0.764477
842 1 0.0865554 0.914302 0.829484
291 1 0.0777095 0.992405 0.746422
773 1 0.170245 0.834821 0.675484
293 1 0.171883 0.987285 0.677043
774 1 0.266688 0.917819 0.669721
775 1 0.269679 0.844454 0.741439
776 1 0.171049 0.908675 0.752011
780 1 0.332572 0.928392 0.756366
778 1 0.40996 0.924677 0.67275
784 1 0.486765 0.90409 0.753319
299 1 0.41366 0.995307 0.756097
785 1 0.653878 0.835563 0.667177
782 1 0.578836 0.91507 0.671683
783 1 0.572646 0.842143 0.759589
788 1 0.656904 0.916371 0.749014
854 1 0.574569 0.920906 0.829079
301 1 0.509179 0.993945 0.683676
377 1 0.667439 0.990962 0.820608
787 1 0.756957 0.834686 0.736227
858 1 0.74962 0.911137 0.824892
307 1 0.759132 0.992051 0.75257
789 1 0.847262 0.844919 0.670268
772 1 0.994497 0.922894 0.752484
792 1 0.846987 0.919082 0.747034
791 1 0.918939 0.837219 0.758343
862 1 0.919244 0.912247 0.830298
311 1 0.925253 0.999138 0.748317
434 1 0.0931265 0.56949 0.988462
433 1 0.00788853 0.500128 0.992197
800 1 0.150187 0.552586 0.891948
457 1 0.00896424 0.662854 0.997249
796 1 2.05427e-05 0.59073 0.908283
819 1 0.0871839 0.659744 0.912598
461 1 0.165581 0.65919 0.99425
821 1 0.176753 0.663481 0.846241
438 1 0.252057 0.586167 0.999362
798 1 0.26341 0.573379 0.835383
823 1 0.263058 0.662797 0.91391
803 1 0.422824 0.506695 0.903633
802 1 0.422394 0.601614 0.834289
465 1 0.33838 0.663953 0.993248
804 1 0.337212 0.569416 0.919248
808 1 0.496191 0.589256 0.93108
806 1 0.574195 0.572044 0.848682
473 1 0.663165 0.664287 0.978054
446 1 0.579304 0.576628 0.995315
811 1 0.757144 0.503575 0.895552
812 1 0.684381 0.584377 0.898258
816 1 0.832272 0.58577 0.910136
477 1 0.825219 0.663611 0.995247
450 1 0.748324 0.568959 0.992465
839 1 0.923926 0.66614 0.902978
454 1 0.918927 0.592869 0.991688
818 1 0.0934778 0.767051 0.846819
820 1 0.00902906 0.746939 0.918882
822 1 0.252191 0.753392 0.846268
849 1 0.331711 0.831273 0.839842
825 1 0.32921 0.671773 0.839608
824 1 0.17613 0.757997 0.92947
847 1 0.262513 0.831954 0.91786
462 1 0.256579 0.733685 0.993131
827 1 0.415893 0.672495 0.917047
828 1 0.340918 0.750057 0.912806
832 1 0.496703 0.753956 0.91276
829 1 0.50104 0.677936 0.845402
831 1 0.570221 0.689332 0.918423
830 1 0.571729 0.759865 0.834914
836 1 0.653578 0.753577 0.907469
470 1 0.598977 0.771344 0.996124
861 1 0.821328 0.832235 0.836484
835 1 0.751462 0.682983 0.914783
841 1 0.988826 0.832291 0.841845
863 1 0.90885 0.831615 0.91834
840 1 0.847313 0.738922 0.914471
365 1 0.1544 0.992282 0.844081
363 1 0.0806513 0.973704 0.932377
361 1 0.00348772 0.995457 0.835806
843 1 0.0874124 0.838406 0.937267
486 1 0.244877 0.917867 0.997422
845 1 0.177115 0.844073 0.847056
846 1 0.253098 0.919331 0.851001
848 1 0.172099 0.919848 0.932425
852 1 0.333024 0.923742 0.92169
369 1 0.333376 0.99964 0.847792
850 1 0.403832 0.925734 0.842074
851 1 0.410285 0.839445 0.937421
853 1 0.482344 0.835232 0.839261
856 1 0.489838 0.912683 0.923396
375 1 0.56935 0.986526 0.918162
855 1 0.585744 0.843949 0.904208
379 1 0.752202 0.994992 0.914263
498 1 0.75326 0.921978 0.987179
864 1 0.83149 0.912584 0.919078
860 1 0.6668 0.926281 0.907184
859 1 0.747127 0.834107 0.927809
383 1 0.90888 0.979202 0.919017
21 1 0.841713 0.999915 0.996903
844 1 0.991869 0.904484 0.918711
