ITEM: TIMESTEP
9750
ITEM: NUMBER OF ATOMS
864
ITEM: BOX BOUNDS pp pp pp
0.0000000000000000e+00 3.1559999999999999e+01
0.0000000000000000e+00 3.1559999999999999e+01
0.0000000000000000e+00 3.1559999999999999e+01
ITEM: ATOMS id type xs ys zs
8 1 0.179835 0.0833534 0.0858957
4 1 0.0155401 0.0890346 0.0838669
46 1 0.933169 0.247248 0.00590107
10 1 0.403963 0.111779 0.00578454
12 1 0.322079 0.085554 0.0976454
16 1 0.502014 0.0847904 0.0848159
157 1 0.503894 0.0121231 0.338288
69 1 0.834264 0.325483 0.0155533
20 1 0.667255 0.0811701 0.0835299
86 1 0.600448 0.0997738 0.175776
24 1 0.836491 0.0903933 0.0881236
216 1 0.843345 0.416939 0.411798
589 1 0.498421 0.487617 0.346233
587 1 0.414928 0.493 0.420457
23 1 0.937104 0.0163461 0.0851906
77 1 0.180742 0.0111975 0.164617
27 1 0.09545 0.184436 0.0808353
32 1 0.171754 0.259735 0.0912566
98 1 0.0851669 0.259267 0.171473
31 1 0.244712 0.172833 0.0845721
55 1 0.251008 0.335043 0.0838658
129 1 0.328728 0.344406 0.168164
93 1 0.836115 0.0114769 0.180869
36 1 0.330126 0.256945 0.0904529
35 1 0.397681 0.165255 0.0971175
269 1 0.15741 0.347787 0.495898
40 1 0.500902 0.246264 0.0925802
39 1 0.595414 0.170733 0.092934
110 1 0.582177 0.250601 0.167137
515 1 0.412439 0.484947 0.260931
95 1 0.915609 0.0119973 0.25698
253 1 0.496747 0.175669 0.483827
44 1 0.665144 0.244523 0.0827583
43 1 0.747729 0.159788 0.0905284
37 1 0.496647 0.17394 0.0144794
65 1 0.687239 0.325952 0.00556705
13 1 0.497386 0.000532413 0.00776805
209 1 0.668613 0.341546 0.331908
47 1 0.921032 0.16674 0.0882584
28 1 0.99418 0.263977 0.0887037
48 1 0.83945 0.241118 0.0918031
51 1 0.0880198 0.348025 0.0908031
196 1 0.000162608 0.422761 0.414355
56 1 0.170856 0.420958 0.0828125
52 1 0.993008 0.398618 0.0814033
125 1 0.166777 0.335153 0.17901
121 1 0.994004 0.330185 0.177211
60 1 0.317388 0.421452 0.0855002
14 1 0.587026 0.0858026 0.00776744
42 1 0.758602 0.247758 0.0111075
59 1 0.419885 0.34206 0.100216
130 1 0.401299 0.427663 0.168771
66 1 0.753219 0.42777 0.00226146
519 1 0.586032 0.48617 0.241644
64 1 0.490942 0.415724 0.0857861
63 1 0.598313 0.335272 0.076359
61 1 0.494645 0.346973 0.00430157
67 1 0.75168 0.321176 0.0906018
68 1 0.675492 0.419663 0.0724374
273 1 0.320101 0.333496 0.497743
137 1 0.668258 0.337478 0.153397
138 1 0.750269 0.413757 0.149779
246 1 0.233742 0.263317 0.495664
71 1 0.914149 0.329401 0.0950489
72 1 0.829424 0.425029 0.0749086
142 1 0.930787 0.414784 0.172577
74 1 0.101751 0.075467 0.171017
2 1 0.0927536 0.0861165 0.0106303
146 1 0.0853071 0.0808447 0.352622
80 1 0.161863 0.0777108 0.272113
99 1 0.0731906 0.161482 0.240694
78 1 0.245016 0.0928253 0.180519
84 1 0.339381 0.0809877 0.248688
87 1 0.582376 0.0181996 0.261038
33 1 0.323336 0.184172 0.0168537
9 1 0.347411 0.0106661 0.00182157
82 1 0.415952 0.0738714 0.174558
154 1 0.409523 0.0738588 0.336597
249 1 0.362772 0.155346 0.496113
113 1 0.677022 0.172381 0.170827
241 1 0.991888 0.187003 0.492162
88 1 0.509414 0.0889551 0.240724
92 1 0.66895 0.0893469 0.257103
262 1 0.902868 0.262748 0.494465
158 1 0.597495 0.0789588 0.350318
90 1 0.752457 0.0917857 0.181017
96 1 0.834482 0.0949456 0.272195
525 1 0.84091 0.490276 0.17827
437 1 0.166548 0.498847 0.000442314
117 1 0.837392 0.152026 0.183472
11 1 0.413999 0.0119762 0.0910935
97 1 0.00808636 0.174804 0.157542
94 1 0.935148 0.0899476 0.164614
76 1 0.00865836 0.0840171 0.264293
25 1 0.018596 0.173993 0.000638508
145 1 0.998817 0.00822779 0.346868
101 1 0.161724 0.172609 0.165072
104 1 0.159678 0.250507 0.250159
103 1 0.226047 0.167192 0.247643
102 1 0.244711 0.264067 0.182762
127 1 0.252851 0.344437 0.259077
105 1 0.317164 0.165396 0.178118
107 1 0.432012 0.172804 0.251172
108 1 0.325113 0.253888 0.257391
106 1 0.411909 0.261175 0.171952
109 1 0.498452 0.164317 0.160105
112 1 0.513034 0.244302 0.243352
111 1 0.584436 0.166123 0.250717
135 1 0.591255 0.345436 0.235134
114 1 0.754521 0.244928 0.173333
115 1 0.74902 0.175082 0.261189
116 1 0.667381 0.263389 0.252283
120 1 0.847159 0.259916 0.249238
139 1 0.749916 0.327287 0.242618
118 1 0.916142 0.235434 0.172012
141 1 0.838777 0.341053 0.176032
119 1 0.924761 0.151318 0.252804
100 1 0.998459 0.247529 0.25029
591 1 0.596276 0.474747 0.407008
123 1 0.0820047 0.340068 0.253
122 1 0.0949466 0.424981 0.166202
128 1 0.171748 0.420498 0.264071
124 1 0.00495554 0.430564 0.248668
165 1 0.816866 0.00611235 0.340785
126 1 0.235751 0.417196 0.168489
132 1 0.33113 0.408842 0.255808
131 1 0.424639 0.33473 0.248994
91 1 0.749529 0.00447374 0.251146
270 1 0.241987 0.431022 0.495045
133 1 0.507763 0.34612 0.16665
134 1 0.591557 0.413431 0.157098
136 1 0.489337 0.419557 0.247828
140 1 0.676766 0.413383 0.255176
22 1 0.923983 0.0953014 0.00423708
595 1 0.754702 0.491406 0.421527
144 1 0.819451 0.417089 0.254317
143 1 0.908963 0.356097 0.261279
214 1 0.912768 0.431311 0.331511
213 1 0.832143 0.340672 0.339864
152 1 0.162598 0.084498 0.434786
171 1 0.0897656 0.167525 0.433242
148 1 0.983231 0.0834522 0.41844
18 1 0.759653 0.0777448 0.00728082
211 1 0.742358 0.330257 0.442606
150 1 0.254434 0.0883041 0.33218
156 1 0.324273 0.0834213 0.416383
58 1 0.415853 0.421825 0.00816633
153 1 0.324858 0.00518002 0.322595
155 1 0.412841 0.0181879 0.431234
62 1 0.583162 0.426901 0.0122107
83 1 0.435297 0.00572858 0.255296
160 1 0.496348 0.0852557 0.41521
164 1 0.674813 0.0950267 0.427054
189 1 0.829716 0.181145 0.339564
162 1 0.747089 0.092269 0.334322
168 1 0.822025 0.0905084 0.422864
15 1 0.58291 0.000409269 0.0801767
166 1 0.903845 0.0972205 0.351764
523 1 0.754621 0.493641 0.235033
169 1 0.00177519 0.157252 0.334679
191 1 0.908969 0.170848 0.432784
173 1 0.159355 0.162838 0.345105
170 1 0.0762645 0.238225 0.327766
210 1 0.742041 0.407606 0.348545
176 1 0.151274 0.255884 0.418969
195 1 0.0781024 0.350363 0.405615
250 1 0.420323 0.249847 0.487429
177 1 0.349518 0.169396 0.32923
201 1 0.314893 0.337769 0.338685
174 1 0.252185 0.237453 0.337856
175 1 0.23743 0.160818 0.434085
179 1 0.418153 0.17477 0.403916
180 1 0.318341 0.240966 0.418227
178 1 0.412062 0.253672 0.33007
184 1 0.492271 0.260834 0.409155
207 1 0.591555 0.329228 0.413572
185 1 0.663926 0.176927 0.3197
181 1 0.504367 0.170832 0.337375
182 1 0.589884 0.258451 0.327524
183 1 0.587304 0.168694 0.423771
188 1 0.66385 0.249247 0.398826
3 1 0.0943535 0.000465252 0.0888928
186 1 0.758992 0.257817 0.326978
187 1 0.746988 0.189148 0.419939
192 1 0.835537 0.265723 0.414217
193 1 0.00891892 0.34952 0.321577
190 1 0.916223 0.245911 0.338103
215 1 0.930325 0.344503 0.38584
172 1 0.994372 0.255535 0.411965
593 1 0.68868 0.499627 0.327542
194 1 0.0810096 0.429782 0.333308
197 1 0.172977 0.332434 0.336092
200 1 0.161334 0.417598 0.4024
38 1 0.570172 0.263955 0.0103441
199 1 0.243718 0.349377 0.415858
198 1 0.250882 0.437272 0.327186
203 1 0.394862 0.32524 0.408747
202 1 0.425075 0.417087 0.349975
204 1 0.335042 0.413842 0.417462
212 1 0.671734 0.414069 0.424915
206 1 0.578168 0.399704 0.326226
208 1 0.501006 0.394165 0.423224
205 1 0.493351 0.327724 0.327317
30 1 0.247816 0.257625 0.00124876
286 1 0.914787 0.410902 0.499052
34 1 0.416001 0.249303 0.0163756
163 1 0.746984 0.00393742 0.439887
50 1 0.0840175 0.414207 0.00345347
274 1 0.417719 0.402283 0.4901
265 1 0.00298046 0.315993 0.489306
151 1 0.251053 7.64835e-05 0.425216
290 1 0.090784 0.0694291 0.663122
224 1 0.148029 0.068053 0.570703
243 1 0.067637 0.160211 0.588016
228 1 0.343708 0.0751413 0.577252
739 1 0.733026 0.494967 0.760002
41 1 0.676413 0.166836 0.996225
232 1 0.511227 0.0997843 0.59154
217 1 0.975566 0.00986442 0.516369
227 1 0.424583 0.00775264 0.593721
301 1 0.494172 0.0111277 0.677476
311 1 0.910028 0.00297455 0.752634
369 1 0.326095 0.00571765 0.848166
655 1 0.24059 0.487203 0.583529
305 1 0.664711 0.0132024 0.670899
257 1 0.675698 0.174012 0.511815
242 1 0.0860757 0.259468 0.503698
26 1 0.0890609 0.254442 0.987952
236 1 0.684044 0.0888516 0.593414
45 1 0.8395 0.176621 0.996119
240 1 0.831406 0.0818299 0.60239
220 1 0.98734 0.089209 0.604303
281 1 0.653945 0.344141 0.507365
248 1 0.154488 0.258454 0.585525
267 1 0.0625074 0.338842 0.585873
337 1 0.980709 0.340008 0.669821
247 1 0.257503 0.161266 0.551478
271 1 0.24419 0.345741 0.583232
252 1 0.347307 0.254821 0.565863
251 1 0.42706 0.1717 0.586638
275 1 0.407217 0.336023 0.58574
651 1 0.0714814 0.499295 0.59436
54 1 0.253598 0.43602 0.999819
230 1 0.601942 0.0886356 0.50289
256 1 0.498419 0.248031 0.601447
255 1 0.593232 0.171009 0.58867
260 1 0.658259 0.263212 0.593082
723 1 0.0680229 0.498624 0.746976
427 1 0.748645 0.338961 0.910176
259 1 0.766217 0.172426 0.603348
283 1 0.747355 0.348197 0.605058
333 1 0.829562 0.176164 0.688425
264 1 0.819623 0.262124 0.594986
258 1 0.740866 0.258252 0.525322
244 1 0.995215 0.250236 0.583001
263 1 0.906491 0.164051 0.595893
287 1 0.910971 0.335835 0.591595
334 1 0.911505 0.253089 0.660097
375 1 0.578043 0.00180893 0.940293
285 1 0.836278 0.332809 0.511168
338 1 0.0748132 0.418814 0.680139
432 1 0.813093 0.444578 0.91475
307 1 0.747376 0.0122553 0.765026
667 1 0.750766 0.486058 0.589275
272 1 0.147202 0.401738 0.583324
218 1 0.0632021 0.0813573 0.510962
367 1 0.248177 0.00484407 0.914921
419 1 0.426703 0.340513 0.912603
276 1 0.327306 0.414631 0.580162
345 1 0.343474 0.355456 0.68237
238 1 0.903556 0.0911132 0.513508
280 1 0.499571 0.417518 0.580347
279 1 0.5808 0.329045 0.584329
231 1 0.587156 0.00800898 0.586317
422 1 0.582134 0.422951 0.846031
284 1 0.664997 0.428338 0.572578
288 1 0.838619 0.420771 0.585398
423 1 0.590485 0.349669 0.932541
234 1 0.762187 0.0909562 0.520548
282 1 0.747546 0.415708 0.509442
268 1 0.981789 0.417879 0.576649
277 1 0.500186 0.323869 0.51423
278 1 0.571045 0.416307 0.507494
371 1 0.412597 0.0166529 0.913243
296 1 0.166216 0.0872607 0.742175
317 1 0.174043 0.182759 0.662302
309 1 0.831201 0.00483633 0.683848
737 1 0.668784 0.498908 0.669912
294 1 0.246588 0.0757427 0.659491
300 1 0.340412 0.0698227 0.73484
299 1 0.427961 0.0124082 0.771476
298 1 0.416568 0.103952 0.659113
304 1 0.506714 0.078157 0.758941
222 1 0.245674 0.0637363 0.505591
370 1 0.404108 0.0934045 0.836797
5 1 0.174175 0.00765335 0.99938
302 1 0.577247 0.0901958 0.675165
329 1 0.658934 0.163041 0.67372
306 1 0.76547 0.100546 0.680653
308 1 0.674088 0.0921209 0.763071
312 1 0.833147 0.083313 0.772503
383 1 0.931588 0.00112752 0.918581
429 1 0.836141 0.341047 0.829456
424 1 0.493337 0.442502 0.929641
310 1 0.913758 0.0797598 0.678588
292 1 0.00483341 0.0857075 0.7527
53 1 0.17189 0.329194 0.9877
314 1 0.0811993 0.249897 0.674548
315 1 0.0711085 0.171428 0.752869
320 1 0.167833 0.24728 0.74427
339 1 0.0877846 0.345456 0.766674
341 1 0.153136 0.334176 0.663261
319 1 0.25125 0.164935 0.746972
318 1 0.26069 0.262774 0.668358
343 1 0.24778 0.352725 0.754
321 1 0.31724 0.179243 0.654958
393 1 0.318925 0.166536 0.838907
325 1 0.496606 0.175621 0.683741
322 1 0.406339 0.266857 0.676873
323 1 0.406215 0.194786 0.758321
324 1 0.323156 0.263911 0.761826
347 1 0.416145 0.350246 0.759072
326 1 0.588032 0.247821 0.673438
328 1 0.49645 0.262688 0.764254
327 1 0.577696 0.169669 0.755679
332 1 0.671867 0.243887 0.768899
331 1 0.754286 0.164321 0.769505
330 1 0.744016 0.252649 0.681654
336 1 0.823203 0.251802 0.764635
405 1 0.856088 0.175387 0.838877
425 1 0.653988 0.329059 0.854136
313 1 0.994888 0.175839 0.673308
316 1 0.997669 0.271808 0.746793
335 1 0.914969 0.184445 0.74876
359 1 0.913951 0.336511 0.753364
406 1 0.920388 0.262721 0.832928
340 1 0.976965 0.420656 0.769548
344 1 0.164244 0.436337 0.766368
410 1 0.0853434 0.433885 0.834937
657 1 0.327061 0.490144 0.502419
226 1 0.438477 0.0846123 0.508942
342 1 0.235507 0.423894 0.676327
348 1 0.335549 0.431854 0.758353
417 1 0.3278 0.35651 0.845605
346 1 0.429809 0.425029 0.664031
418 1 0.424794 0.430705 0.839443
349 1 0.501149 0.345007 0.67561
350 1 0.59687 0.413379 0.661448
353 1 0.665545 0.329978 0.689805
351 1 0.583713 0.329384 0.758261
352 1 0.502045 0.423624 0.753598
354 1 0.757239 0.399968 0.692181
355 1 0.73783 0.327512 0.77626
356 1 0.656076 0.420137 0.761347
266 1 0.0726663 0.409634 0.503124
357 1 0.834791 0.330588 0.682458
358 1 0.912448 0.433639 0.679055
360 1 0.848972 0.436759 0.764646
362 1 0.0860357 0.09308 0.829498
368 1 0.158058 0.0874861 0.916715
659 1 0.420749 0.499366 0.571248
29 1 0.170492 0.164271 0.996474
49 1 0.015411 0.338417 0.995409
366 1 0.235628 0.0889192 0.832432
372 1 0.328416 0.101034 0.921963
373 1 0.500174 0.0222601 0.847959
233 1 0.667013 0.00436979 0.511993
254 1 0.580399 0.243479 0.504136
376 1 0.492626 0.0934664 0.932426
395 1 0.416678 0.181392 0.928574
428 1 0.669489 0.432772 0.936488
430 1 0.904235 0.423919 0.859447
6 1 0.245563 0.0843401 0.986856
397 1 0.494101 0.170754 0.849179
377 1 0.66791 0.00416834 0.846651
374 1 0.575876 0.0939202 0.846755
399 1 0.580749 0.171229 0.9221
380 1 0.681786 0.0855338 0.925283
381 1 0.842527 0.000920867 0.848639
378 1 0.760136 0.0847236 0.856259
384 1 0.853372 0.083548 0.931908
237 1 0.839925 0.00185992 0.532972
382 1 0.924017 0.0800128 0.834969
364 1 0.0197832 0.0785 0.920477
385 1 0.992553 0.163489 0.839786
57 1 0.33708 0.344613 0.993841
387 1 0.0777611 0.170756 0.911532
245 1 0.151716 0.159724 0.519006
386 1 0.0747219 0.255772 0.831587
392 1 0.163082 0.249231 0.918654
389 1 0.158942 0.166841 0.827728
415 1 0.259047 0.344401 0.921324
390 1 0.247094 0.254258 0.83411
391 1 0.248382 0.175218 0.922927
396 1 0.327792 0.254853 0.93551
426 1 0.724103 0.426148 0.84972
394 1 0.392429 0.262503 0.841601
421 1 0.51506 0.341363 0.848485
400 1 0.50203 0.257364 0.926176
401 1 0.678618 0.16203 0.848791
398 1 0.575869 0.236043 0.843244
402 1 0.757291 0.247111 0.847235
404 1 0.66237 0.250159 0.927617
403 1 0.763213 0.178192 0.922522
261 1 0.821564 0.18866 0.502497
407 1 0.925785 0.172094 0.918414
408 1 0.837879 0.260943 0.931634
431 1 0.903725 0.334667 0.924298
388 1 0.99885 0.25748 0.916138
412 1 0.00180688 0.419813 0.923114
413 1 0.175959 0.328229 0.833649
416 1 0.170968 0.421354 0.915972
411 1 0.0884291 0.351066 0.907275
409 1 0.999405 0.337259 0.845043
414 1 0.242592 0.428063 0.835421
420 1 0.327327 0.430134 0.923124
795 1 0.0768066 0.495388 0.910003
295 1 0.262032 0.00761445 0.760932
70 1 0.910732 0.411168 0.990028
459 1 0.0870763 0.676659 0.0792828
439 1 0.240625 0.503756 0.094875
713 1 0.648986 0.832252 0.495395
469 1 0.504459 0.659895 0.00527062
440 1 0.173994 0.592061 0.0660679
698 1 0.0713254 0.903018 0.493603
521 1 0.677457 0.503548 0.16804
642 1 0.752567 0.915462 0.329003
450 1 0.73767 0.607904 0.0258333
658 1 0.419422 0.573868 0.490332
444 1 0.326474 0.591359 0.0760196
514 1 0.41068 0.575191 0.174366
694 1 0.911945 0.752859 0.491844
448 1 0.508813 0.593473 0.0905176
452 1 0.659306 0.599606 0.0905781
518 1 0.579886 0.578071 0.179174
451 1 0.763399 0.50338 0.0889558
456 1 0.847617 0.583719 0.0924357
481 1 0.00549331 0.834893 0.00149387
522 1 0.762323 0.595045 0.158247
436 1 0.0019337 0.589239 0.0764198
577 1 0.994656 0.500046 0.337836
455 1 0.929086 0.507284 0.0731214
585 1 0.32676 0.506508 0.341589
597 1 0.820112 0.506459 0.327959
507 1 0.0857905 0.511958 0.24654
693 1 0.848898 0.66209 0.480428
529 1 0.00876096 0.669486 0.184564
79 1 0.24824 0.999399 0.248053
464 1 0.163685 0.766294 0.0788128
463 1 0.25406 0.678081 0.0837439
534 1 0.232169 0.742646 0.172682
75 1 0.0810298 0.99687 0.259514
467 1 0.410451 0.677074 0.0748975
468 1 0.347055 0.75938 0.0990677
599 1 0.902042 0.510404 0.419585
561 1 0.326106 0.840085 0.164728
472 1 0.497546 0.751142 0.078563
471 1 0.585754 0.668307 0.103425
476 1 0.671612 0.762334 0.100845
541 1 0.480285 0.672297 0.170029
545 1 0.661885 0.671134 0.181072
475 1 0.760286 0.68583 0.0979663
569 1 0.67155 0.850158 0.176973
546 1 0.738152 0.763552 0.174241
480 1 0.841755 0.755658 0.0808535
501 1 0.831012 0.83767 0.00195296
460 1 0.00479669 0.751437 0.073863
479 1 0.931915 0.674826 0.0810792
550 1 0.923965 0.740782 0.164806
147 1 0.0823679 0.989435 0.424915
483 1 0.0910585 0.839641 0.0782095
482 1 0.0907212 0.912414 0.000119314
443 1 0.392472 0.501217 0.0824738
487 1 0.246109 0.83899 0.0816895
488 1 0.161147 0.921686 0.0715517
492 1 0.324518 0.914263 0.077325
435 1 0.0951611 0.509546 0.0800684
648 1 0.822748 0.929587 0.427164
686 1 0.576088 0.744521 0.499173
491 1 0.407597 0.841631 0.084196
496 1 0.503635 0.915236 0.0847845
509 1 0.151113 0.517253 0.161433
446 1 0.575896 0.590471 0.00991101
495 1 0.582237 0.825835 0.0998688
566 1 0.579889 0.92336 0.171535
500 1 0.670929 0.913715 0.0892874
19 1 0.747212 0.992073 0.0941847
717 1 0.834169 0.842757 0.49941
499 1 0.759826 0.827181 0.0907418
504 1 0.837941 0.910455 0.08887
573 1 0.839432 0.834864 0.175831
73 1 0.0126503 0.99387 0.166813
498 1 0.752572 0.913076 0.00623487
477 1 0.829621 0.663027 0.0162959
484 1 0.00520538 0.917451 0.0922671
503 1 0.922569 0.835613 0.0858105
149 1 0.155257 0.997594 0.340304
511 1 0.235729 0.511292 0.242476
506 1 0.0771363 0.590723 0.154845
508 1 0.00355379 0.577086 0.258407
512 1 0.15806 0.588057 0.247818
510 1 0.248296 0.600393 0.158774
535 1 0.259465 0.668391 0.246912
89 1 0.660291 0.999037 0.174255
81 1 0.327825 0.996031 0.168992
516 1 0.335987 0.576916 0.250247
539 1 0.413187 0.65765 0.257856
537 1 0.347499 0.670954 0.16455
517 1 0.497524 0.504184 0.152643
520 1 0.481852 0.564074 0.257679
524 1 0.669571 0.580772 0.253562
613 1 0.49826 0.66387 0.332995
526 1 0.928878 0.590797 0.173292
528 1 0.833632 0.596085 0.246642
527 1 0.919602 0.51294 0.259076
579 1 0.0798964 0.508559 0.407669
85 1 0.504255 0.997687 0.16951
530 1 0.0836691 0.745077 0.155048
531 1 0.0917006 0.675343 0.256543
533 1 0.163244 0.660927 0.176178
536 1 0.164618 0.753069 0.257813
559 1 0.248945 0.829491 0.254069
540 1 0.341503 0.749471 0.233507
538 1 0.426698 0.778962 0.175353
563 1 0.409808 0.848494 0.255612
544 1 0.49406 0.761317 0.263672
543 1 0.56832 0.659503 0.249229
542 1 0.563643 0.750753 0.179039
548 1 0.651217 0.749678 0.247919
614 1 0.592029 0.752588 0.346594
617 1 0.666495 0.668834 0.344667
637 1 0.476338 0.836523 0.350765
549 1 0.842354 0.663456 0.168944
547 1 0.734188 0.672637 0.259319
552 1 0.830126 0.747867 0.238783
571 1 0.74064 0.836431 0.249641
532 1 0.991286 0.754341 0.267216
551 1 0.917709 0.6667 0.253761
575 1 0.923801 0.829543 0.233996
554 1 0.0819449 0.915978 0.168819
553 1 0.0134138 0.834047 0.186754
555 1 0.0868535 0.844872 0.260229
626 1 0.0817416 0.918496 0.345196
560 1 0.169843 0.922362 0.255093
558 1 0.242807 0.921976 0.163148
557 1 0.166142 0.82496 0.1805
17 1 0.67037 0.997514 0.00105157
644 1 0.664064 0.916398 0.431837
630 1 0.254551 0.925373 0.332869
562 1 0.417394 0.92209 0.182217
564 1 0.324619 0.922808 0.250597
565 1 0.504614 0.849616 0.181984
568 1 0.51062 0.91764 0.267372
567 1 0.592756 0.836489 0.247028
638 1 0.598129 0.912127 0.343028
572 1 0.658759 0.929326 0.252851
570 1 0.771602 0.925966 0.174367
576 1 0.844554 0.929525 0.251304
574 1 0.918853 0.931661 0.170218
556 1 0.991881 0.933473 0.263687
646 1 0.910865 0.93643 0.335183
221 1 0.171464 0.996458 0.495529
645 1 0.840608 0.841435 0.321852
578 1 0.0853607 0.587017 0.331592
603 1 0.102346 0.658661 0.410047
605 1 0.172181 0.660633 0.329089
582 1 0.255888 0.591255 0.330495
584 1 0.18116 0.577889 0.417771
607 1 0.253365 0.652887 0.419407
473 1 0.664615 0.686893 0.0256277
628 1 0.988449 0.937824 0.431114
588 1 0.329181 0.570857 0.421167
586 1 0.407571 0.583515 0.328531
609 1 0.329823 0.670768 0.343349
449 1 0.667843 0.51838 0.022108
592 1 0.519647 0.578868 0.429359
590 1 0.570899 0.561241 0.321126
615 1 0.59533 0.677285 0.426341
502 1 0.924366 0.931456 0.00215312
596 1 0.66285 0.572273 0.395459
594 1 0.754898 0.59624 0.338076
600 1 0.832155 0.588129 0.415751
619 1 0.751707 0.672357 0.427824
583 1 0.242948 0.503008 0.414684
598 1 0.917111 0.596495 0.327335
601 1 0.00529144 0.66365 0.333048
580 1 0.98967 0.58416 0.422116
690 1 0.770593 0.756214 0.494945
623 1 0.927403 0.673744 0.403794
602 1 0.0726167 0.751276 0.346493
625 1 0.991708 0.837054 0.332218
629 1 0.181084 0.83528 0.329199
466 1 0.405744 0.765218 0.00679263
465 1 0.328863 0.687402 0.00605965
606 1 0.258501 0.751016 0.33665
608 1 0.170355 0.741845 0.42203
631 1 0.249064 0.82675 0.426514
633 1 0.331677 0.830504 0.327635
610 1 0.408558 0.752235 0.351118
612 1 0.341021 0.735696 0.43397
611 1 0.416716 0.655177 0.416199
674 1 0.0803913 0.750337 0.487785
616 1 0.492837 0.763123 0.429452
620 1 0.679471 0.751377 0.427903
639 1 0.577214 0.842339 0.41833
618 1 0.754483 0.767454 0.337774
641 1 0.668785 0.834113 0.365134
643 1 0.74769 0.843198 0.43451
647 1 0.905959 0.849586 0.413109
622 1 0.902331 0.753431 0.313892
621 1 0.838672 0.671692 0.3339
624 1 0.841993 0.75675 0.408841
604 1 0.995234 0.761174 0.415826
581 1 0.158324 0.514126 0.334782
627 1 0.0939842 0.827043 0.413489
505 1 0.00326995 0.503536 0.148942
632 1 0.17398 0.918509 0.419922
636 1 0.344684 0.934656 0.415867
461 1 0.176105 0.690175 0.00116034
634 1 0.421062 0.933501 0.345033
635 1 0.405676 0.828986 0.443696
640 1 0.49122 0.922115 0.426894
470 1 0.576107 0.757066 0.00787217
701 1 0.171612 0.825398 0.497598
159 1 0.588804 0.998882 0.441025
665 1 0.672835 0.503151 0.492895
7 1 0.255688 0.995198 0.0719036
673 1 0.998212 0.667602 0.492066
447 1 0.589723 0.514196 0.0881476
513 1 0.318765 0.501732 0.170537
1 1 0.00866108 0.994342 0.000390388
497 1 0.662457 0.837251 0.0169832
490 1 0.420563 0.923931 0.0139866
442 1 0.415949 0.588269 0.00434204
161 1 0.670526 0.989854 0.355787
21 1 0.841322 0.997943 0.0188559
445 1 0.483829 0.513239 0.0150119
453 1 0.8399 0.517341 0.0117568
167 1 0.898224 0.997787 0.429343
656 1 0.134869 0.586736 0.599707
462 1 0.254432 0.765914 0.998842
675 1 0.0849263 0.687308 0.589739
859 1 0.750979 0.835235 0.926835
660 1 0.334594 0.578862 0.568732
671 1 0.912546 0.517563 0.597541
709 1 0.499468 0.847893 0.503199
813 1 0.828169 0.532905 0.82144
365 1 0.166476 0.98898 0.831082
664 1 0.513581 0.593018 0.597707
668 1 0.669727 0.586064 0.590528
485 1 0.171195 0.838628 0.996731
672 1 0.84428 0.613527 0.583257
691 1 0.751912 0.673989 0.577008
235 1 0.753605 0.998955 0.607049
811 1 0.737511 0.516773 0.921873
229 1 0.506305 0.999486 0.514165
652 1 0.0112727 0.60381 0.581554
695 1 0.920476 0.676847 0.570976
815 1 0.911528 0.518767 0.909812
457 1 0.99784 0.68597 0.99201
699 1 0.0867494 0.837676 0.579643
291 1 0.0857389 0.995209 0.75586
858 1 0.746048 0.924443 0.84558
680 1 0.167219 0.751038 0.580411
679 1 0.251708 0.676416 0.591725
703 1 0.238889 0.834647 0.590412
750 1 0.23998 0.749529 0.664471
855 1 0.568767 0.833884 0.910323
684 1 0.334416 0.745749 0.600752
683 1 0.417611 0.650908 0.580481
685 1 0.490153 0.665428 0.505962
682 1 0.414951 0.74759 0.517659
494 1 0.584421 0.909744 0.993279
687 1 0.586504 0.675355 0.592284
688 1 0.500954 0.751914 0.579952
711 1 0.573926 0.838169 0.585905
669 1 0.832074 0.500753 0.516665
692 1 0.672448 0.744284 0.59007
458 1 0.0914849 0.755717 0.996763
696 1 0.822242 0.758445 0.590482
438 1 0.248728 0.604164 0.99327
803 1 0.42343 0.521118 0.924459
676 1 0.995699 0.765687 0.577317
719 1 0.907239 0.828816 0.584663
649 1 0.982356 0.502023 0.508353
769 1 0.000750281 0.827402 0.682882
704 1 0.163989 0.91279 0.600686
666 1 0.74854 0.576982 0.513536
770 1 0.0848475 0.904888 0.678525
741 1 0.827642 0.501847 0.662397
708 1 0.316381 0.905123 0.599644
774 1 0.250664 0.936587 0.677527
777 1 0.349589 0.825327 0.674435
225 1 0.333561 0.998147 0.511854
707 1 0.426051 0.845887 0.592101
712 1 0.488573 0.927654 0.597378
778 1 0.422365 0.920788 0.675596
441 1 0.326964 0.528608 0.983022
297 1 0.343501 0.993159 0.661808
797 1 0.164983 0.510652 0.841685
715 1 0.751327 0.828688 0.57812
716 1 0.669841 0.907361 0.585654
720 1 0.838552 0.916233 0.597499
702 1 0.260479 0.914088 0.51402
862 1 0.915409 0.914477 0.837185
700 1 0.994069 0.895716 0.609234
789 1 0.826792 0.820829 0.677079
706 1 0.419315 0.920231 0.508823
662 1 0.590884 0.593617 0.509018
722 1 0.07479 0.602684 0.681763
728 1 0.153976 0.578681 0.75116
731 1 0.428293 0.503096 0.74799
223 1 0.251028 0.996068 0.587478
726 1 0.237506 0.577785 0.656434
219 1 0.0600767 0.973471 0.584244
730 1 0.420193 0.578801 0.667522
732 1 0.340171 0.578626 0.744893
802 1 0.422749 0.596548 0.834766
361 1 0.99962 0.997831 0.827187
663 1 0.590854 0.507434 0.584822
735 1 0.585506 0.512274 0.749601
734 1 0.587671 0.594269 0.680911
736 1 0.509475 0.596989 0.761529
759 1 0.594199 0.682689 0.752825
486 1 0.240907 0.91355 0.988063
454 1 0.923422 0.591399 0.995231
738 1 0.764194 0.588662 0.643347
661 1 0.507678 0.500864 0.503896
740 1 0.669304 0.590195 0.754986
763 1 0.748584 0.667915 0.739837
745 1 0.999383 0.675909 0.661964
724 1 0.989199 0.599674 0.750116
239 1 0.930289 0.998619 0.608563
744 1 0.844445 0.593962 0.743778
742 1 0.921552 0.604087 0.665617
814 1 0.917618 0.597339 0.833214
765 1 0.840374 0.677702 0.662282
767 1 0.914797 0.684838 0.761406
746 1 0.0974209 0.755947 0.673524
747 1 0.0837559 0.668733 0.763398
748 1 0.000664713 0.747922 0.763063
752 1 0.15762 0.744821 0.755212
818 1 0.081021 0.74902 0.832389
845 1 0.17103 0.837127 0.830124
751 1 0.240234 0.652506 0.731263
749 1 0.162608 0.673194 0.664686
773 1 0.165946 0.839387 0.679361
755 1 0.416699 0.681195 0.758412
753 1 0.329219 0.663087 0.663349
756 1 0.334932 0.764642 0.750544
754 1 0.429745 0.757304 0.670187
760 1 0.511003 0.752728 0.754392
829 1 0.504836 0.665797 0.850297
757 1 0.503073 0.675242 0.679275
758 1 0.574546 0.765393 0.67074
764 1 0.659804 0.767822 0.75982
761 1 0.671271 0.660185 0.673491
762 1 0.740043 0.757516 0.669535
768 1 0.82282 0.756585 0.7594
833 1 0.665694 0.682368 0.857258
766 1 0.922173 0.753345 0.674454
771 1 0.0767162 0.830834 0.750071
841 1 0.00510924 0.831574 0.831887
864 1 0.839499 0.928194 0.924318
775 1 0.248382 0.839949 0.739867
776 1 0.157626 0.907746 0.753953
780 1 0.334567 0.916447 0.747533
781 1 0.500317 0.84101 0.674093
779 1 0.422811 0.841189 0.753354
784 1 0.491077 0.927932 0.757012
782 1 0.576626 0.92994 0.667127
785 1 0.650916 0.838748 0.662323
783 1 0.591626 0.84403 0.760338
788 1 0.663113 0.938555 0.746254
857 1 0.672046 0.837588 0.841116
854 1 0.581474 0.917359 0.837129
786 1 0.735921 0.906688 0.670671
787 1 0.746436 0.831055 0.755947
861 1 0.840519 0.849132 0.840497
790 1 0.917799 0.923511 0.678962
791 1 0.910232 0.833477 0.756276
772 1 0.00264654 0.916363 0.747164
792 1 0.827921 0.915289 0.7481
677 1 0.17451 0.665421 0.516124
289 1 0.0104849 0.990781 0.676391
817 1 0.984334 0.678474 0.84314
794 1 0.0868974 0.588279 0.830621
800 1 0.158331 0.591749 0.938074
796 1 0.0120397 0.592165 0.911643
798 1 0.24132 0.600085 0.850276
823 1 0.243475 0.685764 0.916503
743 1 0.917501 0.515835 0.740719
433 1 0.997132 0.512295 0.990801
804 1 0.326088 0.603402 0.907284
808 1 0.507754 0.586502 0.917536
805 1 0.50455 0.508882 0.83437
689 1 0.677058 0.662539 0.504373
809 1 0.654086 0.511819 0.837709
710 1 0.593777 0.922795 0.511527
806 1 0.589947 0.60498 0.83094
293 1 0.168428 0.991725 0.681665
807 1 0.583795 0.507175 0.923765
650 1 0.0711797 0.58767 0.500273
729 1 0.32425 0.508444 0.666292
812 1 0.660097 0.588219 0.935737
810 1 0.742776 0.595976 0.833561
653 1 0.160304 0.510502 0.506888
705 1 0.333372 0.820645 0.526691
793 1 0.994844 0.51172 0.833418
816 1 0.822459 0.590682 0.915201
837 1 0.827786 0.665351 0.827537
839 1 0.910455 0.6765 0.922238
379 1 0.757597 0.996914 0.935337
727 1 0.238929 0.510736 0.758753
819 1 0.0847699 0.67421 0.918563
824 1 0.166317 0.762422 0.899633
820 1 0.996886 0.760013 0.918325
825 1 0.318308 0.667653 0.813333
821 1 0.156342 0.670595 0.841818
822 1 0.239823 0.745209 0.824828
828 1 0.333536 0.738832 0.912125
827 1 0.408188 0.666811 0.914346
826 1 0.417105 0.761587 0.834386
832 1 0.487604 0.746183 0.927425
489 1 0.322642 0.846934 0.998595
725 1 0.146462 0.508156 0.671933
830 1 0.574004 0.756442 0.839755
831 1 0.590206 0.673859 0.932306
733 1 0.5012 0.50425 0.666561
835 1 0.747503 0.665695 0.932469
834 1 0.735819 0.756323 0.834088
840 1 0.824483 0.768271 0.918049
836 1 0.65539 0.767483 0.927158
863 1 0.91983 0.848362 0.923213
838 1 0.90198 0.764487 0.849422
856 1 0.489323 0.916826 0.924699
844 1 0.002117 0.922493 0.919996
842 1 0.089494 0.917272 0.842571
848 1 0.17529 0.909077 0.916369
843 1 0.0861778 0.837575 0.921684
474 1 0.757351 0.758811 0.994181
846 1 0.254902 0.922601 0.82893
847 1 0.255672 0.835251 0.901272
849 1 0.331201 0.847695 0.828779
852 1 0.322076 0.920171 0.918971
678 1 0.255646 0.745785 0.500857
851 1 0.397834 0.840717 0.916669
853 1 0.497366 0.837721 0.822076
850 1 0.405794 0.93598 0.840619
799 1 0.23808 0.507237 0.918711
860 1 0.658269 0.921658 0.922012
714 1 0.752391 0.920981 0.518841
801 1 0.34128 0.50733 0.829129
721 1 0.992884 0.515295 0.670514
718 1 0.919319 0.923161 0.527551
670 1 0.924345 0.587412 0.506603
654 1 0.244876 0.579997 0.512803
697 1 0.986408 0.844586 0.501308
363 1 0.100811 0.999759 0.926075
303 1 0.577252 0.998314 0.757264
493 1 0.501623 0.840552 0.999029
681 1 0.344667 0.662059 0.500536
434 1 0.0765961 0.597792 0.999682
478 1 0.923514 0.765577 0.999566
