ITEM: TIMESTEP
5500
ITEM: NUMBER OF ATOMS
864
ITEM: BOX BOUNDS pp pp pp
0.0000000000000000e+00 3.1559999999999999e+01
0.0000000000000000e+00 3.1559999999999999e+01
0.0000000000000000e+00 3.1559999999999999e+01
ITEM: ATOMS id type xs ys zs
4 1 0.997652 0.0919598 0.0843397
8 1 0.164537 0.0784314 0.07675
7 1 0.253734 0.987795 0.0866421
149 1 0.181329 1.00282 0.160692
6 1 0.269473 0.0875547 0.0196867
12 1 0.337 0.0922236 0.0967219
29 1 0.169751 0.152472 -0.0115909
11 1 0.417825 0.000427849 0.0970268
154 1 0.413745 0.0948196 0.176922
16 1 0.505931 0.0981398 0.0897767
157 1 0.491677 -0.0129026 0.174931
153 1 0.339016 0.994492 0.163186
15 1 0.577484 0.000602496 0.0901096
158 1 0.568273 0.0632192 0.180128
20 1 0.666796 0.0820948 0.103289
18 1 0.757356 0.0988836 0.994506
162 1 0.748836 0.080883 0.172547
43 1 0.729739 0.182857 0.0833485
45 1 0.84485 0.174204 0.995889
24 1 0.829855 0.0880344 0.0891923
166 1 0.924253 0.0854542 0.166633
47 1 0.906165 0.161344 0.0918394
189 1 0.826099 0.166946 0.161342
27 1 0.0957516 0.179832 0.0798729
169 1 0.00633528 0.169634 0.153323
28 1 0.0035498 0.253014 0.073178
26 1 0.0863766 0.248294 0.990923
31 1 0.262188 0.170062 0.0790106
32 1 0.184953 0.240841 0.0747044
55 1 0.26129 0.33357 0.0710185
30 1 0.24376 0.237658 0.986998
53 1 0.16728 0.326515 0.994483
35 1 0.410506 0.174296 0.0751196
36 1 0.343099 0.256928 0.0801612
40 1 0.486423 0.243889 0.0858
59 1 0.414259 0.340308 0.0816413
205 1 0.492071 0.337622 0.172678
39 1 0.578848 0.175397 0.0851166
44 1 0.658019 0.260447 0.0964361
63 1 0.579305 0.356305 0.0936675
67 1 0.757308 0.337559 0.0931597
48 1 0.83533 0.253521 0.0727044
209 1 0.670095 0.340935 0.169827
213 1 0.851814 0.330216 0.161663
69 1 0.846061 0.338696 -0.00500154
71 1 0.934359 0.339227 0.0733384
193 1 1.00267 0.326416 0.161263
49 1 0.00511677 0.330383 0.991658
51 1 0.0779581 0.334702 0.0808758
50 1 0.10294 0.407555 1.01015
56 1 0.172523 0.420126 0.0886773
217 1 0.00995229 0.496477 0.173074
77 1 0.178765 0.49963 1.00599
60 1 0.340693 0.423552 0.0850366
198 1 0.257138 0.424845 0.171841
57 1 0.340079 0.324262 0.989784
64 1 0.496897 0.416975 0.0946544
201 1 0.326634 0.331869 0.156876
58 1 0.418336 0.42066 0.011191
68 1 0.670578 0.423176 0.0955679
233 1 0.66137 0.513432 0.165772
206 1 0.59157 0.418085 0.180747
89 1 0.676475 0.506066 1.009
210 1 0.747904 0.421948 0.173671
72 1 0.840811 0.422369 0.0752317
52 1 0.0107143 0.427862 0.0834391
95 1 0.934667 0.507091 0.081067
214 1 0.923048 0.424717 0.152713
70 1 0.923148 0.417827 0.991215
75 1 0.0895616 0.498469 0.0839532
76 1 0.0129303 0.585215 0.0830834
241 1 0.0111532 0.657512 0.159911
225 1 0.341902 0.508679 0.161413
79 1 0.256167 0.4927 0.0944119
80 1 0.172438 0.578392 0.0863002
84 1 0.344779 0.584888 0.0843935
221 1 0.159893 0.498544 0.165341
222 1 0.259489 0.574068 0.172117
83 1 0.430165 0.508163 0.0831894
82 1 0.414331 0.580275 -0.0057693
88 1 0.500159 0.582914 0.0867977
107 1 0.421382 0.659434 0.0884823
226 1 0.415426 0.586907 0.169288
105 1 0.317573 0.662179 0.00502696
229 1 0.501903 0.506844 0.172976
87 1 0.576956 0.504605 0.0986003
86 1 0.582322 0.573557 -0.00219746
92 1 0.674485 0.584249 0.0849413
85 1 0.499084 0.502233 0.999038
91 1 0.750976 0.496142 0.0884375
90 1 0.754801 0.592488 1.00106
234 1 0.768201 0.59274 0.171314
93 1 0.834232 0.509229 0.999875
117 1 0.820907 0.6706 0.00345184
96 1 0.844868 0.582048 0.0799612
119 1 0.923034 0.663693 0.0905041
73 1 0.0114619 0.483884 -0.00510896
99 1 0.0952719 0.666783 0.0839195
242 1 0.0909472 0.749561 0.161042
100 1 0.0114969 0.731789 0.0838764
123 1 0.0820717 0.822836 0.0842499
103 1 0.24971 0.651367 0.0935272
104 1 0.179601 0.74663 0.0965679
108 1 0.335526 0.754988 0.0871842
249 1 0.342749 0.678807 0.168216
131 1 0.422564 0.845022 0.0839036
277 1 0.502773 0.833214 0.159016
112 1 0.494094 0.74154 0.0796932
111 1 0.584895 0.66934 0.0874804
135 1 0.578669 0.837648 0.0826492
115 1 0.75719 0.659205 0.0855511
116 1 0.678469 0.754507 0.0867028
139 1 0.752369 0.849829 0.0690643
114 1 0.76105 0.75664 0.0162587
137 1 0.663441 0.838501 0.0140227
120 1 0.834336 0.738849 0.103547
118 1 0.920227 0.737308 0.00566434
143 1 0.909135 0.830473 0.0661111
262 1 0.931549 0.747676 0.159284
3 1 0.0970231 0.996053 0.0834322
124 1 0.984806 0.918275 0.0865277
266 1 0.0727973 0.920218 0.163927
122 1 0.0907875 0.914395 1.00985
269 1 0.151674 0.835291 0.156515
127 1 0.25352 0.832372 0.0909433
128 1 0.178027 0.91653 0.0843654
126 1 0.242279 0.896635 0.968935
132 1 0.332232 0.920637 0.0864569
274 1 0.421213 0.914234 0.167433
133 1 0.503849 0.821421 0.00181995
136 1 0.497811 0.914576 0.0795475
140 1 0.668127 0.926551 0.0888167
134 1 0.576745 0.92183 0.999651
19 1 0.752748 0.00849949 0.084442
138 1 0.748751 0.932655 0.999027
282 1 0.734519 0.926677 0.170191
165 1 0.841284 0.0151569 0.180742
265 1 1.00529 0.830795 0.152616
144 1 0.834841 0.929142 0.0823485
23 1 0.902407 0.00970086 0.0788728
286 1 0.918137 0.927018 0.160269
146 1 0.0859795 0.0834629 0.159505
145 1 0.00201032 1.00023 0.158861
290 1 0.0845776 0.0719554 0.357007
150 1 0.248589 0.0825866 0.155881
177 1 0.335531 0.172275 0.180593
152 1 0.168217 0.0810881 0.239015
175 1 0.249284 0.154659 0.24734
151 1 0.252101 0.998869 0.241989
156 1 0.33223 0.0732706 0.256906
160 1 0.490766 0.0655409 0.257235
155 1 0.405167 0.985571 0.260618
321 1 0.32509 0.160414 0.32727
298 1 0.406235 0.0707713 0.336541
181 1 0.504095 0.16017 0.162635
161 1 0.64745 0.990175 0.179577
302 1 0.59171 0.0880336 0.322665
305 1 0.663229 0.991595 0.317533
164 1 0.655137 0.0894568 0.239426
163 1 0.763453 -0.00227431 0.261052
187 1 0.75527 0.147861 0.248111
306 1 0.752666 0.0743114 0.349814
148 1 0.0128439 0.0806343 0.244513
168 1 0.847475 0.090888 0.253359
309 1 0.851581 0.998974 0.330839
310 1 0.926521 0.087522 0.325616
191 1 0.943329 0.162557 0.240296
289 1 0.00747185 0.996035 0.339351
170 1 0.100599 0.263738 0.161026
197 1 0.181499 0.330276 0.151088
171 1 0.0968776 0.151333 0.269301
172 1 0.0127569 0.246564 0.227471
173 1 0.166719 0.173296 0.153295
174 1 0.252613 0.250027 0.159752
176 1 0.171756 0.231826 0.246011
178 1 0.409579 0.257695 0.180029
179 1 0.410826 0.159015 0.259099
180 1 0.324669 0.244522 0.262055
184 1 0.491298 0.230028 0.24751
185 1 0.663037 0.177659 0.171989
183 1 0.584652 0.166568 0.234865
182 1 0.567993 0.250991 0.161083
188 1 0.658811 0.25361 0.250863
186 1 0.749203 0.249182 0.173658
353 1 0.664608 0.331125 0.33012
329 1 0.682666 0.159854 0.34962
330 1 0.734774 0.241865 0.330171
333 1 0.837324 0.162419 0.339781
190 1 0.915242 0.235322 0.173903
192 1 0.83005 0.235912 0.249147
215 1 0.928086 0.316318 0.235839
194 1 0.078962 0.405223 0.168157
195 1 0.0913539 0.340944 0.254359
196 1 0.992406 0.405002 0.239669
338 1 0.0786055 0.415427 0.340823
361 1 0.99878 0.48229 0.331441
200 1 0.165568 0.406967 0.249651
199 1 0.245797 0.31549 0.262803
223 1 0.252137 0.498014 0.250321
345 1 0.334212 0.337859 0.340562
341 1 0.168313 0.330101 0.353349
342 1 0.243827 0.422255 0.330745
203 1 0.410715 0.328852 0.257379
204 1 0.331858 0.422747 0.255715
202 1 0.418792 0.424653 0.190715
208 1 0.506762 0.41819 0.255391
207 1 0.578117 0.325764 0.243441
212 1 0.672056 0.420057 0.259648
231 1 0.581134 0.504487 0.250255
350 1 0.587473 0.406889 0.330146
357 1 0.838947 0.329664 0.324441
211 1 0.753005 0.340506 0.246542
235 1 0.748388 0.514764 0.240911
354 1 0.762561 0.41463 0.33058
216 1 0.837331 0.4092 0.234904
239 1 0.917709 0.492134 0.244346
219 1 0.0959348 0.490816 0.25594
218 1 0.0869554 0.579623 0.17876
220 1 0.00393963 0.567595 0.25236
224 1 0.173912 0.570376 0.253109
228 1 0.330459 0.582144 0.261395
247 1 0.268012 0.664529 0.24171
365 1 0.160183 0.494607 0.349541
253 1 0.514994 0.673089 0.160424
227 1 0.406226 0.507959 0.268966
232 1 0.50427 0.577468 0.255864
251 1 0.426594 0.659832 0.251794
370 1 0.405813 0.58426 0.348823
230 1 0.573692 0.586982 0.173016
237 1 0.835282 0.517437 0.168046
377 1 0.655651 0.506486 0.326869
236 1 0.6763 0.592321 0.244059
261 1 0.84274 0.662287 0.171736
238 1 0.929487 0.586684 0.159761
240 1 0.83931 0.591509 0.261015
382 1 0.910359 0.596577 0.340347
263 1 0.939651 0.662282 0.23884
243 1 0.074549 0.675526 0.256203
386 1 0.0864998 0.755856 0.33547
267 1 0.080634 0.827025 0.24485
409 1 -0.00307743 0.836621 0.326748
246 1 0.25373 0.747988 0.176157
245 1 0.14914 0.653553 0.182905
248 1 0.178152 0.759575 0.246909
390 1 0.255926 0.757652 0.330304
250 1 0.434095 0.75362 0.169165
252 1 0.345236 0.757545 0.25483
256 1 0.509357 0.750911 0.250335
394 1 0.420114 0.740786 0.345556
417 1 0.337835 0.845391 0.330125
255 1 0.59484 0.672096 0.261876
254 1 0.580309 0.75797 0.152563
279 1 0.595222 0.83138 0.260711
257 1 0.660747 0.663115 0.163173
258 1 0.747654 0.75857 0.168906
259 1 0.755969 0.68012 0.254248
401 1 0.663222 0.666751 0.338476
260 1 0.668891 0.761624 0.236536
402 1 0.73999 0.753117 0.320654
281 1 0.665168 0.83785 0.15295
244 1 0.000628561 0.756375 0.24013
264 1 0.831316 0.768466 0.238002
147 1 0.0865985 -0.000270477 0.237706
410 1 0.0804889 0.907754 0.327197
268 1 1.00198 0.909868 0.251755
273 1 0.348095 0.821752 0.160403
271 1 0.256289 0.833137 0.255545
272 1 0.166198 0.916902 0.244899
270 1 0.255119 0.91013 0.168048
276 1 0.337099 0.916662 0.240802
293 1 0.174891 0.988601 0.330546
414 1 0.244371 0.915362 0.333929
275 1 0.414534 0.837841 0.252238
159 1 0.572975 0.988087 0.266789
280 1 0.482913 0.910898 0.263562
278 1 0.573615 0.912139 0.152852
422 1 0.572194 0.897828 0.34789
285 1 0.826525 0.845016 0.148164
283 1 0.74611 0.839563 0.23086
284 1 0.661604 0.905046 0.24504
426 1 0.759193 0.908034 0.312911
167 1 0.923403 0.993178 0.250497
287 1 0.914675 0.831464 0.231926
288 1 0.843317 0.907618 0.241727
317 1 0.175811 0.164874 0.332266
434 1 0.079344 0.0899941 0.488384
291 1 0.0717661 0.994581 0.434306
294 1 0.252225 0.0709233 0.331207
296 1 0.171068 0.0814581 0.423598
319 1 0.258905 0.171895 0.410238
461 1 0.182491 0.163415 0.49321
438 1 0.264733 0.0945412 0.505049
300 1 0.322863 0.0874912 0.414647
323 1 0.410039 0.156071 0.422515
299 1 0.398504 1.00315 0.425154
445 1 0.495831 1.00198 0.503561
297 1 0.32669 0.978467 0.341307
442 1 0.405378 0.083726 0.502213
301 1 0.488388 0.997441 0.353403
304 1 0.490868 0.0738989 0.421287
303 1 0.583212 -0.00933592 0.396879
308 1 0.666173 0.0770618 0.414082
446 1 0.588522 0.063279 0.495521
449 1 0.66135 0.985564 0.498326
450 1 0.749498 0.0791295 0.486549
473 1 0.667273 0.151783 0.512777
477 1 0.832697 0.157157 0.511003
292 1 1.00268 0.0880865 0.416588
312 1 0.83899 0.0802696 0.430712
454 1 0.920842 0.092444 0.510266
311 1 0.929033 0.00265716 0.420867
335 1 0.913177 0.157373 0.424298
314 1 0.0775187 0.248854 0.334277
313 1 0.00247544 0.161541 0.337754
315 1 0.102565 0.165397 0.415047
458 1 0.0918738 0.243046 0.498313
318 1 0.246522 0.250925 0.340048
320 1 0.173138 0.242929 0.415964
325 1 0.498386 0.157438 0.320537
465 1 0.334935 0.176037 0.499395
324 1 0.338506 0.243344 0.40949
322 1 0.412725 0.244102 0.328562
328 1 0.498657 0.226502 0.412405
326 1 0.596676 0.232186 0.33627
327 1 0.575192 0.144346 0.427502
351 1 0.584334 0.322907 0.418888
332 1 0.658034 0.228827 0.435808
331 1 0.753126 0.166426 0.420036
355 1 0.755522 0.329252 0.405353
336 1 0.829248 0.236852 0.411418
316 1 0.0103237 0.240845 0.422193
334 1 0.919031 0.237098 0.319311
501 1 0.836462 0.334563 0.491445
339 1 0.0772843 0.323325 0.415765
363 1 0.0708149 0.492233 0.416655
343 1 0.244945 0.32169 0.424992
344 1 0.162224 0.418751 0.423211
348 1 0.324226 0.402523 0.424823
486 1 0.246419 0.413834 0.494187
349 1 0.510012 0.30195 0.331814
347 1 0.424467 0.318098 0.412615
346 1 0.422563 0.420886 0.33862
352 1 0.500821 0.397279 0.417168
373 1 0.505486 0.497656 0.339439
494 1 0.575156 0.417579 0.4997
356 1 0.670035 0.406292 0.411803
379 1 0.742418 0.499697 0.40246
360 1 0.844201 0.40806 0.416838
497 1 0.666348 0.322404 0.492054
337 1 0.00523877 0.324658 0.333729
359 1 0.927647 0.303276 0.411493
340 1 0.989035 0.404117 0.421388
358 1 0.917225 0.404296 0.341297
383 1 0.92069 0.494547 0.409846
385 1 0.997365 0.682274 0.330484
362 1 0.0954099 0.580977 0.334356
368 1 0.176226 0.580271 0.418893
364 1 -0.00503608 0.582128 0.399708
389 1 0.173595 0.677413 0.317846
366 1 0.255806 0.577749 0.336776
367 1 0.246716 0.498621 0.432974
369 1 0.342677 0.497618 0.353151
513 1 0.336629 0.504864 0.486977
510 1 0.248029 0.586203 0.50214
393 1 0.331527 0.668342 0.327698
371 1 0.428867 0.495229 0.412601
372 1 0.322885 0.601572 0.412073
514 1 0.432488 0.577622 0.488647
376 1 0.511954 0.598048 0.417848
517 1 0.504965 0.501401 0.4956
374 1 0.58061 0.577414 0.338207
375 1 0.571194 0.487069 0.411691
380 1 0.643813 0.585958 0.422805
399 1 0.584801 0.681938 0.42359
378 1 0.743395 0.585741 0.325321
522 1 0.748816 0.571837 0.484501
381 1 0.838051 0.491779 0.322063
384 1 0.825728 0.574511 0.406019
526 1 0.921899 0.579287 0.488405
525 1 0.839179 0.501095 0.50014
387 1 0.0704675 0.662852 0.409309
392 1 0.157145 0.734442 0.416879
388 1 0.998208 0.752777 0.414293
557 1 0.154555 0.84487 0.503407
391 1 0.232113 0.662915 0.396645
415 1 0.249527 0.832653 0.419623
397 1 0.511681 0.660513 0.331636
396 1 0.327274 0.751692 0.408606
395 1 0.421837 0.670498 0.421421
421 1 0.489166 0.821862 0.353815
419 1 0.420025 0.824051 0.434562
398 1 0.578388 0.756503 0.340037
400 1 0.496046 0.749456 0.440499
423 1 0.56768 0.821442 0.425782
542 1 0.587065 0.747154 0.510662
405 1 0.838204 0.673317 0.332727
403 1 0.752916 0.656812 0.418758
549 1 0.825542 0.644663 0.490148
404 1 0.670368 0.755925 0.408116
408 1 0.830973 0.739804 0.426234
546 1 0.738135 0.761217 0.503601
406 1 0.903408 0.750126 0.325921
429 1 0.837042 0.828159 0.333454
407 1 0.921172 0.671607 0.42172
573 1 0.828918 0.825039 0.494581
411 1 0.0852142 0.836981 0.410308
412 1 -0.00430644 0.906467 0.408432
433 1 0.996387 0.00994874 0.504769
554 1 0.0698816 0.920029 0.518613
413 1 0.162651 0.838725 0.326203
416 1 0.15739 0.921728 0.415474
295 1 0.248278 0.994532 0.424099
420 1 0.325542 0.901799 0.425432
558 1 0.243415 0.905276 0.508075
418 1 0.430614 0.904125 0.351717
441 1 0.314765 0.999268 0.515822
424 1 0.501052 0.924215 0.425138
428 1 0.684794 0.923263 0.406342
569 1 0.665353 0.838176 0.493101
566 1 0.580029 0.915005 0.503215
425 1 0.676317 0.840933 0.334358
307 1 0.756696 1.00078 0.419027
427 1 0.768673 0.824473 0.413717
570 1 0.748783 0.919875 0.496499
430 1 0.923455 0.918352 0.332086
431 1 0.924054 0.832097 0.415019
432 1 0.846811 0.91056 0.41638
453 1 0.821791 1.00392 0.507224
459 1 0.0794277 0.160597 0.581157
440 1 0.171279 0.0892316 0.575897
578 1 0.0803565 0.0813809 0.666451
436 1 1.0038 0.088254 0.580386
581 1 0.163709 1.00183 0.670196
439 1 0.24831 0.0101555 0.590928
582 1 0.246415 0.0866881 0.673988
585 1 0.344373 1.00515 0.677872
463 1 0.241277 0.164492 0.593027
444 1 0.330669 0.0772676 0.597599
448 1 0.49917 0.0777512 0.569778
586 1 0.43353 0.0742952 0.654173
590 1 0.573841 0.0690642 0.651536
452 1 0.663818 0.0638609 0.592829
475 1 0.739534 0.149166 0.594896
451 1 0.758149 0.0107172 0.588334
594 1 0.742553 0.0777357 0.686364
456 1 0.832782 0.0860864 0.590965
457 1 1.00185 0.17204 0.504997
455 1 0.914027 0.00736822 0.576203
598 1 0.924162 0.0779173 0.682952
621 1 0.832836 0.146119 0.685937
483 1 0.093913 0.332183 0.585032
602 1 0.0791854 0.256192 0.675839
464 1 0.160798 0.234149 0.584114
460 1 0.0126434 0.258103 0.580718
625 1 0.0041699 0.336725 0.65759
485 1 0.157174 0.330762 0.490212
462 1 0.24 0.253101 0.50762
468 1 0.331729 0.248421 0.576672
467 1 0.417191 0.167398 0.576053
466 1 0.420256 0.247984 0.510275
493 1 0.495084 0.334675 0.497368
633 1 0.330299 0.33021 0.663566
469 1 0.496149 0.159378 0.490036
471 1 0.575919 0.156141 0.579232
470 1 0.566727 0.243016 0.490006
472 1 0.506669 0.242147 0.59272
495 1 0.577879 0.33622 0.573433
474 1 0.757875 0.256193 0.491874
476 1 0.671467 0.235333 0.570055
480 1 0.832386 0.23739 0.585316
499 1 0.740989 0.327013 0.578656
478 1 0.905088 0.2373 0.502782
481 1 0.014051 0.324257 0.494726
479 1 0.919914 0.159624 0.598011
503 1 0.923352 0.332091 0.574719
622 1 0.918524 0.250999 0.675672
482 1 0.0806002 0.412035 0.505824
505 1 -0.000217599 0.513088 0.501872
626 1 0.0883 0.409806 0.670685
507 1 0.0825513 0.49745 0.591457
509 1 0.174135 0.491075 0.509021
487 1 0.262959 0.349445 0.577974
488 1 0.161842 0.423411 0.594774
511 1 0.251033 0.483508 0.595994
489 1 0.336314 0.329359 0.500185
490 1 0.420267 0.409888 0.495123
492 1 0.340735 0.419326 0.576245
491 1 0.4241 0.322368 0.583745
515 1 0.413878 0.494808 0.571064
521 1 0.674011 0.502606 0.501017
496 1 0.504617 0.411798 0.583149
500 1 0.660023 0.409665 0.584714
519 1 0.577857 0.497579 0.584988
498 1 0.74405 0.416023 0.499051
642 1 0.751111 0.409177 0.661924
502 1 0.919323 0.409112 0.502128
504 1 0.828368 0.413981 0.589136
484 1 -0.000655192 0.424935 0.575572
527 1 0.922407 0.498885 0.579623
646 1 0.916149 0.426884 0.655881
506 1 0.0858745 0.576377 0.511272
653 1 0.184951 0.500515 0.675331
512 1 0.161204 0.585336 0.592151
508 1 0.994568 0.596162 0.573013
654 1 0.248005 0.579359 0.66776
516 1 0.342585 0.589928 0.57002
520 1 0.490765 0.575321 0.582388
518 1 0.584268 0.582424 0.516587
524 1 0.672377 0.569069 0.587774
662 1 0.570472 0.564963 0.675308
665 1 0.668667 0.497279 0.675892
523 1 0.751324 0.490889 0.588129
666 1 0.759924 0.565276 0.669848
689 1 0.678022 0.649849 0.65853
528 1 0.839971 0.572052 0.58593
670 1 0.91131 0.573453 0.672837
531 1 0.0757505 0.674865 0.588407
530 1 0.0880127 0.745978 0.502595
532 1 0.98392 0.752252 0.580534
529 1 0.00593074 0.668951 0.499613
535 1 0.247877 0.658287 0.576859
533 1 0.163657 0.648392 0.49988
536 1 0.177576 0.749606 0.575902
534 1 0.241626 0.751013 0.495795
678 1 0.260396 0.718545 0.670384
537 1 0.331354 0.674257 0.486911
540 1 0.333626 0.737242 0.588117
538 1 0.421409 0.741114 0.517788
539 1 0.42457 0.654826 0.584819
563 1 0.41943 0.827705 0.577191
682 1 0.417075 0.737319 0.669377
541 1 0.512319 0.662245 0.506796
544 1 0.499401 0.729104 0.599092
543 1 0.588865 0.659299 0.596491
545 1 0.66058 0.67097 0.494853
547 1 0.757381 0.668373 0.570709
548 1 0.675173 0.739017 0.576967
690 1 0.757156 0.740358 0.652991
551 1 0.910044 0.660151 0.560664
552 1 0.842879 0.733237 0.571826
550 1 0.916261 0.766457 0.494386
575 1 0.92067 0.841789 0.574771
717 1 0.84037 0.837751 0.665559
553 1 0.0083109 0.839452 0.495531
435 1 0.0819148 0.00597909 0.584733
555 1 0.084662 0.817197 0.592492
556 1 0.996944 0.929669 0.595218
437 1 0.175924 1.00089 0.502385
560 1 0.161234 0.925505 0.581731
559 1 0.248714 0.831072 0.58141
702 1 0.243036 0.904954 0.663524
564 1 0.329311 0.903301 0.592903
561 1 0.326711 0.820812 0.504614
443 1 0.410488 0.987193 0.584326
562 1 0.403287 0.914187 0.510576
705 1 0.332855 0.828239 0.663053
447 1 0.582733 0.995339 0.578253
565 1 0.509698 0.833629 0.512588
567 1 0.596028 0.84937 0.583912
568 1 0.493158 0.919345 0.587118
572 1 0.66891 0.931421 0.586217
571 1 0.751269 0.85237 0.588949
714 1 0.758056 0.914314 0.674047
574 1 0.929409 0.921446 0.503179
576 1 0.829244 0.926237 0.576423
718 1 0.924527 0.920243 0.671562
577 1 -0.0033781 1.01199 0.667328
584 1 0.153178 0.0827738 0.765392
579 1 0.0787174 -0.0065155 0.74072
580 1 0.0137081 0.0859245 0.755042
605 1 0.15381 0.163992 0.678404
607 1 0.244166 0.177559 0.730997
583 1 0.261389 0.991464 0.742525
588 1 0.344885 0.0944094 0.738955
729 1 0.339811 0.00350904 0.829006
749 1 0.174951 0.16959 0.836305
730 1 0.418717 0.0823189 0.836752
592 1 0.514792 0.0818703 0.747873
611 1 0.432731 0.15804 0.757873
757 1 0.497536 0.159472 0.850425
587 1 0.417436 0.00398354 0.75186
615 1 0.591973 0.174126 0.765097
596 1 0.648335 0.0836813 0.733439
734 1 0.580759 0.0764832 0.840272
761 1 0.675704 0.182401 0.850695
619 1 0.72955 0.166126 0.749797
595 1 0.749645 0.00593961 0.766297
738 1 0.757807 0.0964871 0.842229
601 1 0.00409352 0.183711 0.674383
600 1 0.841028 0.0702982 0.757811
623 1 0.924764 0.163931 0.757548
742 1 0.932105 0.080004 0.838079
629 1 0.163167 0.321268 0.666325
603 1 0.0831047 0.187272 0.759187
604 1 -0.00692447 0.261485 0.751595
627 1 0.0802239 0.334526 0.750297
773 1 0.173995 0.342602 0.821967
608 1 0.171627 0.257968 0.754141
606 1 0.249755 0.259322 0.667852
750 1 0.25096 0.255355 0.85011
609 1 0.332388 0.163598 0.658392
753 1 0.344235 0.166489 0.829347
613 1 0.510692 0.166345 0.667429
610 1 0.423941 0.243833 0.657198
612 1 0.343546 0.243146 0.752569
616 1 0.505889 0.243124 0.77931
635 1 0.428267 0.324153 0.738542
637 1 0.504058 0.332869 0.659668
614 1 0.59125 0.251765 0.65467
641 1 0.659654 0.325591 0.650415
617 1 0.652553 0.15875 0.666523
758 1 0.582926 0.251356 0.854853
618 1 0.750779 0.241963 0.658159
645 1 0.828548 0.326454 0.657761
620 1 0.670694 0.257957 0.736168
643 1 0.767117 0.340788 0.751455
789 1 0.844618 0.339853 0.827938
624 1 0.833437 0.255759 0.752508
647 1 0.91982 0.338158 0.733496
649 1 0.00235537 0.503599 0.675953
632 1 0.167529 0.417959 0.740661
630 1 0.251412 0.414839 0.671793
631 1 0.253769 0.335729 0.741808
636 1 0.34237 0.414207 0.737421
777 1 0.330164 0.333796 0.824768
797 1 0.167508 0.502243 0.838906
661 1 0.494259 0.483739 0.659489
634 1 0.422263 0.406064 0.653365
778 1 0.407655 0.422524 0.833688
638 1 0.574852 0.415489 0.669299
639 1 0.57528 0.328181 0.739392
640 1 0.513345 0.407647 0.757307
644 1 0.662199 0.394834 0.735733
813 1 0.840227 0.50049 0.837783
669 1 0.833201 0.488834 0.676703
648 1 0.84249 0.406335 0.742779
628 1 0.00694182 0.417587 0.752288
650 1 0.080634 0.590982 0.679015
651 1 0.0964595 0.489187 0.755604
677 1 0.158544 0.669202 0.679123
652 1 1.01281 0.592837 0.767596
673 1 0.993103 0.665409 0.664416
657 1 0.348213 0.497217 0.656415
655 1 0.253694 0.509993 0.744981
656 1 0.164764 0.581326 0.751932
679 1 0.270684 0.652099 0.756927
658 1 0.432386 0.584238 0.678495
659 1 0.441575 0.492208 0.757384
660 1 0.353639 0.577882 0.750154
664 1 0.497779 0.593663 0.767764
663 1 0.593948 0.481502 0.745964
687 1 0.595272 0.659108 0.75049
667 1 0.752385 0.498061 0.76343
668 1 0.674496 0.586822 0.751005
691 1 0.767606 0.666508 0.748489
810 1 0.758984 0.564928 0.843282
833 1 0.676332 0.659877 0.845448
672 1 0.834233 0.57241 0.76214
693 1 0.850403 0.660426 0.661055
671 1 0.916578 0.499009 0.745702
695 1 0.906544 0.667082 0.758449
814 1 0.920797 0.580482 0.827457
817 1 0.98659 0.692874 0.82152
674 1 0.0568724 0.750772 0.668205
697 1 0.986875 0.837671 0.671596
675 1 0.0796785 0.677508 0.764459
699 1 0.0807013 0.833167 0.743527
680 1 0.167425 0.767868 0.752955
703 1 0.260479 0.833769 0.746464
681 1 0.331676 0.648045 0.662266
684 1 0.339018 0.732978 0.742703
683 1 0.419436 0.661905 0.756381
707 1 0.417069 0.830429 0.743825
685 1 0.498885 0.669954 0.684519
688 1 0.497035 0.758706 0.75444
686 1 0.591041 0.739654 0.675908
711 1 0.578466 0.8349 0.74167
713 1 0.677302 0.827284 0.662765
692 1 0.682945 0.738994 0.75048
715 1 0.747228 0.831545 0.752421
694 1 0.91783 0.756843 0.672958
676 1 -0.0105059 0.76756 0.75404
696 1 0.820065 0.761628 0.745772
719 1 0.906258 0.835754 0.751394
698 1 0.0827348 0.917068 0.664298
700 1 1.00056 0.91393 0.753399
701 1 0.170284 0.843265 0.657696
704 1 0.162085 0.91289 0.74948
846 1 0.248971 0.919138 0.829339
708 1 0.338981 0.91103 0.750139
725 1 0.178823 0.000188828 0.819428
589 1 0.491475 0.99448 0.678284
706 1 0.418495 0.909731 0.66542
850 1 0.415068 0.9131 0.831559
712 1 0.489174 0.906611 0.750644
849 1 0.331952 0.814394 0.827153
709 1 0.499188 0.82661 0.657038
710 1 0.595998 0.925099 0.672585
591 1 0.591737 0.993608 0.751818
733 1 0.502648 1.00002 0.824384
853 1 0.509793 0.829593 0.83197
854 1 0.594321 0.916832 0.830932
593 1 0.678036 -0.00139703 0.675415
716 1 0.67 0.919755 0.748337
858 1 0.745827 0.924091 0.838145
737 1 0.656802 0.99253 0.855959
599 1 0.91346 0.992196 0.770425
597 1 0.832756 -0.00615162 0.671749
720 1 0.827693 0.918926 0.759441
741 1 0.8344 0.999322 0.841415
862 1 0.921966 0.91942 0.843294
722 1 0.0867586 0.0817962 0.84038
745 1 0.00812723 0.172986 0.837715
2 1 0.079523 0.0898475 0.00776392
724 1 -0.000304585 0.0723613 0.917084
747 1 0.0836015 0.158188 0.912741
726 1 0.26051 0.0997908 0.821117
728 1 0.173294 0.0919098 0.900813
751 1 0.266626 0.162343 0.903518
732 1 0.335106 0.0820491 0.904504
9 1 0.343 -0.00353945 0.0149042
33 1 0.335452 0.17704 0.992029
10 1 0.408382 0.0779343 -0.0017243
755 1 0.409718 0.163842 0.920374
731 1 0.416434 0.993217 0.915161
13 1 0.504229 0.0113904 0.00227476
17 1 0.655384 1.00044 0.00533017
736 1 0.487272 0.0857868 0.921657
14 1 0.593363 0.0878671 0.0218658
735 1 0.56621 -0.01266 0.91594
759 1 0.58361 0.162479 0.914444
740 1 0.660627 0.0764882 0.925306
765 1 0.836005 0.161177 0.831602
763 1 0.755052 0.171506 0.917455
739 1 0.742251 0.0141867 0.917971
22 1 0.918856 0.0913177 1.00663
21 1 0.823353 0.00808951 1.00355
744 1 0.846213 0.0837709 0.917887
767 1 0.920734 0.16764 0.917018
746 1 0.0968834 0.270574 0.826052
769 1 -0.00918074 0.341787 0.825807
25 1 1.0095 0.167392 0.99261
771 1 0.0812069 0.336385 0.906463
752 1 0.162759 0.248974 0.909323
775 1 0.264064 0.340492 0.910556
754 1 0.418316 0.245989 0.83169
756 1 0.350947 0.252876 0.902782
34 1 0.432323 0.259078 -0.00771841
779 1 0.425882 0.347849 0.918437
760 1 0.490586 0.256756 0.914761
37 1 0.503886 0.168298 1.00066
38 1 0.577981 0.250345 0.995719
61 1 0.49646 0.337411 0.000833631
783 1 0.570544 0.338198 0.931916
42 1 0.757339 0.257018 -0.00823289
65 1 0.654314 0.333001 0.0153001
41 1 0.663117 0.180739 1.00054
764 1 0.670093 0.271772 0.915858
762 1 0.764111 0.261596 0.837813
787 1 0.77124 0.340576 0.918357
768 1 0.848565 0.251823 0.906714
766 1 0.923188 0.265238 0.835042
748 1 0.00401353 0.259198 0.913426
46 1 0.925153 0.245517 1.00093
791 1 0.914521 0.343938 0.914423
770 1 0.0940987 0.417431 0.823059
795 1 0.0853203 0.507433 0.922773
776 1 0.176172 0.417579 0.919967
772 1 1.01238 0.418076 0.911936
793 1 -0.00379427 0.499384 0.833736
54 1 0.260292 0.410201 -0.0102544
774 1 0.251005 0.425313 0.815672
799 1 0.253962 0.497503 0.91985
780 1 0.338446 0.425324 0.914061
784 1 0.504538 0.423931 0.922287
781 1 0.505948 0.346515 0.836186
785 1 0.666927 0.321203 0.823336
62 1 0.586833 0.428075 0.0159679
782 1 0.599319 0.41892 0.841333
788 1 0.670958 0.406656 0.9322
807 1 0.579283 0.500114 0.912831
66 1 0.743106 0.418512 0.0131734
786 1 0.738281 0.400916 0.841521
792 1 0.839585 0.431286 0.92512
790 1 0.919313 0.420168 0.822819
815 1 0.913537 0.497184 0.90902
74 1 0.0807539 0.592917 0.991232
794 1 0.0945819 0.582275 0.838272
819 1 0.103114 0.673365 0.919689
101 1 0.177038 0.659757 0.00958969
821 1 0.168099 0.669976 0.834575
798 1 0.245866 0.576971 0.849971
801 1 0.325175 0.496174 0.818657
81 1 0.334065 0.502691 0.0104676
800 1 0.168508 0.575152 0.925514
78 1 0.24994 0.575781 0.00912202
804 1 0.33179 0.571983 0.915718
802 1 0.412949 0.566439 0.828354
803 1 0.421891 0.495932 0.919326
805 1 0.503183 0.510528 0.844117
808 1 0.491391 0.589062 0.907812
829 1 0.507326 0.679224 0.830955
827 1 0.412192 0.65428 0.915104
113 1 0.670944 0.669787 0.00391833
806 1 0.584351 0.585418 0.833815
812 1 0.673009 0.580516 0.924859
809 1 0.661854 0.501375 0.852577
837 1 0.832701 0.657417 0.844761
811 1 0.750741 0.48274 0.91027
835 1 0.738386 0.668506 0.925971
94 1 0.927052 0.571194 0.999262
796 1 0.99407 0.57295 0.909315
816 1 0.841092 0.582831 0.918323
839 1 0.916401 0.678817 0.907365
97 1 0.00266771 0.66297 0.978455
98 1 0.0908998 0.73698 -0.00552326
121 1 0.992262 0.816569 1.0019
125 1 0.161083 0.829999 0.00398074
818 1 0.0842167 0.766255 0.841722
824 1 0.174576 0.746989 0.916101
845 1 0.165735 0.838161 0.83382
823 1 0.254011 0.664051 0.922658
822 1 0.249722 0.739629 0.819368
102 1 0.247625 0.752455 0.0136273
847 1 0.249693 0.820962 0.897147
106 1 0.401378 0.741471 0.000222736
109 1 0.523104 0.67089 1.00356
825 1 0.340439 0.671482 0.841888
826 1 0.417029 0.749653 0.827492
828 1 0.32858 0.754463 0.920479
830 1 0.603639 0.744486 0.833226
831 1 0.585083 0.661026 0.911843
832 1 0.527524 0.755197 0.913085
110 1 0.598395 0.749851 0.00996464
855 1 0.591926 0.844755 0.933903
857 1 0.665404 0.838385 0.826779
836 1 0.676461 0.768783 0.929262
834 1 0.757038 0.747193 0.842881
840 1 0.831129 0.753016 0.930217
141 1 0.830206 0.85497 0.00126655
838 1 0.907364 0.756214 0.839148
820 1 -0.000425471 0.758828 0.915604
841 1 0.00750463 0.85227 0.844028
863 1 0.920086 0.830686 0.921323
861 1 0.828882 0.825009 0.831639
842 1 0.0917457 0.923486 0.827524
723 1 0.0929708 -0.00702144 0.937297
843 1 0.0797388 0.838907 0.923228
844 1 0.00455713 0.927808 0.918841
721 1 0.00879174 1.00252 0.838388
5 1 0.180222 0.00803842 0.998615
727 1 0.256715 1.00334 0.899656
848 1 0.168837 0.918708 0.905241
852 1 0.323095 0.907677 0.895307
129 1 0.329249 0.843401 1.00519
851 1 0.426011 0.815544 0.922712
130 1 0.405456 0.9181 1.002
856 1 0.488166 0.910933 0.911975
860 1 0.669782 0.911252 0.920462
859 1 0.760539 0.835655 0.927115
142 1 0.90559 0.928825 -0.00234689
1 1 -0.00384778 1.0024 0.00999025
743 1 0.922155 0.000677136 0.926176
864 1 0.827293 0.916493 0.911192
