ITEM: TIMESTEP
8500
ITEM: NUMBER OF ATOMS
864
ITEM: BOX BOUNDS pp pp pp
0.0000000000000000e+00 3.1559999999999999e+01
0.0000000000000000e+00 3.1559999999999999e+01
0.0000000000000000e+00 3.1559999999999999e+01
ITEM: ATOMS id type xs ys zs
74 1 0.0797345 0.0767525 0.168543
27 1 0.0837619 0.171049 0.103275
216 1 0.840477 0.425725 0.409295
8 1 0.159064 0.0937632 0.0987415
145 1 0.997058 0.00594637 0.332551
521 1 0.652649 0.49639 0.150005
12 1 0.338249 0.091096 0.0980298
16 1 0.48354 0.0892888 0.0813408
505 1 0.98724 0.499358 0.175457
11 1 0.402835 0.00339419 0.0885131
222 1 0.240689 0.0837466 0.494265
20 1 0.65467 0.0987646 0.0925474
86 1 0.571484 0.0935451 0.169546
113 1 0.672218 0.178153 0.168277
15 1 0.577658 0.0216466 0.0933841
24 1 0.828033 0.0894183 0.0866548
19 1 0.737711 0.00466236 0.0776391
25 1 0.00604968 0.166925 0.00820787
4 1 0.000872262 0.100733 0.0917043
254 1 0.5831 0.249256 0.493644
47 1 0.909694 0.169537 0.0730374
97 1 0.992761 0.177703 0.170551
32 1 0.15901 0.252391 0.0806414
51 1 0.0793197 0.34568 0.0970301
98 1 0.0949852 0.253046 0.176087
10 1 0.395878 0.0875228 0.00637199
26 1 0.0711204 0.249326 0.00265581
31 1 0.247537 0.173924 0.0856794
36 1 0.332093 0.270069 0.0792468
50 1 0.0833798 0.421762 0.00910126
591 1 0.588863 0.497637 0.418499
29 1 0.150971 0.162569 0.00177656
35 1 0.400516 0.184964 0.0822193
40 1 0.483361 0.257335 0.07896
39 1 0.580381 0.184057 0.092861
44 1 0.658797 0.270367 0.0826474
49 1 0.0012632 0.327623 0.0252023
439 1 0.255613 0.494716 0.0842129
43 1 0.732929 0.172274 0.0870358
114 1 0.742637 0.263318 0.165377
67 1 0.745456 0.354312 0.0921443
211 1 0.74934 0.3345 0.41117
28 1 0.988931 0.248086 0.0935461
48 1 0.810115 0.263875 0.0851241
71 1 0.899781 0.326463 0.0881033
118 1 0.896973 0.237143 0.156907
56 1 0.169491 0.412142 0.087836
207 1 0.579419 0.348105 0.426324
209 1 0.672406 0.3326 0.326002
55 1 0.247356 0.33264 0.0930378
60 1 0.334073 0.413266 0.0852395
126 1 0.238396 0.427147 0.173728
151 1 0.258927 0.00114393 0.410723
59 1 0.420202 0.340438 0.0721783
212 1 0.66733 0.409534 0.400552
6 1 0.242243 0.0752493 0.0266609
435 1 0.0708261 0.491345 0.0985136
46 1 0.920977 0.257664 0.0104214
64 1 0.500145 0.428679 0.091126
63 1 0.567818 0.328847 0.0815549
68 1 0.661689 0.413564 0.0665105
72 1 0.840971 0.421159 0.0846012
141 1 0.829243 0.340614 0.166886
282 1 0.743664 0.407046 0.493316
52 1 0.993678 0.42512 0.0852232
142 1 0.908339 0.421519 0.165474
85 1 0.492766 0.00950179 0.169667
23 1 0.895077 0.00997435 0.082264
146 1 0.0739211 0.1064 0.343415
78 1 0.25863 0.078948 0.169236
157 1 0.503946 0.00890227 0.346589
167 1 0.907198 0.00429867 0.426328
258 1 0.756237 0.250586 0.484335
80 1 0.159754 0.0909792 0.245683
84 1 0.334439 0.0942222 0.257015
149 1 0.176592 0.0206643 0.336735
82 1 0.412295 0.0882022 0.181068
107 1 0.419852 0.175103 0.250787
154 1 0.419564 0.0991264 0.340978
89 1 0.656128 0.00843494 0.162219
2 1 0.076416 0.0850893 0.000639445
88 1 0.487936 0.0910972 0.264354
185 1 0.649449 0.175345 0.341025
90 1 0.735809 0.0842557 0.164391
92 1 0.662929 0.0766681 0.247331
96 1 0.82316 0.0887509 0.238111
91 1 0.751029 0.00505467 0.24732
94 1 0.919211 0.0933887 0.177494
93 1 0.833761 0.00547717 0.167818
76 1 0.995589 0.0960618 0.255978
83 1 0.422135 0.00934155 0.254494
166 1 0.907302 0.0857961 0.330949
101 1 0.167586 0.179306 0.164343
173 1 0.164748 0.167679 0.33711
99 1 0.0763412 0.181003 0.25803
170 1 0.0902325 0.259392 0.3481
129 1 0.327705 0.343559 0.18677
103 1 0.257351 0.183151 0.248934
104 1 0.1681 0.257254 0.264588
102 1 0.248974 0.263618 0.17851
108 1 0.337104 0.265345 0.260043
125 1 0.170896 0.336911 0.168975
127 1 0.238655 0.346374 0.263912
105 1 0.330593 0.180791 0.16605
109 1 0.484525 0.181352 0.160978
106 1 0.418524 0.26444 0.174219
133 1 0.493541 0.34618 0.172392
181 1 0.497533 0.173742 0.348282
112 1 0.497066 0.257763 0.261913
111 1 0.572402 0.168644 0.254602
110 1 0.570563 0.267229 0.176616
117 1 0.808625 0.174945 0.159018
115 1 0.744102 0.167927 0.247766
116 1 0.654805 0.252784 0.246282
119 1 0.914268 0.170793 0.251835
120 1 0.830994 0.246303 0.24845
100 1 0.984029 0.264851 0.247008
189 1 0.848796 0.18186 0.331604
193 1 0.0100802 0.338572 0.329939
190 1 0.926472 0.262056 0.335726
123 1 0.0851522 0.334905 0.256263
121 1 0.982591 0.337395 0.162004
122 1 0.0708734 0.416088 0.19397
194 1 0.0858006 0.410009 0.358073
128 1 0.156331 0.430568 0.263035
124 1 0.986529 0.406034 0.267736
197 1 0.166532 0.340188 0.345507
147 1 0.07077 0.00974383 0.415381
132 1 0.327781 0.42815 0.247967
203 1 0.413673 0.338403 0.438997
130 1 0.408933 0.412489 0.172984
131 1 0.419239 0.343506 0.260558
79 1 0.24039 0.0226146 0.261866
509 1 0.149316 0.49692 0.184725
30 1 0.234835 0.2539 0.0146578
134 1 0.583806 0.420961 0.160757
137 1 0.671683 0.353564 0.17995
136 1 0.502464 0.433656 0.257719
135 1 0.582665 0.337811 0.248096
140 1 0.67032 0.431959 0.245011
139 1 0.756376 0.333933 0.240268
138 1 0.756095 0.4245 0.173244
210 1 0.74592 0.414867 0.324352
213 1 0.827304 0.322533 0.323999
144 1 0.830322 0.429139 0.258093
143 1 0.902385 0.320665 0.239541
257 1 0.680473 0.161332 0.489299
152 1 0.171451 0.092146 0.413665
169 1 0.992712 0.169258 0.340124
171 1 0.0847188 0.178402 0.421038
18 1 0.738524 0.0901382 0.0099102
41 1 0.662846 0.179617 0.0117414
451 1 0.752106 0.475382 0.0779839
150 1 0.258497 0.091181 0.347923
156 1 0.338196 0.0788575 0.409044
177 1 0.33923 0.180792 0.344885
70 1 0.923797 0.407035 0.0113838
22 1 0.925146 0.0873512 0.000889448
179 1 0.412285 0.168887 0.434133
160 1 0.506762 0.0820606 0.438976
87 1 0.568592 0.0127321 0.261396
5 1 0.150421 0.00339589 0.00360557
13 1 0.480124 0.0166873 0.0134278
221 1 0.14631 0.00813943 0.498498
249 1 0.320564 0.167371 0.492387
158 1 0.576854 0.0908522 0.339902
164 1 0.667528 0.0817537 0.422546
161 1 0.664835 0.01103 0.329716
206 1 0.59068 0.425984 0.317169
162 1 0.756588 0.0804251 0.337158
168 1 0.833262 0.0904693 0.415052
208 1 0.499527 0.414631 0.432859
3 1 0.069864 0.000411222 0.0920059
285 1 0.838064 0.335535 0.479934
159 1 0.586569 0.0136071 0.421357
148 1 0.98729 0.0861729 0.416471
176 1 0.174845 0.251929 0.425796
195 1 0.0832559 0.33544 0.432391
595 1 0.7513 0.498378 0.426834
201 1 0.334718 0.353607 0.353268
174 1 0.245032 0.273555 0.331536
175 1 0.247788 0.183943 0.418325
180 1 0.322746 0.259091 0.421015
199 1 0.24622 0.349526 0.427443
215 1 0.923141 0.346332 0.400769
178 1 0.42661 0.259755 0.356895
205 1 0.504799 0.350725 0.340126
184 1 0.498816 0.264676 0.426957
182 1 0.571999 0.25589 0.341965
183 1 0.58126 0.165583 0.42813
73 1 0.989678 0.0126624 0.186911
188 1 0.669432 0.257518 0.413229
186 1 0.738622 0.247247 0.329371
187 1 0.745857 0.166606 0.40974
191 1 0.913071 0.168977 0.423559
192 1 0.850837 0.261193 0.413939
172 1 0.996919 0.258723 0.431671
1 1 0.99205 0.00627784 0.0161976
202 1 0.417596 0.4206 0.343652
214 1 0.907758 0.42077 0.329023
196 1 0.00717938 0.435474 0.425645
200 1 0.165068 0.415551 0.426482
198 1 0.256726 0.428859 0.33264
204 1 0.344874 0.42537 0.434819
593 1 0.670377 0.497408 0.337499
75 1 0.0847098 0.0191364 0.261939
507 1 0.0710266 0.498277 0.261371
77 1 0.1587 0.00296248 0.174061
17 1 0.645669 0.0120105 0.0128476
14 1 0.561189 0.0902676 0.0122868
62 1 0.578364 0.427137 0.0114544
583 1 0.250609 0.498797 0.412341
581 1 0.168178 0.489146 0.352045
220 1 0.978345 0.0858907 0.598049
290 1 0.0889296 0.0800304 0.679895
219 1 0.0767397 0.0131757 0.593723
224 1 0.162718 0.0867555 0.586118
294 1 0.240411 0.0846517 0.673666
278 1 0.590995 0.417522 0.508267
419 1 0.408406 0.337819 0.91151
428 1 0.659469 0.416548 0.911001
228 1 0.338417 0.0827896 0.573119
430 1 0.926176 0.399065 0.836116
238 1 0.923016 0.0778056 0.502333
232 1 0.504446 0.0792691 0.57771
270 1 0.265251 0.440695 0.506613
236 1 0.651041 0.092423 0.596889
286 1 0.928294 0.430687 0.504253
329 1 0.660944 0.158815 0.67788
262 1 0.905473 0.256052 0.510288
240 1 0.840169 0.084776 0.589801
297 1 0.33527 0.00658533 0.671065
243 1 0.0812551 0.177057 0.593398
244 1 0.994343 0.260777 0.588977
242 1 0.076112 0.239958 0.50573
247 1 0.258367 0.159922 0.574125
248 1 0.170631 0.250037 0.593719
252 1 0.335382 0.249328 0.584365
325 1 0.503112 0.155781 0.666548
251 1 0.422496 0.163757 0.58824
322 1 0.410669 0.252486 0.670099
371 1 0.406521 0.00766888 0.923024
412 1 0.00260313 0.402983 0.928007
256 1 0.494554 0.249625 0.587196
255 1 0.575839 0.174788 0.584762
260 1 0.669209 0.233769 0.581466
453 1 0.848672 0.499631 0.990414
326 1 0.573308 0.230382 0.674238
223 1 0.254295 0.0033002 0.58648
259 1 0.755059 0.15864 0.589136
283 1 0.752848 0.32733 0.575891
265 1 0.989712 0.343224 0.501593
293 1 0.166478 0.0069812 0.666339
369 1 0.345336 0.00905636 0.824202
333 1 0.835377 0.152236 0.678854
263 1 0.909505 0.175964 0.590926
264 1 0.815982 0.242896 0.571713
267 1 0.072131 0.337798 0.573634
268 1 0.0119518 0.426373 0.590125
338 1 0.0878056 0.4254 0.688055
272 1 0.186542 0.428154 0.570692
269 1 0.173694 0.336276 0.515667
37 1 0.493861 0.168707 0.995664
291 1 0.0940984 0.00957487 0.754525
271 1 0.249869 0.338084 0.599043
273 1 0.326791 0.348481 0.521561
342 1 0.253114 0.430619 0.679026
276 1 0.32709 0.442659 0.586422
275 1 0.42215 0.341769 0.604171
345 1 0.324806 0.339951 0.672944
346 1 0.400885 0.415522 0.677032
349 1 0.515593 0.335732 0.684268
226 1 0.416493 0.0847077 0.500435
280 1 0.50595 0.414513 0.588354
279 1 0.597715 0.318403 0.593528
350 1 0.587542 0.41011 0.663562
721 1 0.00179033 0.498815 0.666063
284 1 0.684018 0.41213 0.609354
354 1 0.76816 0.413076 0.672555
353 1 0.679226 0.32244 0.665988
809 1 0.676234 0.483512 0.820135
288 1 0.833658 0.410279 0.564471
287 1 0.913648 0.344333 0.577979
34 1 0.416898 0.255431 0.997382
277 1 0.518262 0.332521 0.515157
793 1 0.00864612 0.495611 0.842664
424 1 0.508145 0.423287 0.902666
296 1 0.169469 0.0842357 0.755469
319 1 0.23981 0.167573 0.764124
298 1 0.420961 0.0865901 0.662652
300 1 0.321013 0.0820649 0.753009
323 1 0.417765 0.166522 0.753671
304 1 0.491383 0.0856737 0.746606
302 1 0.577621 0.0789721 0.671422
811 1 0.757881 0.498101 0.897999
306 1 0.744723 0.0930274 0.665554
308 1 0.659244 0.0822048 0.765635
312 1 0.828923 0.0749542 0.759331
378 1 0.754448 0.080118 0.848675
217 1 0.00497458 0.00891852 0.500713
401 1 0.653495 0.161602 0.844219
310 1 0.906003 0.0744464 0.676287
292 1 0.0011589 0.0727501 0.742537
66 1 0.743011 0.415896 0.986431
382 1 0.909694 0.0884991 0.836074
314 1 0.0757951 0.26913 0.668046
313 1 0.993555 0.171825 0.665039
337 1 0.998862 0.350881 0.665948
315 1 0.0689505 0.164315 0.734381
316 1 0.00106593 0.256409 0.741113
317 1 0.16429 0.174822 0.677189
320 1 0.155866 0.24994 0.754033
318 1 0.255628 0.236487 0.66533
390 1 0.241579 0.244798 0.836997
413 1 0.161349 0.340868 0.839435
343 1 0.247544 0.322757 0.752439
321 1 0.338011 0.173076 0.668032
324 1 0.328321 0.241867 0.764828
328 1 0.480479 0.256981 0.745314
394 1 0.411155 0.250272 0.83617
397 1 0.486764 0.178537 0.828734
421 1 0.501631 0.343618 0.82841
327 1 0.569271 0.154379 0.756562
332 1 0.673779 0.240097 0.757281
351 1 0.601969 0.317092 0.743811
331 1 0.755092 0.16874 0.75312
330 1 0.749873 0.241362 0.665853
336 1 0.842168 0.234408 0.761724
355 1 0.756736 0.327215 0.743519
405 1 0.836593 0.171136 0.843331
402 1 0.759031 0.25469 0.837378
334 1 0.906375 0.236049 0.674465
335 1 0.925384 0.155314 0.746045
357 1 0.830194 0.32367 0.658648
339 1 0.0849612 0.347281 0.761329
340 1 0.998011 0.436055 0.747515
429 1 0.849829 0.324373 0.832538
341 1 0.159161 0.339678 0.667683
344 1 0.162974 0.430437 0.764552
348 1 0.313191 0.40497 0.762841
414 1 0.2371 0.430528 0.844552
417 1 0.312431 0.331345 0.837428
347 1 0.399271 0.334234 0.757533
352 1 0.505301 0.425934 0.741025
422 1 0.588209 0.40674 0.813435
42 1 0.75814 0.246978 0.98401
805 1 0.507691 0.497624 0.828716
266 1 0.0910508 0.428103 0.511771
426 1 0.746665 0.407574 0.824006
432 1 0.835414 0.412861 0.916562
356 1 0.665594 0.405407 0.743876
358 1 0.896698 0.426377 0.660922
359 1 0.903517 0.329986 0.732209
360 1 0.832212 0.420304 0.760331
362 1 0.0749308 0.0885509 0.828844
387 1 0.0728672 0.158453 0.913625
61 1 0.49961 0.348314 0.981462
366 1 0.240025 0.0865514 0.833787
661 1 0.511801 0.497907 0.503469
368 1 0.15399 0.083665 0.911695
372 1 0.335533 0.0888516 0.918782
250 1 0.415945 0.247574 0.513534
425 1 0.67464 0.32918 0.825625
299 1 0.423388 0.00592787 0.744668
370 1 0.416234 0.0885754 0.827803
376 1 0.480264 0.0890432 0.927305
807 1 0.581804 0.497799 0.917459
281 1 0.665551 0.335189 0.505486
53 1 0.150997 0.34021 0.995828
38 1 0.580914 0.247455 0.980123
374 1 0.567199 0.0957305 0.843646
399 1 0.561866 0.17489 0.906979
441 1 0.330355 0.493524 0.99692
261 1 0.844511 0.157792 0.506146
380 1 0.655987 0.0821878 0.923268
384 1 0.834139 0.0741659 0.922816
245 1 0.155884 0.171801 0.512176
241 1 0.987049 0.172868 0.511963
364 1 0.994098 0.072544 0.923872
407 1 0.919342 0.162801 0.919265
386 1 0.0756 0.237549 0.827395
392 1 0.151704 0.250647 0.908616
365 1 0.160058 0.0110047 0.840283
393 1 0.321439 0.159502 0.835104
389 1 0.163108 0.159213 0.835753
391 1 0.239941 0.16703 0.940025
396 1 0.31421 0.251111 0.91534
395 1 0.395245 0.174161 0.909844
398 1 0.580256 0.251744 0.828449
400 1 0.487803 0.260716 0.910735
404 1 0.677678 0.254622 0.91322
423 1 0.58783 0.331273 0.910216
427 1 0.753013 0.340485 0.909458
735 1 0.585183 0.493214 0.735822
403 1 0.744197 0.159082 0.918521
408 1 0.847019 0.24729 0.922527
303 1 0.579547 0.0163739 0.755077
45 1 0.832611 0.156718 0.988395
431 1 0.924223 0.324066 0.917702
65 1 0.669514 0.328297 0.999393
385 1 0.00160532 0.156539 0.834864
388 1 0.999198 0.237443 0.92706
406 1 0.93411 0.239892 0.841444
58 1 0.413813 0.421532 0.998289
274 1 0.421578 0.406483 0.51912
409 1 0.00492276 0.33655 0.820378
410 1 0.0777534 0.416582 0.848208
289 1 0.00220853 0.00347212 0.66907
237 1 0.830961 0.0121251 0.500867
411 1 0.0699037 0.326476 0.911658
367 1 0.243614 0.0196747 0.935354
21 1 0.811423 0.00550261 0.998512
416 1 0.165361 0.423619 0.915828
415 1 0.235667 0.32377 0.927961
54 1 0.244757 0.414189 0.991508
230 1 0.591154 0.0859536 0.505757
418 1 0.424158 0.419879 0.832196
295 1 0.243637 0.00119589 0.763136
33 1 0.32856 0.182128 0.996536
420 1 0.317203 0.420783 0.909256
671 1 0.927927 0.496175 0.584391
57 1 0.340921 0.331037 0.996774
377 1 0.647453 0.00420185 0.851184
69 1 0.815731 0.335916 0.999902
373 1 0.493794 0.0117807 0.844032
218 1 0.0646671 0.0933909 0.502161
246 1 0.244104 0.249862 0.513414
239 1 0.916136 0.00375861 0.59289
231 1 0.577334 0.00309172 0.585914
375 1 0.565568 0.0083031 0.926269
234 1 0.754192 0.0892146 0.50726
253 1 0.502721 0.167102 0.511528
665 1 0.667243 0.486629 0.504077
227 1 0.405834 0.00698437 0.574073
233 1 0.678445 0.00796961 0.510117
235 1 0.748552 0.0161558 0.597683
361 1 0.00834083 0.00125604 0.840713
440 1 0.146374 0.565704 0.0903394
436 1 0.0125179 0.588265 0.0874357
465 1 0.327276 0.661157 0.00142453
677 1 0.167646 0.661583 0.497923
444 1 0.336632 0.580106 0.0730175
7 1 0.264226 0.995791 0.0939936
467 1 0.410034 0.670207 0.0747137
519 1 0.58751 0.51656 0.254973
644 1 0.657354 0.920442 0.412202
448 1 0.501216 0.591762 0.0919039
452 1 0.67486 0.58444 0.0729837
494 1 0.561688 0.930306 0.000921939
456 1 0.832597 0.598286 0.0784408
475 1 0.740396 0.678915 0.0854384
462 1 0.257565 0.749866 0.0186015
501 1 0.824887 0.81989 0.00832897
526 1 0.916785 0.578666 0.16167
674 1 0.0919006 0.753664 0.498329
459 1 0.0958959 0.670907 0.0971481
464 1 0.169743 0.746698 0.0943145
533 1 0.165421 0.676229 0.179409
477 1 0.838348 0.669482 0.00289273
463 1 0.241098 0.659264 0.0731107
523 1 0.7513 0.512673 0.254418
468 1 0.344809 0.758269 0.091899
472 1 0.504556 0.753869 0.0911697
471 1 0.6011 0.657917 0.0759261
476 1 0.664725 0.754168 0.0834978
495 1 0.580796 0.840686 0.0779786
587 1 0.425672 0.505838 0.414324
569 1 0.647785 0.841361 0.166347
546 1 0.735553 0.754689 0.171276
549 1 0.838553 0.663511 0.159029
460 1 0.00907436 0.755377 0.0614734
479 1 0.927484 0.662586 0.0862186
480 1 0.850059 0.739928 0.0846849
550 1 0.90984 0.741098 0.171206
483 1 0.0766605 0.858384 0.101938
685 1 0.515684 0.656681 0.498993
482 1 0.0859894 0.919894 0.0220319
681 1 0.34399 0.66907 0.494386
487 1 0.264232 0.833276 0.104183
488 1 0.159363 0.930826 0.0953074
558 1 0.25027 0.927267 0.178343
492 1 0.346143 0.906935 0.101179
645 1 0.816169 0.850418 0.326478
490 1 0.409153 0.926929 0.00926186
491 1 0.430587 0.822385 0.0925388
445 1 0.48718 0.503592 0.000804848
562 1 0.421976 0.929241 0.179491
496 1 0.500385 0.919607 0.0904165
566 1 0.575527 0.927247 0.180341
511 1 0.2445 0.505083 0.246519
706 1 0.416608 0.925661 0.498685
499 1 0.733556 0.847095 0.0840394
500 1 0.646787 0.921876 0.0925253
570 1 0.740406 0.933386 0.15607
504 1 0.826695 0.923395 0.0946952
573 1 0.814162 0.834618 0.171242
489 1 0.323691 0.842939 0.00801135
484 1 0.989823 0.928484 0.0908142
503 1 0.91641 0.831069 0.0782361
574 1 0.914393 0.921176 0.161263
698 1 0.0745754 0.918769 0.498303
506 1 0.0786573 0.581441 0.179898
512 1 0.153324 0.597369 0.258948
517 1 0.499707 0.515545 0.180707
9 1 0.331325 0.997734 0.016188
510 1 0.247056 0.577094 0.155144
582 1 0.248495 0.580965 0.333954
516 1 0.335258 0.586788 0.25867
514 1 0.418475 0.582767 0.175217
520 1 0.507468 0.59232 0.252149
539 1 0.428357 0.658891 0.246435
541 1 0.497685 0.679199 0.167707
518 1 0.585517 0.585693 0.167925
466 1 0.422395 0.746959 0.00438092
694 1 0.910075 0.7571 0.498676
522 1 0.74886 0.576619 0.158156
524 1 0.667677 0.582257 0.248292
528 1 0.832522 0.585842 0.245972
545 1 0.676884 0.654156 0.172476
225 1 0.320612 0.997043 0.489869
508 1 0.990225 0.585665 0.251993
598 1 0.910447 0.59047 0.32399
527 1 0.911713 0.500165 0.255136
530 1 0.0798633 0.752894 0.160428
531 1 0.069468 0.681453 0.247385
602 1 0.0726355 0.750469 0.33553
534 1 0.250623 0.742692 0.169132
535 1 0.252793 0.664101 0.251526
536 1 0.140562 0.76193 0.253044
540 1 0.323909 0.747844 0.24798
537 1 0.336818 0.660977 0.168349
538 1 0.409924 0.748844 0.176373
544 1 0.511493 0.741744 0.244242
610 1 0.421441 0.728841 0.32398
543 1 0.605019 0.669 0.249663
542 1 0.593407 0.743481 0.171916
548 1 0.664708 0.752966 0.261212
614 1 0.577911 0.748015 0.33121
547 1 0.749898 0.672549 0.25813
552 1 0.824921 0.751548 0.251919
617 1 0.670191 0.663481 0.336777
618 1 0.745312 0.746048 0.339429
601 1 0.985418 0.667826 0.335596
529 1 0.997781 0.672171 0.168463
532 1 0.99227 0.751864 0.24848
551 1 0.910403 0.66372 0.239546
709 1 0.492776 0.839416 0.488695
554 1 0.0790975 0.930064 0.173948
553 1 0.985642 0.838308 0.167607
555 1 0.0719181 0.836259 0.258264
626 1 0.0711042 0.920936 0.341012
557 1 0.163308 0.840669 0.16883
561 1 0.350959 0.835372 0.179873
560 1 0.156812 0.925042 0.249158
559 1 0.246571 0.82963 0.23569
564 1 0.341434 0.921132 0.255039
647 1 0.911063 0.84166 0.433607
563 1 0.443399 0.827993 0.255015
565 1 0.509732 0.840612 0.16796
567 1 0.589203 0.835494 0.252119
568 1 0.502575 0.92479 0.25321
513 1 0.335501 0.504365 0.164383
637 1 0.517698 0.834211 0.330708
641 1 0.6635 0.83928 0.338134
638 1 0.582509 0.922597 0.329783
572 1 0.659516 0.939348 0.242907
571 1 0.725827 0.843438 0.237113
576 1 0.822187 0.917191 0.24889
642 1 0.731455 0.932771 0.31974
473 1 0.675851 0.673218 0.00282848
625 1 0.0064593 0.841246 0.339942
575 1 0.901598 0.840086 0.24434
556 1 0.999638 0.927964 0.249923
646 1 0.932256 0.912128 0.343806
163 1 0.741935 0.992787 0.410305
579 1 0.0882436 0.514293 0.422222
578 1 0.0673143 0.598889 0.342509
580 1 0.98148 0.614362 0.430931
470 1 0.577635 0.739975 0.00438377
481 1 0.000571135 0.851832 0.00533848
434 1 0.0853022 0.587354 0.00323031
597 1 0.834852 0.518234 0.336624
584 1 0.171654 0.596363 0.408682
607 1 0.250855 0.673815 0.424784
588 1 0.349521 0.592016 0.424949
586 1 0.413991 0.589497 0.33601
592 1 0.509607 0.574275 0.414333
577 1 0.987229 0.509099 0.332166
433 1 0.00784247 0.501117 0.00936227
590 1 0.58049 0.590735 0.329466
596 1 0.670703 0.570101 0.416721
717 1 0.819621 0.829312 0.493704
594 1 0.739544 0.591001 0.336454
585 1 0.344034 0.502037 0.346169
455 1 0.919197 0.510116 0.0758965
589 1 0.503431 0.503717 0.332592
599 1 0.923307 0.514932 0.429634
648 1 0.835514 0.914759 0.420088
600 1 0.82723 0.596036 0.437537
603 1 0.0779861 0.651493 0.437845
165 1 0.835184 0.993941 0.337848
95 1 0.910911 0.983855 0.256068
605 1 0.169038 0.679873 0.328454
606 1 0.255784 0.76286 0.328818
608 1 0.171675 0.749219 0.423708
612 1 0.335491 0.740226 0.417203
613 1 0.506896 0.666747 0.341528
609 1 0.327248 0.66411 0.333221
611 1 0.428882 0.670568 0.423879
486 1 0.240922 0.931918 0.00618084
502 1 0.906651 0.932762 0.0162418
615 1 0.594401 0.662949 0.418843
616 1 0.481515 0.763432 0.409319
619 1 0.743809 0.670591 0.419014
620 1 0.667737 0.746297 0.415635
447 1 0.575009 0.513167 0.0822484
622 1 0.908175 0.770085 0.340428
623 1 0.893624 0.676516 0.425146
621 1 0.838051 0.665443 0.332967
624 1 0.820877 0.767389 0.413626
604 1 0.98719 0.746175 0.417522
493 1 0.50367 0.834835 0.00684763
662 1 0.587069 0.576165 0.493777
629 1 0.173033 0.833637 0.346224
628 1 0.994763 0.921176 0.428639
632 1 0.167247 0.928359 0.399231
627 1 0.0686248 0.842168 0.420133
654 1 0.255134 0.584461 0.498134
631 1 0.248725 0.834612 0.431737
630 1 0.260316 0.925474 0.335829
636 1 0.322786 0.914074 0.420333
437 1 0.166781 0.500778 0.00862187
633 1 0.324391 0.836394 0.344411
634 1 0.428653 0.915245 0.329761
635 1 0.404996 0.840074 0.413738
640 1 0.514444 0.904154 0.419058
81 1 0.338027 0.9967 0.172424
515 1 0.412895 0.501589 0.250821
639 1 0.597985 0.8211 0.41918
643 1 0.748417 0.845411 0.415086
485 1 0.170153 0.842976 0.0231548
443 1 0.409164 0.504123 0.0849419
153 1 0.344472 0.998434 0.327851
155 1 0.41451 0.993166 0.418068
653 1 0.168968 0.509193 0.487522
449 1 0.669727 0.504265 0.00493158
469 1 0.504569 0.671039 0.00851704
525 1 0.828435 0.504955 0.154175
458 1 0.0978153 0.740905 0.997151
725 1 0.17666 0.509188 0.680583
656 1 0.17705 0.579502 0.591915
726 1 0.256292 0.593774 0.681218
457 1 0.00748642 0.671906 0.986974
663 1 0.589273 0.516417 0.593958
655 1 0.25868 0.520371 0.589626
660 1 0.354644 0.589058 0.581456
730 1 0.416353 0.596246 0.677129
682 1 0.435435 0.747528 0.507414
438 1 0.255049 0.576853 0.988174
664 1 0.501834 0.586525 0.592817
668 1 0.673109 0.585416 0.59403
761 1 0.658876 0.660713 0.671061
757 1 0.499257 0.67766 0.674279
381 1 0.828173 0.993227 0.840982
651 1 0.0903247 0.50627 0.606444
738 1 0.753764 0.59511 0.67158
697 1 0.997958 0.838088 0.508379
705 1 0.344594 0.830723 0.504658
844 1 0.996374 0.917819 0.924544
652 1 0.00420457 0.614599 0.582876
672 1 0.822628 0.601031 0.58167
801 1 0.338303 0.503329 0.839042
718 1 0.915308 0.921932 0.505259
675 1 0.0873481 0.686972 0.587612
676 1 0.995582 0.762135 0.586189
746 1 0.114172 0.752896 0.68154
862 1 0.916577 0.910769 0.837234
680 1 0.192757 0.73638 0.582171
679 1 0.264114 0.65539 0.57214
703 1 0.246117 0.845474 0.576318
684 1 0.342105 0.748209 0.589007
683 1 0.427709 0.663257 0.585655
707 1 0.408718 0.828535 0.589951
713 1 0.661596 0.846028 0.501813
687 1 0.576507 0.678915 0.587974
688 1 0.507288 0.774889 0.590833
692 1 0.648588 0.769604 0.59384
813 1 0.84456 0.509503 0.836016
781 1 0.497415 0.834897 0.681932
691 1 0.741131 0.675712 0.583624
715 1 0.730232 0.834519 0.584672
695 1 0.90822 0.677472 0.595659
696 1 0.813472 0.76881 0.579882
769 1 0.00207631 0.817592 0.67466
714 1 0.754405 0.919547 0.506594
699 1 0.0832552 0.842803 0.593845
700 1 0.00174808 0.937246 0.579238
704 1 0.150522 0.928591 0.587567
708 1 0.336478 0.918173 0.568868
669 1 0.844098 0.5074 0.505158
712 1 0.490619 0.92318 0.57324
711 1 0.5774 0.858556 0.569849
782 1 0.577434 0.922089 0.664853
716 1 0.66283 0.93563 0.574876
710 1 0.580128 0.939808 0.500576
785 1 0.646388 0.844512 0.680258
720 1 0.833654 0.934903 0.58244
799 1 0.260035 0.506666 0.916224
795 1 0.0758674 0.506781 0.922275
789 1 0.827584 0.842426 0.675933
719 1 0.900362 0.832919 0.569828
790 1 0.918884 0.916028 0.66083
454 1 0.930981 0.588648 0.995793
722 1 0.0888063 0.593007 0.67652
745 1 0.00374642 0.691048 0.669721
724 1 0.00457933 0.591458 0.746711
229 1 0.496147 0.999166 0.504328
728 1 0.161706 0.587806 0.754877
751 1 0.250354 0.664834 0.751882
670 1 0.918049 0.605523 0.515148
732 1 0.345166 0.593351 0.744577
755 1 0.408148 0.671678 0.760942
734 1 0.585205 0.5875 0.676632
736 1 0.496477 0.584148 0.750429
650 1 0.0897412 0.584675 0.524574
740 1 0.663647 0.584338 0.751625
763 1 0.742746 0.671848 0.753238
744 1 0.844811 0.590615 0.747175
863 1 0.915596 0.832977 0.91824
731 1 0.410746 0.505467 0.751674
742 1 0.91921 0.592793 0.650001
814 1 0.921652 0.598235 0.83927
797 1 0.163495 0.50984 0.832931
817 1 0.00580571 0.666647 0.829451
747 1 0.0870655 0.678855 0.757494
748 1 0.026615 0.769209 0.753165
749 1 0.168382 0.664899 0.689505
752 1 0.170502 0.756305 0.775495
750 1 0.246827 0.756506 0.678355
773 1 0.174777 0.848231 0.666843
775 1 0.239353 0.844579 0.749361
753 1 0.334519 0.671938 0.671511
756 1 0.331528 0.757484 0.743586
754 1 0.415877 0.760759 0.684595
779 1 0.416153 0.831469 0.757779
758 1 0.578617 0.758744 0.676022
759 1 0.581115 0.654975 0.761151
760 1 0.50644 0.757059 0.756338
764 1 0.66536 0.744655 0.761475
762 1 0.736486 0.761438 0.67264
768 1 0.825153 0.756303 0.747303
765 1 0.826288 0.678497 0.663158
766 1 0.905069 0.764977 0.662125
767 1 0.931416 0.669167 0.737127
771 1 0.0920407 0.854384 0.754123
770 1 0.0758949 0.925995 0.669277
842 1 0.0937051 0.926314 0.838609
841 1 0.993707 0.832814 0.84232
774 1 0.260717 0.91724 0.658193
776 1 0.173928 0.932193 0.758651
780 1 0.336166 0.91524 0.758243
803 1 0.421909 0.503769 0.9131
778 1 0.411734 0.918 0.663882
777 1 0.321953 0.830132 0.65846
739 1 0.762699 0.51628 0.751081
784 1 0.502734 0.932007 0.750688
783 1 0.573977 0.85101 0.767913
788 1 0.656608 0.921498 0.766579
701 1 0.165874 0.82508 0.515382
309 1 0.830148 0.991108 0.675903
786 1 0.739916 0.921508 0.660395
787 1 0.728638 0.843945 0.753009
858 1 0.748423 0.921627 0.828682
791 1 0.921816 0.83655 0.745487
772 1 0.0126296 0.927027 0.764429
792 1 0.838066 0.914414 0.756205
743 1 0.916327 0.500349 0.755375
794 1 0.0798538 0.595207 0.835735
798 1 0.252053 0.592074 0.847573
800 1 0.157004 0.582415 0.92388
823 1 0.250669 0.673223 0.917027
301 1 0.505663 0.998402 0.66907
825 1 0.335578 0.671029 0.840652
804 1 0.340223 0.57687 0.92029
802 1 0.418148 0.586511 0.819287
829 1 0.50466 0.667305 0.839147
478 1 0.911024 0.746736 0.997272
806 1 0.590982 0.565165 0.82605
833 1 0.650034 0.664648 0.831562
808 1 0.501704 0.583149 0.911662
812 1 0.681066 0.56428 0.912238
727 1 0.249739 0.506027 0.767022
835 1 0.738371 0.654892 0.913512
474 1 0.752019 0.74517 0.980189
741 1 0.83564 0.524386 0.651333
810 1 0.74646 0.593658 0.83319
816 1 0.838689 0.593081 0.91611
461 1 0.168237 0.678171 0.988774
815 1 0.922064 0.50094 0.919014
649 1 0.996444 0.530187 0.518421
796 1 0.0060862 0.584077 0.913777
666 1 0.739785 0.581655 0.51211
737 1 0.683754 0.505141 0.670781
818 1 0.0866835 0.775357 0.848383
819 1 0.0849449 0.672934 0.909333
821 1 0.179042 0.671843 0.847032
311 1 0.925663 0.997814 0.752834
824 1 0.164346 0.774117 0.921469
822 1 0.263109 0.755827 0.823188
827 1 0.424039 0.663019 0.922641
828 1 0.337786 0.74044 0.927644
826 1 0.412038 0.749166 0.838009
832 1 0.502548 0.75028 0.927834
857 1 0.658362 0.832104 0.853199
723 1 0.0814515 0.513161 0.759364
446 1 0.591636 0.585168 0.98923
830 1 0.583987 0.754272 0.829409
831 1 0.582932 0.658247 0.916076
859 1 0.758973 0.840397 0.907238
834 1 0.746002 0.745471 0.848878
837 1 0.83309 0.682043 0.826422
840 1 0.837675 0.750595 0.918341
836 1 0.662939 0.73981 0.911569
839 1 0.925898 0.682476 0.902776
838 1 0.923958 0.746002 0.80914
820 1 0.00556097 0.769263 0.926386
442 1 0.413808 0.586733 0.996587
379 1 0.732115 0.98613 0.917612
848 1 0.180469 0.925832 0.923455
845 1 0.173923 0.840827 0.844424
843 1 0.0878433 0.847455 0.932306
678 1 0.261164 0.75326 0.506031
846 1 0.259568 0.921153 0.847952
847 1 0.246347 0.820891 0.928267
851 1 0.422588 0.822106 0.926161
853 1 0.487413 0.828545 0.839085
849 1 0.337009 0.836784 0.863759
850 1 0.415598 0.920539 0.832824
450 1 0.753039 0.58179 0.992659
852 1 0.326604 0.929713 0.928572
860 1 0.645288 0.922446 0.931244
498 1 0.75226 0.918731 0.996864
854 1 0.568932 0.921164 0.857402
855 1 0.57876 0.841236 0.927408
856 1 0.47146 0.923045 0.921069
729 1 0.33652 0.513913 0.666629
383 1 0.916977 0.993112 0.919402
864 1 0.836558 0.912972 0.930295
673 1 0.995641 0.692502 0.511104
693 1 0.812553 0.692744 0.502576
861 1 0.839646 0.823373 0.817
363 1 0.0593051 0.994296 0.928846
686 1 0.570478 0.745986 0.501328
307 1 0.74909 0.995465 0.73627
497 1 0.660705 0.84528 0.999477
667 1 0.758905 0.503723 0.581428
690 1 0.732483 0.76129 0.503644
733 1 0.495899 0.504359 0.6674
657 1 0.358656 0.503001 0.502502
658 1 0.432148 0.591489 0.505082
305 1 0.658056 0.992447 0.665464
689 1 0.652509 0.672344 0.50193
702 1 0.23978 0.924579 0.500169
659 1 0.42318 0.500107 0.603785
