ITEM: TIMESTEP
1750
ITEM: NUMBER OF ATOMS
864
ITEM: BOX BOUNDS pp pp pp
0.0000000000000000e+00 3.1559999999999999e+01
0.0000000000000000e+00 3.1559999999999999e+01
0.0000000000000000e+00 3.1559999999999999e+01
ITEM: ATOMS id type xs ys zs
2 1 0.086759 0.0915736 0.990024
3 1 0.0764593 0.00559032 0.072281
8 1 0.160645 0.0889853 0.0853626
6 1 0.255146 0.0710199 -0.00487634
7 1 0.245292 -0.0040443 0.0860207
12 1 0.337622 0.0853456 0.089442
31 1 0.254356 0.159821 0.0834201
150 1 0.224601 0.0860762 0.166116
177 1 0.330859 0.163729 0.177532
10 1 0.390423 0.0705488 0.990513
16 1 0.491907 0.0785426 0.0910601
35 1 0.398572 0.171357 0.0887579
37 1 0.480104 0.140458 1.01315
14 1 0.574418 0.0850197 -0.00474013
15 1 0.587524 0.00272871 0.072104
20 1 0.663966 0.0877095 0.0918561
39 1 0.576465 0.155208 0.0854263
19 1 0.751128 0.995174 0.0715913
161 1 0.671626 1.00311 0.154222
162 1 0.751715 0.0796589 0.154221
165 1 0.834845 0.000320541 0.141155
4 1 -0.00299621 0.102495 0.0684194
23 1 0.924643 0.00550422 0.078979
24 1 0.834499 0.0918574 0.0764605
25 1 0.999999 0.173858 0.979865
45 1 0.841823 0.172124 0.999256
145 1 -0.000876148 0.998817 0.165317
27 1 0.0856412 0.176395 0.0757692
29 1 0.164806 0.169136 0.997385
32 1 0.171801 0.249653 0.0723791
49 1 0.994905 0.344478 0.00413568
51 1 0.0829535 0.331894 0.0809358
173 1 0.165663 0.174778 0.158951
30 1 0.253811 0.248909 1.01484
33 1 0.327125 0.16613 1.00467
34 1 0.41429 0.244303 -0.00138106
36 1 0.340528 0.254481 0.0830784
40 1 0.495058 0.248198 0.078168
59 1 0.416914 0.337723 0.0925037
63 1 0.578895 0.335607 0.0696187
42 1 0.741713 0.238194 -0.00551658
43 1 0.754319 0.170376 0.0793225
44 1 0.654468 0.252255 0.0730604
69 1 0.82133 0.324658 1.00569
209 1 0.653438 0.319743 0.170906
28 1 -0.00183013 0.252415 0.0670165
47 1 0.917088 0.182137 0.0730222
48 1 0.833365 0.252109 0.0877239
190 1 0.913657 0.251382 0.158908
52 1 0.018431 0.428501 0.0824562
56 1 0.161015 0.425963 0.0889157
194 1 0.0852104 0.404301 0.170119
55 1 0.261027 0.340344 0.0716297
60 1 0.337604 0.426141 0.0745333
79 1 0.249418 0.490534 0.0861264
198 1 0.25006 0.422553 0.164449
58 1 0.4315 0.417126 0.999244
83 1 0.41639 0.499707 0.0802994
85 1 0.500555 0.506425 0.00632165
229 1 0.487558 0.498261 0.171019
62 1 0.576631 0.425755 0.00953198
64 1 0.499496 0.419239 0.0921498
68 1 0.664983 0.400396 0.080573
87 1 0.572549 0.514347 0.0882185
67 1 0.733658 0.327147 0.0769959
72 1 0.823717 0.406774 0.0901141
89 1 0.655685 0.500661 -0.00372576
91 1 0.744559 0.495164 0.0951303
93 1 0.826214 0.500227 1.0001
237 1 0.82813 0.488233 0.164167
70 1 0.911256 0.420466 0.0117107
71 1 0.908823 0.32733 0.0806555
73 1 0.999577 0.498151 0.00302277
75 1 0.0907405 0.504301 0.0824769
77 1 0.158734 0.505842 -0.00199296
99 1 0.0911005 0.672752 0.0874469
218 1 0.0832844 0.591607 0.177225
221 1 0.164152 0.503337 0.170842
78 1 0.239775 0.574151 1.02098
80 1 0.160625 0.589945 0.0835813
101 1 0.168803 0.6776 0.00511464
103 1 0.257157 0.660327 0.0799089
222 1 0.257751 0.58218 0.161692
249 1 0.341306 0.66562 0.162758
82 1 0.41595 0.587802 0.992767
84 1 0.324821 0.577203 0.0812677
226 1 0.415864 0.58096 0.177395
88 1 0.490279 0.580154 0.086676
92 1 0.667464 0.58536 0.0897383
111 1 0.584298 0.669345 0.0857996
257 1 0.65731 0.673582 0.164257
90 1 0.748524 0.582238 0.0136006
96 1 0.82647 0.584791 0.0877258
115 1 0.74964 0.680119 0.0918151
234 1 0.746472 0.589463 0.167998
76 1 1.005 0.583548 0.0905899
95 1 0.923218 0.488859 0.0952271
238 1 0.918132 0.586928 0.160092
123 1 0.0877168 0.829751 0.0984919
241 1 1.00485 0.678064 0.170478
102 1 0.259077 0.765012 -0.00572687
104 1 0.170483 0.747852 0.099714
108 1 0.332629 0.7494 0.0745404
107 1 0.425581 0.679011 0.0781709
112 1 0.507027 0.751704 0.0917033
253 1 0.487634 0.665921 0.17765
110 1 0.57406 0.738261 0.99381
113 1 0.664582 0.664012 0.0100354
254 1 0.593074 0.765803 0.160391
114 1 0.748266 0.753785 0.00110676
116 1 0.667849 0.760028 0.071053
139 1 0.745961 0.845232 0.0761524
100 1 1.00321 0.747206 0.0965726
119 1 0.914408 0.66797 0.0828826
120 1 0.826192 0.760448 0.0782091
141 1 0.837502 0.818849 -0.00490689
262 1 0.925168 0.759769 0.171689
285 1 0.836668 0.834172 0.155193
128 1 0.164714 0.92318 0.0629885
266 1 0.0725749 0.90594 0.180602
269 1 0.181844 0.827661 0.161879
127 1 0.256727 0.830783 0.086031
132 1 0.328962 0.916947 0.0840422
11 1 0.415774 0.989712 0.0913525
131 1 0.415657 0.820768 0.075043
136 1 0.504188 0.921369 0.0775606
157 1 0.507725 1.0051 0.168585
134 1 0.582586 0.922556 -0.00554743
135 1 0.577803 0.845106 0.0789451
137 1 0.674677 0.838689 0.00225573
278 1 0.584119 0.9264 0.152167
17 1 0.665875 -0.00618985 1.01088
140 1 0.673947 0.921594 0.0813865
144 1 0.836691 0.918272 0.0720676
282 1 0.759742 0.923657 0.157454
124 1 0.0080438 0.916196 0.0841218
142 1 0.921693 0.915606 -0.00774691
143 1 0.926972 0.836206 0.0858166
265 1 0.988164 0.835015 0.174093
286 1 0.908835 0.927038 0.163949
146 1 0.0758652 0.0893824 0.158679
149 1 0.16642 1.00038 0.159767
169 1 -0.00199371 0.181405 0.171998
171 1 0.0870529 0.179138 0.258436
290 1 0.0790774 0.0873096 0.333896
293 1 0.17156 1.00113 0.332481
151 1 0.249856 1.00293 0.255296
152 1 0.159071 0.0802928 0.260491
156 1 0.332387 0.0846719 0.253919
294 1 0.238807 0.0901662 0.331054
154 1 0.428108 0.0923757 0.178275
179 1 0.414759 0.175762 0.251647
298 1 0.426039 0.0710485 0.315102
301 1 0.51113 -0.00600248 0.331473
158 1 0.580851 0.0795925 0.162284
160 1 0.505644 0.0824995 0.252536
164 1 0.67808 0.0784247 0.245393
181 1 0.498798 0.170043 0.164117
183 1 0.578403 0.165003 0.237445
168 1 0.834232 0.0686974 0.238735
189 1 0.842252 0.151521 0.171305
305 1 0.676116 1.00468 0.325536
306 1 0.764034 0.0702909 0.321942
309 1 0.835327 1.00136 0.334821
148 1 0.999457 0.0973995 0.242595
166 1 0.930265 0.0936759 0.148272
167 1 0.929232 -0.00543501 0.246223
310 1 0.906432 0.0825369 0.321858
313 1 0.00251798 0.182648 0.332528
170 1 0.0863678 0.257139 0.173558
176 1 0.165001 0.257579 0.250121
314 1 0.0903496 0.260561 0.34031
317 1 0.170742 0.18131 0.330055
174 1 0.2461 0.251914 0.156059
175 1 0.249413 0.171253 0.240026
180 1 0.329425 0.257043 0.241578
197 1 0.165256 0.33481 0.161178
321 1 0.335518 0.164428 0.328024
341 1 0.159031 0.338606 0.323206
178 1 0.414473 0.254451 0.155266
201 1 0.327729 0.350303 0.158401
203 1 0.413425 0.338742 0.240011
322 1 0.407633 0.260445 0.327153
349 1 0.481622 0.335602 0.341269
182 1 0.575481 0.23892 0.149368
184 1 0.504325 0.252049 0.240493
185 1 0.686617 0.174091 0.162181
205 1 0.496956 0.330462 0.168938
207 1 0.567716 0.33222 0.270057
186 1 0.754858 0.250375 0.156401
187 1 0.764075 0.151457 0.243167
188 1 0.675166 0.245129 0.245924
192 1 0.837212 0.254734 0.251548
333 1 0.836044 0.166308 0.330315
172 1 0.00213252 0.263697 0.241584
191 1 0.921913 0.176816 0.244915
213 1 0.817058 0.327799 0.173744
193 1 0.00560252 0.336232 0.162789
195 1 0.0790755 0.328238 0.250576
200 1 0.159933 0.426804 0.258321
337 1 0.995386 0.326382 0.338513
338 1 0.0677676 0.419155 0.336356
199 1 0.249242 0.343103 0.247253
204 1 0.340493 0.428617 0.238644
223 1 0.260302 0.497991 0.241565
202 1 0.420662 0.422929 0.167723
225 1 0.331706 0.496243 0.156311
345 1 0.317306 0.338476 0.329162
346 1 0.414609 0.426061 0.330006
369 1 0.325921 0.5107 0.332199
206 1 0.566717 0.416651 0.170376
208 1 0.500519 0.43029 0.267122
231 1 0.581886 0.509878 0.249701
350 1 0.582146 0.425784 0.341846
377 1 0.658431 0.506996 0.341583
210 1 0.742305 0.407035 0.163309
211 1 0.740143 0.3292 0.2584
212 1 0.661126 0.419884 0.242987
235 1 0.743739 0.50595 0.238058
196 1 -0.00487956 0.409239 0.253452
214 1 0.919095 0.402574 0.158134
215 1 0.917959 0.3259 0.243227
216 1 0.817523 0.409161 0.254796
217 1 1.00199 0.516499 0.174423
239 1 0.908435 0.496806 0.247071
219 1 0.0786199 0.509254 0.253833
224 1 0.192562 0.578941 0.264615
247 1 0.254222 0.678723 0.256878
366 1 0.251972 0.585276 0.348898
227 1 0.407038 0.512607 0.253392
228 1 0.32605 0.587339 0.260322
251 1 0.40609 0.665779 0.250027
230 1 0.577055 0.59583 0.165169
232 1 0.507026 0.584495 0.258378
373 1 0.488422 0.515885 0.337084
374 1 0.586394 0.587527 0.340193
233 1 0.647616 0.490984 0.159768
236 1 0.658388 0.595371 0.244945
240 1 0.840014 0.582457 0.228639
259 1 0.749473 0.683988 0.24648
378 1 0.751036 0.583001 0.315156
220 1 0.985556 0.580272 0.25552
263 1 0.922562 0.678211 0.260814
382 1 0.917922 0.585707 0.338424
385 1 1.00189 0.668599 0.341588
242 1 0.0858326 0.756162 0.179061
243 1 0.0842807 0.669724 0.254156
245 1 0.179312 0.661376 0.180732
248 1 0.171624 0.748666 0.250217
246 1 0.253872 0.7445 0.168121
252 1 0.338385 0.742216 0.256996
271 1 0.247207 0.832493 0.241701
389 1 0.175069 0.676671 0.342408
250 1 0.426644 0.748689 0.18009
256 1 0.509127 0.750541 0.251579
394 1 0.414417 0.751291 0.328881
255 1 0.575028 0.670427 0.258556
260 1 0.682613 0.764117 0.240579
397 1 0.498059 0.666807 0.33836
398 1 0.588854 0.742745 0.33152
401 1 0.684319 0.662723 0.334415
258 1 0.739632 0.771577 0.156948
264 1 0.840979 0.766349 0.258128
429 1 0.840049 0.847391 0.345972
244 1 0.00387321 0.762579 0.26405
261 1 0.833451 0.692248 0.179066
287 1 0.931281 0.842357 0.273648
405 1 0.829641 0.679054 0.332215
147 1 0.0783044 0.0142099 0.256013
267 1 0.0880134 0.829278 0.256386
272 1 0.172107 0.913349 0.240465
153 1 0.327073 1.01116 0.165699
270 1 0.258079 0.9175 0.165552
273 1 0.33725 0.835247 0.172049
413 1 0.161494 0.81764 0.33705
155 1 0.420827 0.997852 0.242249
274 1 0.412689 0.914685 0.171093
275 1 0.41333 0.825602 0.252029
276 1 0.336652 0.909245 0.256294
277 1 0.496257 0.844525 0.1658
280 1 0.51277 0.92514 0.252222
417 1 0.330293 0.827496 0.339563
159 1 0.592234 1.00711 0.248881
279 1 0.590135 0.836781 0.261488
281 1 0.668819 0.857097 0.169091
422 1 0.599826 0.918922 0.337144
425 1 0.663601 0.824474 0.337185
163 1 0.757983 0.99921 0.245632
283 1 0.769106 0.861172 0.239033
284 1 0.665834 0.930102 0.252426
268 1 0.0127295 0.926297 0.262765
288 1 0.8498 0.92426 0.262611
409 1 0.00768569 0.837178 0.34471
296 1 0.162287 0.0787286 0.414884
315 1 0.077675 0.16983 0.414092
434 1 0.079528 0.0719082 0.490797
461 1 0.158206 0.144126 0.496915
295 1 0.250994 0.00474369 0.416372
297 1 0.325522 0.98015 0.335963
319 1 0.261324 0.168468 0.424465
438 1 0.251985 0.0783175 0.492437
300 1 0.337941 0.0793275 0.401589
325 1 0.497354 0.16906 0.324277
442 1 0.412568 0.0921881 0.491887
302 1 0.597102 0.0933945 0.318192
304 1 0.486555 0.0855159 0.409242
308 1 0.669659 0.0713349 0.411618
445 1 0.490403 -0.000531796 0.501211
446 1 0.584988 0.0914914 0.489838
312 1 0.832722 0.0850936 0.414492
331 1 0.739344 0.150959 0.399921
292 1 -0.0122247 0.0871605 0.404643
335 1 0.910866 0.162729 0.4032
454 1 0.915019 0.0951545 0.492606
457 1 0.999909 0.165938 0.49149
477 1 0.832146 0.162427 0.496403
320 1 0.172235 0.234458 0.429478
339 1 0.0991115 0.335027 0.421247
458 1 0.0797318 0.263009 0.508914
481 1 0.992847 0.34049 0.50776
485 1 0.178833 0.329675 0.500086
318 1 0.246551 0.249013 0.324165
324 1 0.344751 0.254311 0.412094
462 1 0.256694 0.252345 0.497501
323 1 0.420322 0.167388 0.401499
465 1 0.330564 0.148707 0.497586
466 1 0.42501 0.251686 0.489894
326 1 0.594675 0.226538 0.329793
327 1 0.582783 0.163248 0.41055
328 1 0.496464 0.245123 0.397888
332 1 0.676918 0.251198 0.399516
470 1 0.574369 0.252011 0.497011
329 1 0.673572 0.167098 0.317537
330 1 0.757001 0.250051 0.330458
355 1 0.749836 0.330248 0.418159
473 1 0.67504 0.163707 0.491086
316 1 0.996492 0.246424 0.41272
334 1 0.917197 0.253173 0.338144
336 1 0.823917 0.233372 0.412233
357 1 0.837052 0.326853 0.342747
359 1 0.925744 0.336051 0.424442
478 1 0.914602 0.242436 0.499319
344 1 0.177028 0.411999 0.410055
482 1 0.0682814 0.424787 0.505691
342 1 0.246351 0.425468 0.328662
343 1 0.261206 0.326681 0.416618
367 1 0.247149 0.505617 0.415403
509 1 0.172236 0.483501 0.484781
513 1 0.331966 0.489702 0.507377
347 1 0.414263 0.344655 0.434543
348 1 0.326342 0.416823 0.424741
352 1 0.506009 0.408593 0.427633
490 1 0.419748 0.418725 0.514769
351 1 0.588207 0.317145 0.407739
356 1 0.662614 0.413946 0.424508
353 1 0.662567 0.339914 0.329462
354 1 0.74012 0.42892 0.335256
381 1 0.827466 0.504411 0.330751
340 1 0.998004 0.413922 0.423653
358 1 0.921323 0.411312 0.322435
360 1 0.847176 0.423583 0.386789
383 1 0.91389 0.49556 0.410208
362 1 0.0803836 0.601634 0.340282
363 1 0.072139 0.52206 0.420038
365 1 0.15866 0.511861 0.344718
506 1 0.0688021 0.586621 0.516002
368 1 0.163174 0.588922 0.436769
372 1 0.330321 0.59331 0.423273
391 1 0.246889 0.686279 0.420221
510 1 0.250708 0.582367 0.501417
370 1 0.408256 0.589065 0.326281
371 1 0.416324 0.48754 0.416192
393 1 0.327986 0.668059 0.34878
514 1 0.415335 0.573054 0.50049
375 1 0.580762 0.519622 0.423294
376 1 0.492445 0.589054 0.427569
399 1 0.58824 0.659874 0.429759
517 1 0.497707 0.509925 0.509199
541 1 0.507267 0.671192 0.496617
379 1 0.746099 0.51389 0.413672
380 1 0.669732 0.592714 0.42068
521 1 0.669095 0.50455 0.497092
361 1 0.00528746 0.514164 0.33759
364 1 0.991062 0.592342 0.419333
384 1 0.819594 0.586662 0.403745
526 1 0.903936 0.580127 0.509203
386 1 0.0855967 0.751249 0.33488
387 1 0.0632401 0.664049 0.439386
392 1 0.149916 0.748564 0.422224
530 1 0.067789 0.751339 0.499538
390 1 0.249197 0.756272 0.329805
415 1 0.250555 0.828326 0.428093
533 1 0.161947 0.681816 0.505164
534 1 0.256475 0.748595 0.503176
537 1 0.328629 0.652023 0.519464
395 1 0.416132 0.667702 0.408917
396 1 0.333826 0.754765 0.420479
400 1 0.503168 0.75254 0.41352
419 1 0.41278 0.836997 0.411257
538 1 0.406665 0.740914 0.505388
404 1 0.671777 0.746243 0.40892
545 1 0.663307 0.669105 0.503115
402 1 0.756446 0.765337 0.339042
403 1 0.757812 0.677263 0.412247
427 1 0.760852 0.835446 0.426677
388 1 -0.00991616 0.748512 0.420595
406 1 0.921206 0.746044 0.345804
407 1 0.902885 0.661844 0.424736
408 1 0.828875 0.753891 0.419454
549 1 0.822275 0.667042 0.498426
553 1 0.989157 0.841671 0.500076
289 1 0.0120798 0.00594978 0.337082
291 1 0.0890392 0.993086 0.398769
410 1 0.0933913 0.910127 0.330362
411 1 0.0833187 0.838448 0.426035
412 1 0.0030334 0.921411 0.412051
437 1 0.169364 0.0121884 0.503552
554 1 0.0844607 0.924068 0.492081
414 1 0.253288 0.90167 0.328487
416 1 0.177497 0.899453 0.4173
557 1 0.167534 0.833009 0.498687
558 1 0.250431 0.912525 0.511655
299 1 0.421912 0.987684 0.406918
418 1 0.420506 0.908555 0.32273
420 1 0.330114 0.90651 0.428099
441 1 0.338324 -0.000355858 0.487268
561 1 0.332995 0.824882 0.500578
562 1 0.412651 0.91161 0.500558
303 1 0.585915 0.0046603 0.421295
421 1 0.50314 0.823636 0.33249
423 1 0.571184 0.834534 0.417561
424 1 0.510346 0.922528 0.408251
428 1 0.662908 0.925897 0.429315
307 1 0.752885 0.00969007 0.416997
426 1 0.73366 0.913971 0.348385
432 1 0.827015 0.928512 0.412613
311 1 0.925693 -3.36028e-05 0.417492
430 1 0.927121 0.927844 0.331569
431 1 0.923185 0.841507 0.408217
574 1 0.920108 0.921007 0.492211
435 1 0.0688082 0.993084 0.586553
436 1 -0.00453565 0.0705892 0.568853
578 1 0.0680699 0.0907446 0.652562
601 1 1.00322 0.174914 0.652921
440 1 0.172084 0.0878922 0.603654
463 1 0.248785 0.166969 0.575581
582 1 0.25701 0.0968842 0.669377
444 1 0.324714 0.0848191 0.575555
467 1 0.409742 0.163204 0.579782
448 1 0.494851 0.0854238 0.569073
452 1 0.669352 0.0673406 0.588477
590 1 0.570316 0.0896758 0.660943
449 1 0.665212 0.0140173 0.497325
450 1 0.752943 0.0765617 0.503954
456 1 0.838017 0.0824388 0.569775
475 1 0.744771 0.162861 0.578496
621 1 0.813796 0.175346 0.658834
433 1 1.00151 0.996405 0.486764
479 1 0.913153 0.166952 0.595157
598 1 0.903908 0.0851214 0.659323
459 1 0.100824 0.16064 0.586042
460 1 0.983933 0.25015 0.584256
464 1 0.177939 0.247931 0.588255
483 1 0.068687 0.348637 0.588024
629 1 0.166118 0.332963 0.654493
487 1 0.251737 0.331702 0.592629
605 1 0.163576 0.168689 0.665552
606 1 0.252487 0.252427 0.67003
609 1 0.337842 0.165256 0.654615
468 1 0.336476 0.250973 0.572867
469 1 0.494547 0.159238 0.485568
610 1 0.422018 0.252808 0.667622
471 1 0.577919 0.152014 0.58593
472 1 0.495973 0.240619 0.573125
493 1 0.501882 0.342622 0.515263
614 1 0.584455 0.246135 0.655422
617 1 0.67854 0.149369 0.671123
474 1 0.757843 0.240145 0.49361
476 1 0.648347 0.236307 0.567121
645 1 0.830914 0.347835 0.677301
480 1 0.841483 0.249661 0.580463
501 1 0.845162 0.328661 0.497618
622 1 0.897967 0.261805 0.677829
484 1 0.997248 0.420506 0.592686
488 1 0.158734 0.423066 0.587269
505 1 -0.00766397 0.502381 0.502058
486 1 0.256899 0.404535 0.508556
630 1 0.242495 0.414994 0.653729
489 1 0.343316 0.338359 0.515442
491 1 0.419042 0.333569 0.595258
492 1 0.353716 0.415721 0.584413
634 1 0.419665 0.411478 0.676437
494 1 0.577985 0.43224 0.504152
495 1 0.582605 0.33819 0.583981
496 1 0.492649 0.427596 0.595572
497 1 0.671887 0.321689 0.494947
500 1 0.672781 0.417203 0.57471
637 1 0.500866 0.336617 0.666058
498 1 0.75636 0.420535 0.486848
499 1 0.745619 0.33983 0.581102
642 1 0.750003 0.433292 0.667176
502 1 0.9094 0.432553 0.493654
503 1 0.915969 0.32681 0.590571
504 1 0.828268 0.414945 0.586264
527 1 0.912139 0.498702 0.590775
507 1 0.0790089 0.498587 0.578605
673 1 1.0006 0.657185 0.665934
511 1 0.246223 0.50885 0.589557
512 1 0.161908 0.58482 0.588122
535 1 0.232496 0.667123 0.573661
515 1 0.415747 0.50948 0.596052
516 1 0.330641 0.573354 0.598764
520 1 0.50134 0.591202 0.600036
657 1 0.338564 0.488972 0.670142
658 1 0.421319 0.574608 0.685674
661 1 0.510964 0.50351 0.678724
518 1 0.583289 0.590169 0.510764
519 1 0.576667 0.506027 0.581752
524 1 0.67047 0.574376 0.589623
662 1 0.590031 0.587364 0.663224
522 1 0.746722 0.591495 0.500369
523 1 0.756226 0.493517 0.569354
525 1 0.82826 0.503384 0.487474
693 1 0.824692 0.660311 0.664228
508 1 0.985705 0.579958 0.584293
528 1 0.820889 0.572 0.592542
529 1 0.980457 0.667931 0.508887
551 1 0.90243 0.662976 0.587525
531 1 0.0759404 0.673235 0.576787
532 1 0.996431 0.754738 0.58032
536 1 0.151033 0.763898 0.588524
540 1 0.330847 0.740129 0.588241
539 1 0.41275 0.657094 0.577655
544 1 0.500181 0.758976 0.583514
563 1 0.416774 0.82945 0.584031
565 1 0.491802 0.828695 0.496193
542 1 0.598623 0.758427 0.497793
543 1 0.583159 0.669999 0.584492
548 1 0.663197 0.758408 0.582789
567 1 0.588176 0.840757 0.582426
686 1 0.583335 0.75421 0.657441
546 1 0.74589 0.753536 0.496844
547 1 0.74597 0.669502 0.577277
571 1 0.761343 0.836065 0.579254
550 1 0.914113 0.749194 0.495386
552 1 0.829246 0.750273 0.570388
573 1 0.839893 0.830892 0.506491
555 1 0.0683889 0.841845 0.59245
556 1 0.991895 0.922285 0.573622
577 1 0.986629 0.0125978 0.660217
697 1 0.985874 0.822982 0.677063
698 1 0.0618551 0.920175 0.667028
439 1 0.247139 0.0138589 0.601483
559 1 0.244119 0.819358 0.585799
560 1 0.162993 0.923833 0.573163
705 1 0.331166 0.835582 0.667985
443 1 0.406605 0.00874368 0.581073
564 1 0.33214 0.911254 0.582212
568 1 0.496708 0.911855 0.566437
585 1 0.332319 1.00294 0.661118
589 1 0.485982 0.982113 0.667323
709 1 0.505004 0.847501 0.65074
447 1 0.57901 1.00394 0.582319
566 1 0.577565 0.926976 0.498781
569 1 0.671714 0.8337 0.491793
710 1 0.594211 0.919215 0.659116
451 1 0.757202 0.996733 0.575749
570 1 0.759915 0.919605 0.496079
572 1 0.674979 0.916964 0.569088
593 1 0.683806 0.972933 0.65867
714 1 0.771645 0.921136 0.679919
453 1 0.840099 -0.000281629 0.490815
455 1 0.915107 0.00403065 0.573158
575 1 0.923844 0.825181 0.580718
576 1 0.845995 0.91552 0.571407
597 1 0.855807 -0.00819092 0.661056
579 1 0.0742389 1.01917 0.744123
580 1 -0.00912451 0.0892911 0.748348
584 1 0.161111 0.0834374 0.747375
722 1 0.07997 0.0936945 0.822749
581 1 0.150995 -0.00190065 0.660125
583 1 0.235128 0.998753 0.734834
725 1 0.166576 0.987363 0.838048
586 1 0.408738 0.0835444 0.665779
588 1 0.328755 0.0889302 0.746144
729 1 0.31588 0.996382 0.801071
730 1 0.410779 0.0959336 0.812154
591 1 0.570313 0.994071 0.745364
592 1 0.491476 0.0838407 0.728317
596 1 0.678298 0.0678584 0.752224
613 1 0.496444 0.169249 0.662432
733 1 0.486739 0.000825885 0.827484
734 1 0.577389 0.0753246 0.809157
594 1 0.766347 0.0808626 0.662642
595 1 0.748411 0.996961 0.747442
619 1 0.762453 0.159834 0.749033
738 1 0.762243 0.0838379 0.831059
600 1 0.84179 0.0799127 0.756229
623 1 0.900726 0.168619 0.747591
765 1 0.837068 0.174473 0.841531
602 1 0.0865772 0.250692 0.639285
603 1 0.0772756 0.163976 0.738314
746 1 0.0955642 0.245107 0.816842
607 1 0.247467 0.161495 0.745586
608 1 0.174805 0.259033 0.739707
633 1 0.330389 0.350627 0.665456
749 1 0.180783 0.179067 0.829516
753 1 0.321725 0.176421 0.821297
611 1 0.401912 0.172754 0.737957
612 1 0.327353 0.252533 0.749261
635 1 0.41733 0.330203 0.752221
615 1 0.580677 0.164875 0.73821
616 1 0.504389 0.23518 0.746371
620 1 0.666299 0.246499 0.748182
758 1 0.589001 0.228228 0.828367
618 1 0.746095 0.256065 0.655123
762 1 0.746401 0.248696 0.838031
604 1 0.994356 0.243573 0.73665
624 1 0.824258 0.257088 0.761012
625 1 0.991303 0.335907 0.669364
647 1 0.921963 0.326152 0.750398
766 1 0.908238 0.258376 0.8261
626 1 0.0787921 0.433706 0.661207
627 1 0.0888245 0.323329 0.734059
649 1 -0.0197349 0.504439 0.664813
651 1 0.0719814 0.518293 0.740847
770 1 0.0749155 0.436017 0.828061
631 1 0.234992 0.352359 0.745676
632 1 0.156666 0.427612 0.740378
653 1 0.172425 0.506449 0.662709
655 1 0.25699 0.495013 0.767148
773 1 0.150602 0.353912 0.831349
636 1 0.325092 0.413097 0.765984
659 1 0.409487 0.494916 0.753797
778 1 0.416599 0.404342 0.83372
801 1 0.328226 0.511949 0.848874
638 1 0.583437 0.41599 0.671594
639 1 0.578666 0.340704 0.756661
640 1 0.494853 0.411154 0.755924
641 1 0.677589 0.346033 0.67108
643 1 0.746751 0.335505 0.755736
644 1 0.669824 0.407778 0.752434
669 1 0.836903 0.495898 0.672323
785 1 0.665904 0.323409 0.841683
813 1 0.833364 0.487988 0.858863
628 1 0.00689407 0.425348 0.741989
646 1 0.910993 0.422337 0.665876
648 1 0.836951 0.418122 0.750906
650 1 0.0837165 0.58935 0.647929
675 1 0.0681272 0.663308 0.758327
677 1 0.153709 0.677131 0.661014
794 1 0.0744316 0.585117 0.840778
654 1 0.248808 0.580255 0.664761
656 1 0.161583 0.585964 0.743269
679 1 0.241623 0.674204 0.738408
821 1 0.175024 0.681726 0.817811
660 1 0.329915 0.573222 0.764826
664 1 0.514124 0.572958 0.757142
683 1 0.420655 0.660659 0.750936
802 1 0.421884 0.575688 0.835332
663 1 0.592047 0.498213 0.741445
668 1 0.655104 0.57663 0.734072
687 1 0.588391 0.663922 0.744372
833 1 0.664014 0.654755 0.841836
665 1 0.66885 0.495475 0.660323
666 1 0.740702 0.576575 0.671077
667 1 0.750872 0.504673 0.758194
672 1 0.838346 0.596341 0.752498
810 1 0.762736 0.57414 0.838102
652 1 0.977271 0.592963 0.756092
670 1 0.905037 0.579747 0.666907
671 1 0.912611 0.497409 0.758705
674 1 0.0697389 0.753097 0.66169
676 1 0.000453988 0.747626 0.756216
680 1 0.159884 0.758552 0.744552
699 1 0.0825565 0.834249 0.744341
841 1 1.0004 0.820121 0.837801
678 1 0.253067 0.744817 0.660697
822 1 0.250143 0.759761 0.827772
845 1 0.161741 0.83207 0.834834
681 1 0.331561 0.659144 0.682439
682 1 0.416929 0.749032 0.670902
684 1 0.330745 0.748298 0.744292
826 1 0.413091 0.753013 0.830438
829 1 0.497598 0.668218 0.828083
685 1 0.501257 0.680674 0.662277
688 1 0.514651 0.743075 0.74173
689 1 0.676844 0.671048 0.664858
692 1 0.660757 0.746932 0.737995
690 1 0.753173 0.755159 0.663253
691 1 0.733589 0.665416 0.757446
717 1 0.843506 0.824388 0.66378
694 1 0.92835 0.732803 0.671178
695 1 0.915014 0.67885 0.766077
696 1 0.828444 0.731428 0.761413
719 1 0.914761 0.815339 0.759544
700 1 0.994291 0.902574 0.761492
842 1 0.0755252 0.90796 0.822821
701 1 0.15304 0.839737 0.664897
702 1 0.240438 0.917736 0.654664
703 1 0.24714 0.835522 0.749676
704 1 0.161302 0.915612 0.748633
708 1 0.344864 0.900599 0.753324
587 1 0.411073 -0.00455713 0.746699
706 1 0.407677 0.923931 0.666726
707 1 0.412503 0.817271 0.753565
712 1 0.485329 0.896442 0.747825
711 1 0.595385 0.837269 0.753245
737 1 0.6798 -0.0199331 0.847756
853 1 0.521199 0.827537 0.831907
854 1 0.571613 0.929197 0.830829
713 1 0.682905 0.842432 0.661072
715 1 0.748486 0.827495 0.747794
716 1 0.660459 0.927251 0.756653
858 1 0.761623 0.905851 0.825518
861 1 0.829051 0.822552 0.833812
599 1 0.923183 0.992229 0.762727
718 1 0.920783 0.900657 0.660302
720 1 0.850174 0.898271 0.758074
741 1 0.832832 0.994981 0.840958
1 1 0.0055399 1.00132 0.999785
5 1 0.163121 0.0067116 0.997392
721 1 0.00730224 0.000692896 0.821717
745 1 1.00974 0.172713 0.823656
726 1 0.236876 0.0835197 0.834648
727 1 0.250054 -0.018915 0.916832
728 1 0.175679 0.0781337 0.913793
732 1 0.331384 0.0505203 0.905323
9 1 0.33891 0.982634 1.00677
731 1 0.420357 0.991535 0.914619
736 1 0.496024 0.075427 0.903635
735 1 0.599834 1.00057 0.924555
757 1 0.491035 0.175675 0.827129
18 1 0.755768 0.0792846 1.00191
740 1 0.674757 0.089574 0.921865
761 1 0.680525 0.153552 0.830107
763 1 0.769539 0.162659 0.92667
22 1 0.932025 0.0801978 0.991301
724 1 0.00934737 0.0854354 0.912487
742 1 0.927622 0.0767476 0.83316
743 1 0.930126 0.987119 0.903531
744 1 0.844729 0.0822322 0.912261
767 1 0.922249 0.166136 0.909432
26 1 0.0874759 0.248104 0.98761
747 1 0.0999111 0.166829 0.910832
748 1 0.0054387 0.249082 0.899126
53 1 0.157834 0.333673 0.00266938
750 1 0.246298 0.262086 0.824034
751 1 0.257973 0.177952 0.911736
752 1 0.174435 0.245583 0.913621
775 1 0.266314 0.318449 0.930715
754 1 0.411554 0.25 0.828385
755 1 0.414559 0.152701 0.907156
756 1 0.345822 0.233371 0.922048
777 1 0.337602 0.327736 0.85021
38 1 0.577846 0.221818 0.988398
61 1 0.502225 0.334343 -0.00743277
759 1 0.583065 0.139291 0.903741
760 1 0.512825 0.241254 0.905984
781 1 0.501154 0.331638 0.830503
783 1 0.583888 0.330438 0.914322
41 1 0.66681 0.153408 1.00785
65 1 0.65367 0.323744 0.999432
764 1 0.660261 0.226954 0.917185
768 1 0.844826 0.267932 0.921907
787 1 0.756182 0.329782 0.909735
46 1 0.930366 0.251987 0.985183
50 1 0.0887407 0.417058 1.00156
769 1 0.0213088 0.35167 0.822251
771 1 0.068317 0.332508 0.927344
793 1 0.999333 0.497464 0.827236
795 1 0.0811977 0.501614 0.920217
54 1 0.245387 0.420228 1.00025
774 1 0.244019 0.417752 0.840158
776 1 0.152654 0.414334 0.924339
799 1 0.242714 0.504647 0.92872
57 1 0.343477 0.331823 0.008847
81 1 0.329921 0.501216 0.998216
779 1 0.4159 0.333662 0.929623
780 1 0.343979 0.417485 0.934319
784 1 0.500262 0.409509 0.907639
805 1 0.493089 0.499927 0.834975
782 1 0.590599 0.40736 0.842
788 1 0.65846 0.423688 0.918897
807 1 0.571013 0.495811 0.908602
809 1 0.65376 0.506851 0.835716
66 1 0.742354 0.428737 0.00677898
786 1 0.740304 0.417233 0.8411
792 1 0.833956 0.409719 0.937035
811 1 0.743751 0.498503 0.928302
772 1 0.00592299 0.416313 0.919301
789 1 0.84557 0.347156 0.84427
790 1 0.934123 0.418806 0.836435
791 1 0.934944 0.330792 0.91222
815 1 0.924104 0.496691 0.924458
74 1 0.0854115 0.588326 0.0023382
797 1 0.169035 0.505816 0.8299
105 1 0.339297 0.655212 0.992071
798 1 0.242658 0.584097 0.82994
800 1 0.164627 0.58784 0.912733
803 1 0.41765 0.496265 0.915191
804 1 0.327148 0.584649 0.91476
808 1 0.503169 0.585571 0.919742
827 1 0.419496 0.663564 0.904806
86 1 0.571419 0.596279 0.00735872
806 1 0.581598 0.590216 0.849445
812 1 0.666526 0.591619 0.929001
117 1 0.835369 0.663567 0.000896145
816 1 0.839567 0.574843 0.921064
837 1 0.838749 0.664226 0.837469
94 1 0.928497 0.580202 0.00385791
97 1 1.00062 0.668337 0.0112506
796 1 -0.00286815 0.57841 0.917922
814 1 0.910297 0.573599 0.836792
817 1 0.998103 0.672016 0.845576
839 1 0.92421 0.665537 0.921033
98 1 0.0870315 0.75563 0.0129687
818 1 0.0830273 0.742934 0.836746
819 1 0.0901806 0.671265 0.924413
820 1 0.000819344 0.753704 0.929595
125 1 0.178311 0.827916 0.0173994
823 1 0.238072 0.656677 0.922511
824 1 0.172073 0.743739 0.918263
847 1 0.242557 0.828062 0.920926
106 1 0.412858 0.744273 0.986704
825 1 0.342641 0.653319 0.83366
828 1 0.322687 0.746546 0.913758
109 1 0.49109 0.659713 1.00067
830 1 0.589913 0.742596 0.829774
831 1 0.583301 0.675124 0.906636
832 1 0.506416 0.742451 0.909132
836 1 0.662059 0.760678 0.911986
855 1 0.578873 0.836323 0.92749
834 1 0.737126 0.734103 0.840357
835 1 0.758833 0.652274 0.922641
840 1 0.815576 0.741183 0.919646
118 1 0.915132 0.747736 0.00860242
838 1 0.909904 0.747434 0.853428
863 1 0.926958 0.820466 0.927218
121 1 0.00789456 0.848658 -0.00143194
122 1 0.0854955 0.910686 0.000747524
723 1 0.0869983 1.0105 0.91059
843 1 0.0833756 0.833237 0.92041
844 1 0.012638 0.915714 0.910913
126 1 0.247716 0.914551 0.996451
129 1 0.333323 0.833001 1.00117
846 1 0.255203 0.89807 0.836679
848 1 0.165735 0.900382 0.921111
852 1 0.341211 0.899758 0.916768
13 1 0.495536 1.00242 -0.00780082
130 1 0.431457 0.908999 0.998428
849 1 0.335696 0.820849 0.835045
850 1 0.412155 0.919377 0.832135
851 1 0.424493 0.816975 0.907193
856 1 0.491951 0.921574 0.907772
133 1 0.506041 0.827249 0.00708984
860 1 0.669303 0.909597 0.922497
21 1 0.85515 0.00406029 -0.0123243
138 1 0.760593 0.924792 0.997782
739 1 0.759356 1.00276 0.922713
857 1 0.681223 0.839706 0.837727
859 1 0.762403 0.835348 0.923161
864 1 0.845101 0.897265 0.909268
862 1 0.926797 0.90751 0.835116
