ITEM: TIMESTEP
6500
ITEM: NUMBER OF ATOMS
864
ITEM: BOX BOUNDS pp pp pp
0.0000000000000000e+00 3.1559999999999999e+01
0.0000000000000000e+00 3.1559999999999999e+01
0.0000000000000000e+00 3.1559999999999999e+01
ITEM: ATOMS id type xs ys zs
146 1 0.0750421 0.0742693 0.163031
4 1 0.00409628 0.0740577 0.0693938
2 1 0.0864906 0.0782647 1.00001
29 1 0.180932 0.173731 1.00242
8 1 0.158741 0.0834518 0.0755731
7 1 0.233851 0.993674 0.0797316
31 1 0.258219 0.16002 0.0824626
12 1 0.35122 0.0924541 0.070638
16 1 0.493068 0.0810953 0.0954293
35 1 0.42192 0.17371 0.0807342
157 1 0.490057 0.993473 0.16588
33 1 0.338706 0.165137 0.979243
158 1 0.565625 0.0865824 0.168483
39 1 0.586878 0.188719 0.0795586
185 1 0.667769 0.173035 0.151027
181 1 0.523334 0.191695 0.163587
14 1 0.588027 0.103858 1.00544
20 1 0.666538 0.0864716 0.0758233
24 1 0.843151 0.0699067 0.0732407
43 1 0.755405 0.161496 0.086946
162 1 0.760134 0.0796087 0.156655
165 1 0.824516 0.993167 0.153713
18 1 0.739471 0.0804827 0.985661
166 1 0.926719 0.0866526 0.154807
23 1 0.916045 0.989565 0.0693826
27 1 0.0729058 0.153424 0.0832219
170 1 0.0779752 0.250721 0.16326
32 1 0.161208 0.242729 0.0867888
28 1 -0.0105313 0.250703 0.0755217
174 1 0.240641 0.249291 0.165594
55 1 0.234403 0.32709 0.0739086
201 1 0.323162 0.344429 0.166195
30 1 0.266787 0.248853 0.977753
36 1 0.324674 0.240125 0.0635678
40 1 0.508282 0.258787 0.0702394
59 1 0.408873 0.340743 0.0797582
63 1 0.600724 0.316682 0.0619111
182 1 0.598853 0.26449 0.167887
37 1 0.508433 0.182892 1.0027
44 1 0.688157 0.255035 0.0837554
48 1 0.843216 0.249054 0.0811148
186 1 0.761982 0.236233 0.15784
189 1 0.840892 0.157402 0.166347
213 1 0.825863 0.33239 0.16148
47 1 0.920194 0.154445 0.0707323
46 1 0.911743 0.24708 0.999423
190 1 0.910985 0.233496 0.166169
193 1 0.979135 0.330588 0.15683
51 1 0.0768681 0.323041 0.0866291
194 1 0.0775605 0.427801 0.158818
50 1 0.0712946 0.427564 0.00323422
56 1 0.15715 0.402789 0.075312
198 1 0.242275 0.415934 0.163977
60 1 0.325119 0.428728 0.0832194
53 1 0.158317 0.326378 0.993024
225 1 0.331342 0.503762 0.160576
202 1 0.412431 0.417349 0.15866
58 1 0.414805 0.420076 1.00675
61 1 0.487195 0.331952 0.989278
81 1 0.334289 0.495651 -0.00497005
64 1 0.530267 0.414088 0.0619905
209 1 0.686752 0.336819 0.167366
205 1 0.505732 0.329328 0.165031
68 1 0.682343 0.412954 0.0885814
206 1 0.580037 0.418258 0.164494
67 1 0.767575 0.32544 0.0761394
72 1 0.84095 0.425782 0.0771394
210 1 0.763584 0.426504 0.173133
71 1 0.905821 0.331223 0.0776608
52 1 0.984146 0.415397 0.0831729
214 1 0.90873 0.434504 0.163625
95 1 0.9193 0.510061 0.0787077
217 1 0.996167 0.501122 0.157537
75 1 0.0856763 0.518466 0.068865
221 1 0.169407 0.503028 0.161487
80 1 0.160159 0.604142 0.0865505
218 1 0.0857142 0.586222 0.169716
74 1 0.0971322 0.587784 0.988764
73 1 0.99602 0.494417 -0.010036
79 1 0.24683 0.493836 0.0801323
222 1 0.25093 0.59762 0.151896
84 1 0.338407 0.577575 0.0765527
83 1 0.421021 0.507308 0.0810084
107 1 0.424332 0.669999 0.071021
226 1 0.425378 0.598486 0.159327
88 1 0.499005 0.599347 0.0702236
249 1 0.333465 0.666871 0.144453
87 1 0.577289 0.509387 0.0919485
229 1 0.508947 0.505759 0.172229
86 1 0.596769 0.598795 0.0132727
253 1 0.507948 0.675063 0.168006
230 1 0.582703 0.584991 0.168811
233 1 0.66707 0.487714 0.188989
92 1 0.679129 0.563265 0.0979061
91 1 0.751416 0.49041 0.0711318
261 1 0.831795 0.665047 0.170611
234 1 0.743199 0.582267 0.18251
115 1 0.752478 0.66868 0.0855185
76 1 0.98735 0.590215 0.0858706
96 1 0.819463 0.57969 0.0972478
99 1 0.0687937 0.658618 0.0759429
242 1 0.0805996 0.742506 0.152348
98 1 0.0779736 0.744161 -0.00786911
103 1 0.249302 0.67894 0.0765154
104 1 0.165495 0.743845 0.0881964
127 1 0.254479 0.84463 0.0667001
105 1 0.321318 0.665884 -0.0101242
108 1 0.333245 0.767618 0.0605489
250 1 0.401554 0.739225 0.161139
273 1 0.3405 0.827511 0.154752
131 1 0.419223 0.831992 0.0777169
277 1 0.493854 0.818992 0.173477
111 1 0.592574 0.668727 0.0944892
112 1 0.489464 0.752239 0.0910166
135 1 0.578778 0.843284 0.0884246
254 1 0.591798 0.755266 0.17335
116 1 0.672967 0.745916 0.0915601
257 1 0.680922 0.683712 0.174839
120 1 0.831926 0.75004 0.0734049
258 1 0.756598 0.757452 0.165168
285 1 0.829327 0.837961 0.161694
119 1 0.907792 0.669007 0.068774
100 1 0.988973 0.744031 0.0766759
262 1 0.91074 0.737033 0.157506
121 1 -0.00728111 0.824484 0.98065
123 1 0.0749942 0.833444 0.0707648
3 1 0.0912549 0.00100354 0.0793527
124 1 0.00631203 0.9227 0.0643064
122 1 0.0827544 0.924055 0.986462
128 1 0.153471 0.911868 0.0814483
270 1 0.252548 0.910199 0.150238
11 1 0.411339 1.00668 0.0707188
132 1 0.337973 0.924227 0.0753411
136 1 0.493402 0.918394 0.0772028
15 1 0.580398 0.0112705 0.0833637
161 1 0.650248 0.0165587 0.163735
278 1 0.578885 0.919145 0.173799
140 1 0.654641 0.921286 0.0873626
281 1 0.65794 0.837292 0.164823
19 1 0.732728 0.00126543 0.0762026
139 1 0.753221 0.839652 0.0769953
282 1 0.744433 0.92536 0.150286
265 1 0.993393 0.828109 0.146278
144 1 0.833119 0.923274 0.072888
143 1 0.912499 0.840756 0.067162
286 1 0.918755 0.920922 0.140016
1 1 -0.00257321 0.00305369 0.996473
173 1 0.161884 0.167417 0.166895
169 1 -0.00464085 0.175873 0.161748
290 1 0.0782873 0.0832339 0.329302
147 1 0.0778597 0.993074 0.257294
171 1 0.0764939 0.160552 0.24063
317 1 0.173773 0.166359 0.308163
150 1 0.261253 0.0869946 0.159464
152 1 0.160471 0.0841462 0.235406
293 1 0.175237 0.983082 0.321686
294 1 0.235374 0.081183 0.329403
154 1 0.409483 0.0932057 0.15817
156 1 0.315867 0.0777409 0.255277
155 1 0.417925 0.987525 0.256738
298 1 0.411367 0.0767403 0.325939
321 1 0.347326 0.164541 0.309127
160 1 0.492974 0.0771498 0.245691
159 1 0.58237 0.996478 0.244989
302 1 0.586906 0.0887895 0.322513
301 1 0.516149 1.00063 0.322119
164 1 0.668701 0.0907086 0.237697
309 1 0.869747 0.98221 0.321678
168 1 0.835768 0.074425 0.242683
163 1 0.752894 1.0022 0.249087
306 1 0.758468 0.083626 0.32535
148 1 1.01669 0.0765719 0.245407
289 1 0.985914 0.00272584 0.318409
167 1 0.91961 0.993602 0.232252
314 1 0.0773873 0.251091 0.307936
197 1 0.155554 0.320978 0.16899
175 1 0.251672 0.163186 0.232622
176 1 0.166134 0.260593 0.255009
180 1 0.327819 0.252175 0.243363
318 1 0.247555 0.253905 0.326102
177 1 0.335248 0.170493 0.159583
178 1 0.425145 0.249592 0.155537
179 1 0.42331 0.176687 0.229348
322 1 0.417372 0.257378 0.314368
184 1 0.509067 0.258399 0.243959
183 1 0.597581 0.185152 0.252175
207 1 0.585126 0.334276 0.24376
326 1 0.569972 0.260027 0.337268
188 1 0.692686 0.245497 0.245149
187 1 0.759182 0.162418 0.254952
211 1 0.764998 0.338645 0.25582
172 1 0.993848 0.251357 0.236046
192 1 0.833698 0.264355 0.249707
191 1 0.925226 0.150937 0.243671
357 1 0.841998 0.338033 0.335144
313 1 0.989897 0.158571 0.336238
333 1 0.840394 0.159365 0.335727
341 1 0.165562 0.331449 0.334455
195 1 0.0729108 0.342086 0.252888
338 1 0.0810839 0.423534 0.324532
200 1 0.155105 0.415614 0.245893
199 1 0.234707 0.33804 0.234265
223 1 0.255284 0.508305 0.234447
203 1 0.414536 0.33349 0.234252
349 1 0.510192 0.349367 0.328872
204 1 0.337191 0.425892 0.244805
346 1 0.409087 0.406827 0.322926
345 1 0.328711 0.336654 0.315186
208 1 0.492683 0.408574 0.240332
350 1 0.596845 0.409973 0.334765
373 1 0.468042 0.491428 0.331083
353 1 0.673028 0.325318 0.333731
212 1 0.675648 0.401338 0.24905
216 1 0.835088 0.420827 0.259165
354 1 0.749826 0.413088 0.33908
215 1 0.910599 0.33497 0.249654
196 1 0.989062 0.423179 0.239716
361 1 1.00179 0.503921 0.336977
358 1 0.907331 0.422546 0.342289
365 1 0.170923 0.496284 0.3364
219 1 0.0818071 0.501863 0.247371
389 1 0.174266 0.671836 0.324395
224 1 0.158572 0.573017 0.257197
362 1 0.0792374 0.589624 0.335296
245 1 0.168632 0.673242 0.170017
247 1 0.242711 0.664208 0.248938
228 1 0.34118 0.587552 0.236758
227 1 0.421914 0.501757 0.234622
369 1 0.329725 0.497983 0.331087
251 1 0.423268 0.663318 0.251955
370 1 0.421837 0.584846 0.342062
231 1 0.572727 0.485633 0.269245
232 1 0.512332 0.577518 0.253587
374 1 0.5846 0.582212 0.327788
255 1 0.581317 0.665501 0.248303
237 1 0.829805 0.509435 0.183126
377 1 0.667724 0.502607 0.322103
236 1 0.661989 0.585855 0.248909
235 1 0.753028 0.498414 0.257016
240 1 0.836755 0.578143 0.260433
241 1 0.995921 0.659685 0.158479
239 1 0.913922 0.510573 0.259774
238 1 0.913806 0.590976 0.165933
220 1 1.00899 0.59418 0.248966
382 1 0.93525 0.588553 0.331043
381 1 0.838376 0.510125 0.35638
243 1 0.0773464 0.675082 0.237196
386 1 0.0923408 0.739745 0.33228
248 1 0.161787 0.759915 0.244896
267 1 0.0657146 0.824858 0.23093
246 1 0.254671 0.756044 0.160225
269 1 0.168282 0.829639 0.159978
390 1 0.256764 0.760496 0.31958
271 1 0.26899 0.836662 0.23171
252 1 0.334652 0.739877 0.244332
275 1 0.42218 0.822585 0.248247
256 1 0.495718 0.740772 0.251316
394 1 0.425816 0.750063 0.323928
401 1 0.663995 0.665171 0.331958
398 1 0.59348 0.740371 0.326359
260 1 0.686425 0.765539 0.249611
397 1 0.49256 0.672505 0.341522
259 1 0.749604 0.671306 0.264415
264 1 0.836437 0.751732 0.240381
283 1 0.754972 0.853903 0.245474
402 1 0.765749 0.766826 0.324675
429 1 0.828487 0.851261 0.330545
263 1 0.914866 0.659086 0.254039
244 1 0.989119 0.749581 0.224182
287 1 0.914441 0.843411 0.224802
266 1 0.0678652 0.911313 0.15163
410 1 0.0855267 0.904306 0.345438
149 1 0.172779 0.982208 0.176439
151 1 0.251826 0.988399 0.229816
272 1 0.166607 0.893563 0.257554
413 1 0.158036 0.8341 0.34646
414 1 0.251653 0.905024 0.317203
153 1 0.349714 0.0039788 0.155026
274 1 0.422056 0.898323 0.15738
276 1 0.351499 0.908315 0.235915
280 1 0.497636 0.902074 0.251243
279 1 0.584958 0.836127 0.249002
422 1 0.595486 0.9198 0.321646
284 1 0.677522 0.920695 0.233466
425 1 0.679002 0.841677 0.330757
426 1 0.753677 0.936016 0.344161
305 1 0.667853 0.00585328 0.310903
145 1 0.996569 1.00328 0.153617
268 1 -0.00147874 0.914892 0.245604
288 1 0.833772 0.92237 0.228891
430 1 0.929279 0.895303 0.345259
292 1 0.99152 0.0787839 0.423498
437 1 0.156838 0.994955 0.488547
434 1 0.0813112 0.0739899 0.505235
461 1 0.172277 0.151335 0.471257
296 1 0.164135 0.0664074 0.406039
300 1 0.330554 0.0859477 0.408254
438 1 0.260401 0.0732873 0.497791
304 1 0.498533 0.0884262 0.395891
299 1 0.433687 1.00012 0.397134
442 1 0.427782 0.0811264 0.477082
469 1 0.500069 0.169516 0.476236
446 1 0.590015 0.0953214 0.483124
445 1 0.522572 0.00783555 0.477857
308 1 0.673482 0.0843331 0.412029
307 1 0.752693 0.00459804 0.42311
453 1 0.822306 0.9911 0.520007
450 1 0.745388 0.0908776 0.503574
310 1 0.920124 0.0848361 0.329119
312 1 0.844072 0.0606233 0.423674
335 1 0.912353 0.154854 0.421295
337 1 0.986488 0.333775 0.334769
315 1 0.0709269 0.159709 0.411828
316 1 1.00125 0.25007 0.419788
339 1 0.0729016 0.334632 0.397406
481 1 0.00641485 0.338303 0.484332
319 1 0.252621 0.181412 0.398972
320 1 0.156981 0.23713 0.395708
462 1 0.236849 0.237821 0.488317
343 1 0.241306 0.333241 0.428146
465 1 0.325881 0.155067 0.481331
323 1 0.419666 0.183406 0.402826
324 1 0.340089 0.257061 0.40396
327 1 0.594275 0.16607 0.395103
325 1 0.501387 0.1676 0.314325
328 1 0.51187 0.26344 0.431515
470 1 0.591285 0.251783 0.494868
329 1 0.677257 0.183171 0.326518
473 1 0.668489 0.16688 0.490122
332 1 0.669117 0.241857 0.414244
497 1 0.659032 0.34854 0.501645
330 1 0.761344 0.259434 0.333487
331 1 0.748994 0.165734 0.403164
474 1 0.75165 0.243433 0.506083
334 1 0.910476 0.247056 0.33344
336 1 0.826251 0.249355 0.416578
477 1 0.824354 0.163493 0.494854
478 1 0.918228 0.242601 0.500599
340 1 0.989794 0.422904 0.409675
482 1 0.0938313 0.414706 0.484113
363 1 0.0862583 0.50031 0.41068
342 1 0.249188 0.408469 0.320525
344 1 0.16497 0.425513 0.411398
486 1 0.250773 0.424808 0.494372
485 1 0.16406 0.331346 0.498481
513 1 0.341044 0.503041 0.498749
347 1 0.420772 0.319148 0.407114
348 1 0.319239 0.411264 0.409931
493 1 0.480197 0.339649 0.499799
351 1 0.591572 0.334883 0.408332
352 1 0.47529 0.407794 0.411147
375 1 0.567497 0.501931 0.404178
494 1 0.560202 0.418182 0.487563
355 1 0.736137 0.324259 0.422738
356 1 0.670684 0.423547 0.41217
360 1 0.833362 0.401676 0.425082
359 1 0.919782 0.340996 0.421554
501 1 0.833942 0.330406 0.502799
502 1 0.918063 0.422184 0.489059
383 1 0.922442 0.516932 0.417386
368 1 0.166572 0.580761 0.407347
364 1 1.01105 0.591251 0.418082
529 1 -0.00336831 0.674184 0.494335
387 1 0.0798837 0.670328 0.407611
505 1 0.0130603 0.501494 0.487445
366 1 0.264507 0.590651 0.335918
367 1 0.246416 0.50518 0.417994
372 1 0.334328 0.595206 0.412767
510 1 0.255616 0.582755 0.500604
391 1 0.252454 0.673103 0.405119
393 1 0.353342 0.677852 0.332624
371 1 0.394063 0.497523 0.410514
541 1 0.514893 0.678417 0.503325
376 1 0.503036 0.592474 0.413879
399 1 0.591679 0.665378 0.413482
518 1 0.571832 0.579208 0.514286
378 1 0.743504 0.571913 0.343128
380 1 0.651678 0.569121 0.42077
521 1 0.642526 0.495864 0.495601
379 1 0.739041 0.502509 0.414996
522 1 0.752253 0.581175 0.516513
405 1 0.838831 0.681098 0.3266
385 1 0.992824 0.67845 0.326018
384 1 0.831274 0.594586 0.424643
526 1 0.919919 0.599921 0.504455
392 1 0.170584 0.746346 0.424042
411 1 0.0850586 0.832041 0.428914
537 1 0.340155 0.688596 0.486171
396 1 0.326235 0.758021 0.403833
415 1 0.258659 0.841262 0.411711
534 1 0.25268 0.743669 0.488388
417 1 0.33412 0.84126 0.336675
395 1 0.419338 0.671617 0.420222
419 1 0.407553 0.828053 0.418466
421 1 0.509696 0.818207 0.325067
400 1 0.498563 0.753287 0.416526
542 1 0.599322 0.759332 0.473544
545 1 0.669863 0.658755 0.504446
403 1 0.74808 0.659238 0.407756
404 1 0.682098 0.749756 0.404102
546 1 0.741826 0.744058 0.492212
427 1 0.745836 0.838608 0.414065
408 1 0.818213 0.764622 0.419176
549 1 0.830032 0.670778 0.509168
406 1 0.920242 0.771646 0.310473
388 1 1.00364 0.749845 0.416215
407 1 0.915832 0.664765 0.4206
550 1 0.913998 0.743482 0.481874
409 1 0.0182469 0.825839 0.330281
291 1 0.0604087 1.00171 0.392087
416 1 0.154893 0.910438 0.423414
554 1 0.0693633 0.910535 0.513933
557 1 0.156259 0.8456 0.509666
412 1 1.01353 0.906572 0.413867
295 1 0.253192 0.987842 0.411603
561 1 0.334648 0.822848 0.502837
420 1 0.343152 0.927062 0.414773
558 1 0.256539 0.915726 0.49789
297 1 0.326607 0.989832 0.3266
418 1 0.422752 0.901602 0.327825
565 1 0.492706 0.844181 0.493162
424 1 0.507879 0.911512 0.400473
562 1 0.423511 0.941243 0.487288
303 1 0.595478 0.00917203 0.408115
423 1 0.588939 0.839364 0.41277
569 1 0.674101 0.850181 0.480857
566 1 0.580533 0.924731 0.489855
573 1 0.826112 0.830453 0.500609
449 1 0.670257 0.00764566 0.490672
428 1 0.668912 0.92669 0.405787
570 1 0.751607 0.909158 0.514494
432 1 0.847422 0.92101 0.429489
433 1 0.999406 0.988609 0.509139
553 1 0.985463 0.82965 0.508859
431 1 0.914882 0.822014 0.420113
311 1 0.935158 0.989353 0.416054
574 1 0.909758 0.900557 0.514363
440 1 0.178315 0.0768875 0.585878
459 1 0.104508 0.172349 0.56515
444 1 0.329645 0.0757847 0.588048
582 1 0.249075 0.0831697 0.667352
605 1 0.167751 0.163797 0.664994
463 1 0.241981 0.160509 0.58102
609 1 0.343401 0.162723 0.655773
586 1 0.435222 0.0856899 0.648115
448 1 0.502958 0.0955578 0.557473
467 1 0.412935 0.165782 0.563055
471 1 0.587431 0.166402 0.57326
590 1 0.579994 0.100497 0.656452
617 1 0.665129 0.172174 0.652313
452 1 0.664609 0.0797084 0.581284
594 1 0.750898 0.0848184 0.665514
456 1 0.834262 0.0822351 0.579859
436 1 0.00188805 0.0803629 0.582138
454 1 0.911161 0.067614 0.507622
479 1 0.930209 0.162826 0.588754
455 1 0.925082 0.980435 0.602688
458 1 0.0903181 0.256211 0.48376
602 1 0.0911611 0.246262 0.663855
457 1 1.01263 0.159254 0.509482
464 1 0.175217 0.249754 0.574531
468 1 0.323411 0.235163 0.573259
466 1 0.411844 0.25715 0.493912
491 1 0.404263 0.323839 0.577174
472 1 0.500358 0.268223 0.571724
495 1 0.581209 0.330857 0.57549
476 1 0.670095 0.25324 0.5649
614 1 0.583734 0.254033 0.655844
641 1 0.662201 0.334838 0.648541
475 1 0.74668 0.160116 0.585478
618 1 0.740857 0.252958 0.652107
645 1 0.841678 0.317884 0.671519
499 1 0.765857 0.336985 0.590648
460 1 1.00504 0.250487 0.586772
480 1 0.842134 0.244588 0.593598
503 1 0.909957 0.324677 0.574788
622 1 0.914794 0.23909 0.667652
625 1 0.989511 0.329674 0.652445
483 1 0.0833409 0.323095 0.572033
484 1 0.00744635 0.421666 0.568002
626 1 0.086527 0.408909 0.660521
487 1 0.241914 0.333428 0.57827
488 1 0.165832 0.426458 0.577002
511 1 0.262741 0.505267 0.574229
492 1 0.326059 0.412068 0.584196
489 1 0.322878 0.327032 0.49567
490 1 0.401714 0.419417 0.493233
496 1 0.499949 0.424034 0.582185
515 1 0.413481 0.498745 0.589835
657 1 0.324782 0.495655 0.667597
517 1 0.485808 0.506764 0.496764
637 1 0.50482 0.334671 0.661419
638 1 0.58249 0.406595 0.66274
500 1 0.666205 0.42585 0.588233
519 1 0.578932 0.501158 0.581698
498 1 0.741819 0.407297 0.49532
642 1 0.750039 0.415837 0.665717
504 1 0.843006 0.414886 0.586557
523 1 0.752876 0.488116 0.572519
525 1 0.831922 0.500984 0.49124
646 1 0.909388 0.416639 0.672125
527 1 0.941115 0.49838 0.574058
509 1 0.15939 0.512239 0.490853
506 1 0.0861891 0.595598 0.493131
507 1 0.0785208 0.498663 0.572062
508 1 0.00222737 0.595549 0.56652
673 1 0.999047 0.663555 0.66568
649 1 0.000419804 0.480403 0.667595
512 1 0.172525 0.597542 0.571928
535 1 0.260125 0.678429 0.563144
516 1 0.345005 0.589537 0.580412
654 1 0.248647 0.576006 0.654832
514 1 0.409075 0.601272 0.50376
661 1 0.494097 0.498246 0.66219
520 1 0.489298 0.589332 0.586931
662 1 0.565074 0.573009 0.675829
524 1 0.664941 0.57055 0.575908
665 1 0.660176 0.489711 0.670772
666 1 0.755809 0.560236 0.655139
669 1 0.840069 0.499097 0.661577
528 1 0.845395 0.579272 0.580455
670 1 0.923252 0.576903 0.656999
531 1 0.0900116 0.670676 0.574278
530 1 0.0861747 0.745228 0.494814
532 1 0.981912 0.745719 0.587563
536 1 0.168441 0.757599 0.575553
674 1 0.0915664 0.748689 0.666877
533 1 0.17244 0.670607 0.493132
540 1 0.329579 0.745401 0.589115
559 1 0.25442 0.84444 0.589469
538 1 0.430476 0.74366 0.502893
539 1 0.42674 0.66374 0.589733
682 1 0.431943 0.755235 0.666255
544 1 0.51235 0.773251 0.578713
685 1 0.503646 0.664881 0.667699
543 1 0.579961 0.663164 0.587285
567 1 0.590926 0.846261 0.571902
689 1 0.66951 0.662478 0.652409
686 1 0.588784 0.747609 0.65918
548 1 0.648616 0.735707 0.574836
547 1 0.75439 0.655867 0.585814
690 1 0.741269 0.749926 0.669548
552 1 0.824271 0.738328 0.607142
693 1 0.818859 0.649776 0.664161
551 1 0.902365 0.673035 0.580137
694 1 0.904773 0.758392 0.672589
575 1 0.89673 0.834885 0.592028
435 1 0.100541 0.994864 0.583492
555 1 0.0763142 0.810622 0.577722
698 1 0.0943153 0.905066 0.648544
560 1 0.183587 0.92358 0.596864
701 1 0.169743 0.82792 0.68341
441 1 0.335605 1.00414 0.509044
439 1 0.255734 0.999567 0.598522
702 1 0.272425 0.900727 0.670901
564 1 0.335197 0.91832 0.582713
563 1 0.419624 0.828996 0.573748
585 1 0.344894 0.000305076 0.666679
443 1 0.415678 0.0114299 0.567305
706 1 0.425336 0.925873 0.653588
705 1 0.359382 0.830973 0.654937
447 1 0.579125 0.0166192 0.574536
568 1 0.496909 0.949221 0.571289
589 1 0.503195 0.00405093 0.668912
710 1 0.576096 0.91939 0.649844
709 1 0.494934 0.852312 0.660914
571 1 0.745977 0.821282 0.586856
572 1 0.654485 0.928549 0.58486
451 1 0.739631 1.01597 0.582389
576 1 0.831684 0.915958 0.598152
556 1 0.993323 0.904587 0.584516
597 1 0.829931 0.0119468 0.658169
717 1 0.823949 0.821119 0.681684
718 1 0.915825 0.896232 0.681363
578 1 0.0809906 0.102401 0.644216
584 1 0.16166 0.0906457 0.759336
607 1 0.252734 0.178951 0.739065
725 1 0.177518 0.997744 0.822629
726 1 0.267733 0.0822445 0.809883
588 1 0.356458 0.0839086 0.748328
730 1 0.423366 0.0846008 0.83717
611 1 0.41995 0.175143 0.732369
587 1 0.435844 0.00617141 0.750155
592 1 0.516661 0.0974003 0.739236
757 1 0.490097 0.164712 0.835779
615 1 0.595517 0.1758 0.736766
591 1 0.586643 0.00788266 0.73678
621 1 0.836466 0.155336 0.650632
596 1 0.658419 0.0836669 0.734488
738 1 0.740783 0.108557 0.812648
600 1 0.824132 0.0903945 0.741099
601 1 0.00285957 0.170264 0.662457
598 1 0.915036 0.081222 0.66287
580 1 0.999932 0.0926369 0.722789
599 1 0.91417 -0.0028724 0.74521
629 1 0.160383 0.325391 0.660641
603 1 0.0949975 0.174134 0.749169
746 1 0.0940995 0.244211 0.836658
608 1 0.16945 0.25557 0.732788
633 1 0.323118 0.328884 0.653011
606 1 0.2546 0.246262 0.652775
753 1 0.33884 0.169601 0.829583
612 1 0.331608 0.25644 0.74074
631 1 0.25093 0.329477 0.750987
610 1 0.415242 0.246963 0.659255
635 1 0.425645 0.318422 0.729653
613 1 0.499508 0.166395 0.651023
616 1 0.51709 0.249265 0.744
758 1 0.580222 0.253034 0.827352
639 1 0.580156 0.335181 0.74243
619 1 0.743734 0.176128 0.733517
620 1 0.664685 0.26898 0.737245
762 1 0.754175 0.245245 0.830386
624 1 0.839052 0.240128 0.754735
623 1 0.919015 0.166191 0.738253
604 1 0.00168926 0.248545 0.739417
627 1 0.0856081 0.327823 0.745436
651 1 0.0673406 0.499353 0.747795
632 1 0.170448 0.409731 0.739457
630 1 0.248104 0.408938 0.653143
636 1 0.337333 0.413278 0.734578
653 1 0.151119 0.509828 0.661053
655 1 0.238454 0.503343 0.741441
801 1 0.330132 0.498698 0.827817
634 1 0.404932 0.399361 0.654687
778 1 0.432618 0.428919 0.838321
640 1 0.490044 0.416464 0.745998
785 1 0.669401 0.32557 0.830886
782 1 0.577347 0.420768 0.838597
644 1 0.662587 0.420714 0.752747
663 1 0.580929 0.502749 0.751097
643 1 0.756375 0.315479 0.742505
648 1 0.82667 0.422543 0.748112
789 1 0.83562 0.331088 0.829018
628 1 0.981593 0.417572 0.760173
647 1 0.92159 0.323538 0.738477
790 1 0.906049 0.43655 0.838001
650 1 0.0651907 0.58302 0.671458
794 1 0.089509 0.583421 0.831518
675 1 0.0861475 0.657228 0.757003
793 1 1.0013 0.487914 0.836735
656 1 0.173487 0.587096 0.745516
798 1 0.25531 0.581298 0.811894
660 1 0.337171 0.584808 0.747457
658 1 0.417731 0.576263 0.667877
659 1 0.420529 0.502572 0.745482
802 1 0.417788 0.583206 0.83007
664 1 0.495918 0.594674 0.753996
805 1 0.495062 0.511487 0.839694
806 1 0.575167 0.599224 0.85006
809 1 0.669667 0.490102 0.83231
668 1 0.654049 0.574984 0.742144
829 1 0.501175 0.680361 0.827547
667 1 0.732755 0.502377 0.741468
810 1 0.737198 0.585302 0.829762
691 1 0.744973 0.665003 0.749118
833 1 0.65782 0.666909 0.830213
813 1 0.821875 0.516989 0.821411
671 1 0.908067 0.506134 0.749355
652 1 0.995304 0.577085 0.759939
672 1 0.835015 0.583163 0.737535
814 1 0.917303 0.578717 0.837827
676 1 0.993981 0.741529 0.749993
699 1 0.0693355 0.823307 0.748462
680 1 0.170339 0.7404 0.73995
845 1 0.15606 0.848045 0.820933
677 1 0.172044 0.663078 0.664629
678 1 0.258002 0.74204 0.661725
679 1 0.258459 0.665057 0.735906
822 1 0.246435 0.760734 0.829477
681 1 0.346107 0.665232 0.670393
825 1 0.338459 0.662878 0.830183
683 1 0.41261 0.670093 0.75678
684 1 0.325775 0.76557 0.742595
707 1 0.420683 0.840425 0.744093
826 1 0.413205 0.753429 0.832693
687 1 0.585951 0.660531 0.737871
688 1 0.499787 0.753074 0.749178
692 1 0.659232 0.739061 0.738271
830 1 0.580411 0.748858 0.822354
696 1 0.833542 0.729447 0.754273
834 1 0.738292 0.752472 0.823573
837 1 0.83558 0.652848 0.817361
695 1 0.920456 0.651245 0.737329
861 1 0.825992 0.842069 0.797445
719 1 0.92457 0.82792 0.763015
577 1 0.0110384 0.987733 0.657033
841 1 -0.00173649 0.841597 0.847196
579 1 0.0803157 0.00169165 0.745694
842 1 0.0838684 0.931341 0.8429
581 1 0.162692 0.00358034 0.67192
703 1 0.255009 0.846254 0.75446
704 1 0.169121 0.912951 0.745319
583 1 0.252538 0.997993 0.746832
846 1 0.260982 0.918948 0.827787
729 1 0.356515 0.00135694 0.822227
708 1 0.351231 0.909082 0.737079
849 1 0.332731 0.825307 0.836138
850 1 0.424141 0.911414 0.829358
737 1 0.648525 0.00913204 0.826202
711 1 0.577065 0.824043 0.744108
712 1 0.504103 0.923139 0.748937
857 1 0.651549 0.824898 0.830891
853 1 0.504697 0.82708 0.828322
713 1 0.664418 0.839356 0.655237
715 1 0.722595 0.832447 0.750775
593 1 0.66835 1.0135 0.661735
595 1 0.733194 1.01203 0.746957
716 1 0.64728 0.925244 0.753243
714 1 0.748009 0.918134 0.673752
720 1 0.825653 0.923664 0.736009
697 1 0.996 0.822098 0.655602
700 1 0.00834853 0.926535 0.752476
862 1 0.921605 0.920988 0.81734
722 1 0.0969631 0.0947931 0.842583
745 1 0.00166379 0.177677 0.822007
728 1 0.18117 0.084868 0.908572
747 1 0.0952824 0.169187 0.919423
9 1 0.328255 0.00652722 1.00254
6 1 0.240498 0.0773634 0.010418
732 1 0.341828 0.0838081 0.911098
5 1 0.164663 -0.0100584 0.988082
727 1 0.245505 0.00586174 0.904006
10 1 0.427199 0.0878038 0.996252
731 1 0.431745 0.00119413 0.915162
755 1 0.426283 0.171548 0.915781
734 1 0.576598 0.0966776 0.825037
761 1 0.655535 0.180646 0.826375
733 1 0.511279 0.0130208 0.83702
736 1 0.501836 0.0929135 0.921181
735 1 0.589954 0.984437 0.918169
740 1 0.652752 0.0919238 0.90682
739 1 0.741641 0.0275197 0.894573
21 1 0.82696 1.00925 0.980432
742 1 0.912732 0.0928228 0.817455
724 1 0.990223 0.0981674 0.905417
744 1 0.834682 0.0821534 0.905389
22 1 0.915926 0.0601732 0.996693
749 1 0.17023 0.171033 0.82855
773 1 0.178092 0.330169 0.826464
26 1 0.0875303 0.249264 1.00836
750 1 0.257236 0.249905 0.836661
752 1 0.180264 0.250676 0.909637
751 1 0.257725 0.160902 0.900508
775 1 0.252227 0.34743 0.900443
754 1 0.414338 0.243084 0.817101
777 1 0.351811 0.350855 0.826065
781 1 0.487082 0.332711 0.824104
57 1 0.324696 0.341579 1.00189
34 1 0.411516 0.257979 0.988253
756 1 0.342622 0.247932 0.895563
779 1 0.420053 0.345119 0.911603
41 1 0.675909 0.176444 1.01089
760 1 0.493581 0.253583 0.889888
38 1 0.594997 0.253363 0.987223
759 1 0.574958 0.16807 0.909322
763 1 0.739706 0.153887 0.909895
764 1 0.666621 0.244121 0.918297
42 1 0.760921 0.24614 0.990627
45 1 0.837901 0.164922 0.995952
765 1 0.834443 0.162822 0.82105
766 1 0.920223 0.24749 0.827985
767 1 0.912124 0.173715 0.917863
748 1 -0.0155674 0.24563 0.923592
768 1 0.836499 0.253636 0.9103
25 1 0.99815 0.161561 0.993066
769 1 1.00202 0.326298 0.82609
770 1 0.087158 0.402231 0.837666
771 1 0.0665686 0.318568 0.911653
49 1 0.989459 0.338368 0.993357
772 1 0.00138974 0.402713 0.903912
774 1 0.250261 0.414944 0.818999
776 1 0.172825 0.41436 0.904356
54 1 0.248938 0.419374 0.990238
799 1 0.246841 0.516589 0.906801
780 1 0.33774 0.414188 0.911845
784 1 0.498379 0.423711 0.913798
783 1 0.593047 0.325832 0.910768
62 1 0.599591 0.413231 0.988596
788 1 0.671537 0.408472 0.903771
65 1 0.68428 0.334927 0.984791
786 1 0.751444 0.407994 0.814365
66 1 0.749425 0.414741 0.99451
787 1 0.754715 0.323874 0.904038
792 1 0.821057 0.414898 0.907871
69 1 0.832815 0.332282 0.99469
791 1 0.909046 0.330989 0.913027
70 1 0.909636 0.420648 0.99238
815 1 0.914852 0.506582 0.907886
795 1 0.08571 0.484603 0.901333
101 1 0.181658 0.670499 0.991272
797 1 0.166848 0.488106 0.821989
77 1 0.170453 0.509925 0.999959
800 1 0.168294 0.577515 0.90358
78 1 0.254169 0.577738 0.0132947
804 1 0.33214 0.577488 0.916585
82 1 0.408488 0.576415 -0.0061244
803 1 0.430536 0.508549 0.91983
827 1 0.423127 0.663333 0.9309
109 1 0.505778 0.6852 0.00204159
85 1 0.516909 0.497903 1.00316
807 1 0.585874 0.513274 0.917563
808 1 0.517279 0.581173 0.946938
812 1 0.668734 0.594975 0.922915
89 1 0.663285 0.501476 0.00606651
831 1 0.577624 0.678452 0.921997
811 1 0.733374 0.49286 0.917639
90 1 0.744161 0.58576 1.00448
117 1 0.816538 0.666233 1.00276
113 1 0.666439 0.672604 -0.0116386
835 1 0.750847 0.689633 0.917678
94 1 0.921782 0.584963 0.999847
796 1 0.0136646 0.582889 0.905074
93 1 0.827744 0.510982 -0.00229934
816 1 0.821985 0.576356 0.908054
839 1 0.90568 0.652247 0.918294
821 1 0.182651 0.668747 0.822852
819 1 0.0994966 0.659691 0.908715
818 1 0.0890623 0.75202 0.821219
843 1 0.0749619 0.827734 0.910901
102 1 0.253301 0.764501 0.998514
125 1 0.16014 0.83437 0.0110168
823 1 0.252613 0.666461 0.903746
824 1 0.164021 0.754383 0.920147
847 1 0.234915 0.830136 0.918534
106 1 0.410886 0.766834 0.98603
828 1 0.32823 0.740598 0.903471
110 1 0.58346 0.756789 0.00179773
133 1 0.494168 0.844907 0.9981
137 1 0.660537 0.845323 0.0062702
832 1 0.497992 0.758063 0.911149
855 1 0.588721 0.841499 0.919828
836 1 0.677558 0.765901 0.911463
114 1 0.741157 0.746529 1.00887
97 1 1.01543 0.649407 0.981477
817 1 1.00507 0.656024 0.830944
840 1 0.826944 0.761687 0.91532
118 1 0.909073 0.745574 0.988215
838 1 0.921557 0.746224 0.834782
820 1 0.00771427 0.737098 0.897381
723 1 0.0837728 0.0150143 0.920081
848 1 0.162966 0.91952 0.913078
844 1 0.995817 0.927978 0.923954
129 1 0.330301 0.836539 0.967923
126 1 0.253567 0.926898 -0.0115526
13 1 0.498876 -0.00350106 -0.00245342
851 1 0.421884 0.839755 0.899239
852 1 0.346878 0.92156 0.90743
130 1 0.41881 0.927174 1.00041
856 1 0.507276 0.918106 0.911812
854 1 0.582113 0.912284 0.827543
134 1 0.582846 0.922428 1.01011
858 1 0.753524 0.921182 0.822883
17 1 0.672418 0.996165 -0.0244007
141 1 0.832732 0.843912 0.994909
860 1 0.666549 0.911405 0.903061
138 1 0.747757 0.915202 1.00018
859 1 0.75809 0.846893 0.90119
864 1 0.817727 0.937535 0.909163
741 1 0.823103 0.00301158 0.816714
721 1 1.00863 1.02243 0.832826
743 1 0.910012 -0.000166921 0.892255
863 1 0.904657 0.841324 0.907912
142 1 0.910376 0.924541 0.982426
