ITEM: TIMESTEP
6750
ITEM: NUMBER OF ATOMS
864
ITEM: BOX BOUNDS pp pp pp
0.0000000000000000e+00 3.1559999999999999e+01
0.0000000000000000e+00 3.1559999999999999e+01
0.0000000000000000e+00 3.1559999999999999e+01
ITEM: ATOMS id type xs ys zs
146 1 0.0953486 0.0818693 0.160754
8 1 0.180576 0.0823046 0.0665158
3 1 0.085637 0.998171 0.0570476
150 1 0.246234 0.0845328 0.163575
173 1 0.171535 0.166463 0.172448
149 1 0.1796 -0.00886891 0.151553
6 1 0.265823 0.0845407 0.994103
12 1 0.324862 0.0874353 0.0933668
11 1 0.415332 1.00253 0.0869212
177 1 0.334994 0.16869 0.160228
16 1 0.497146 0.0791638 0.102476
15 1 0.574691 -0.0044051 0.0767994
20 1 0.670258 0.0845615 0.07737
17 1 0.664629 1.00466 0.98968
161 1 0.688752 0.011112 0.17031
158 1 0.600587 0.0660426 0.153929
162 1 0.755015 0.0936312 0.159412
19 1 0.739188 -0.00384184 0.0562561
24 1 0.848737 0.0900763 0.081352
43 1 0.763563 0.155548 0.0765589
4 1 0.0122682 0.0848108 0.0887076
145 1 0.00239 0.0057509 0.173191
27 1 0.0912697 0.16157 0.083227
32 1 0.162878 0.260512 0.078476
170 1 0.0867178 0.239272 0.167369
29 1 0.174612 0.171896 0.998519
31 1 0.246355 0.176159 0.0794444
55 1 0.240958 0.339748 0.0723859
197 1 0.170959 0.340562 0.160179
35 1 0.425432 0.162687 0.0985573
33 1 0.340815 0.158317 0.0128267
36 1 0.329851 0.252544 0.0895631
34 1 0.409278 0.235685 0.0138735
40 1 0.501738 0.260568 0.0943719
205 1 0.515569 0.336978 0.169439
39 1 0.589765 0.16689 0.102317
182 1 0.586507 0.254305 0.176102
63 1 0.589869 0.32865 0.0827939
181 1 0.499413 0.168194 0.182363
44 1 0.670873 0.244673 0.0943548
209 1 0.676818 0.322199 0.164892
185 1 0.669322 0.152029 0.168261
189 1 0.85129 0.172 0.167662
169 1 0.0131608 0.169363 0.172375
28 1 -0.00541438 0.252295 0.0657932
193 1 0.0099555 0.325518 0.168009
48 1 0.838619 0.253713 0.0842431
47 1 0.927919 0.178461 0.090078
213 1 0.832326 0.338454 0.163446
25 1 0.993236 0.162362 0.00781166
45 1 0.846659 0.158167 0.992188
51 1 0.0638953 0.335119 0.0835107
52 1 0.997049 0.419599 0.0769585
73 1 1.0007 0.503335 0.990188
217 1 0.00264964 0.491857 0.163925
50 1 0.0795288 0.409458 -0.00569087
56 1 0.161585 0.415928 0.0850011
79 1 0.25982 0.498669 0.0917326
60 1 0.333244 0.420087 0.0743029
59 1 0.409341 0.340351 0.0760017
83 1 0.419283 0.498811 0.0809599
229 1 0.505367 0.496587 0.153518
201 1 0.330949 0.345801 0.155153
64 1 0.504584 0.398773 0.0777358
206 1 0.59081 0.421151 0.161246
87 1 0.574764 0.488836 0.0633898
233 1 0.684091 0.507691 0.174402
67 1 0.749767 0.328777 0.0890828
68 1 0.683862 0.434355 0.0907351
72 1 0.836572 0.417738 0.0824712
71 1 0.915088 0.343631 0.0855225
70 1 0.917 0.436814 0.991173
75 1 0.0662368 0.494959 0.0799968
99 1 0.0815963 0.656576 0.0790464
218 1 0.0747012 0.574375 0.156937
80 1 0.169176 0.581107 0.080622
241 1 0.00601227 0.668562 0.170254
74 1 0.0745108 0.582836 1.00422
222 1 0.254094 0.579491 0.156477
78 1 0.264432 0.560513 1.013
103 1 0.255286 0.649088 0.0757598
221 1 0.163725 0.49396 0.15588
84 1 0.339172 0.574999 0.0918686
107 1 0.411999 0.656446 0.0931243
105 1 0.333898 0.653621 0.994127
82 1 0.407133 0.571434 0.00358289
88 1 0.493927 0.577718 0.0845947
230 1 0.568586 0.583617 0.178776
109 1 0.486799 0.658383 0.97321
111 1 0.583052 0.667767 0.0870001
257 1 0.668203 0.677641 0.167953
86 1 0.577585 0.58453 -0.0202412
113 1 0.655115 0.651603 0.997189
91 1 0.767961 0.509888 0.0805821
92 1 0.659837 0.575553 0.0813364
261 1 0.834118 0.680489 0.16439
234 1 0.755287 0.587896 0.175191
89 1 0.662442 0.500858 0.988985
95 1 0.917801 0.499588 0.0866154
76 1 0.989494 0.581586 0.0845107
96 1 0.842895 0.589992 0.0962387
94 1 0.910368 0.577652 0.993466
104 1 0.172872 0.735408 0.0785665
100 1 0.00115961 0.742997 0.0905365
242 1 0.0852389 0.756476 0.164291
125 1 0.173858 0.814502 1.00037
127 1 0.247883 0.83906 0.0791863
246 1 0.248943 0.738325 0.162441
102 1 0.256704 0.735594 0.999957
108 1 0.331124 0.734386 0.0879966
131 1 0.401484 0.826553 0.0872574
133 1 0.492092 0.818917 -0.000678955
106 1 0.411884 0.730186 0.99757
112 1 0.50151 0.740014 0.0770252
254 1 0.58183 0.740824 0.166909
135 1 0.575045 0.825147 0.073997
116 1 0.673038 0.753742 0.0864829
277 1 0.491909 0.817763 0.144176
110 1 0.58318 0.741108 0.00876487
115 1 0.747092 0.674349 0.0893679
114 1 0.7546 0.729359 -0.00171529
120 1 0.841623 0.752548 0.0801543
117 1 0.836695 0.664681 1.00689
97 1 0.989945 0.67657 1.01088
119 1 0.923459 0.668649 0.0837782
123 1 0.0819215 0.838129 0.0815944
128 1 0.161523 0.910069 0.0559415
5 1 0.180984 1.00079 0.989117
122 1 0.0742529 0.901168 0.985158
7 1 0.258398 1.00303 0.0725689
126 1 0.254775 0.932968 0.98499
132 1 0.331474 0.929219 0.0816224
274 1 0.420395 0.914651 0.163228
129 1 0.323679 0.83177 0.00529216
136 1 0.504773 0.914568 0.0788586
140 1 0.653544 0.93377 0.0773212
278 1 0.588666 0.934724 0.162543
281 1 0.671116 0.842091 0.162406
134 1 0.574656 0.906611 0.9952
139 1 0.746284 0.840794 0.0764073
137 1 0.655215 0.846665 0.00464442
144 1 0.829765 0.917847 0.0887355
138 1 0.739607 0.911945 1.00342
23 1 0.918956 0.981913 0.0949106
143 1 0.912888 0.849432 0.0883674
1 1 0.986428 0.987174 0.979391
124 1 0.00439884 0.912446 0.0724357
21 1 0.831976 -0.00356633 0.00246385
148 1 1.00216 0.0998137 0.247231
147 1 0.0813955 -0.0017296 0.251969
152 1 0.171486 0.0843661 0.268548
175 1 0.245927 0.178823 0.250969
151 1 0.242712 0.00785009 0.263512
293 1 0.156001 0.00807868 0.343704
154 1 0.398806 0.0742171 0.170236
157 1 0.491632 0.995258 0.172376
321 1 0.339366 0.182578 0.342525
156 1 0.327886 0.0903427 0.263688
179 1 0.40508 0.16848 0.247158
160 1 0.521336 0.0744327 0.246526
164 1 0.68111 0.0767727 0.263857
301 1 0.496505 0.989494 0.32704
305 1 0.679555 0.993664 0.333729
306 1 0.755765 0.0788896 0.338355
168 1 0.842755 0.0893813 0.249109
163 1 0.763672 0.00449167 0.254705
166 1 0.92407 0.0854944 0.165937
167 1 0.922052 -0.000596242 0.236484
165 1 0.832922 0.00458306 0.155136
289 1 1.00574 1.00484 0.322032
309 1 0.845695 0.0055183 0.333826
171 1 0.087438 0.161411 0.268916
313 1 1.008 0.168823 0.345737
195 1 0.101378 0.331617 0.239741
174 1 0.244829 0.253388 0.159226
176 1 0.160539 0.246799 0.251052
180 1 0.330673 0.269898 0.243007
199 1 0.249587 0.332216 0.246486
318 1 0.25178 0.27021 0.342186
178 1 0.4166 0.250634 0.162802
325 1 0.496853 0.181572 0.317397
183 1 0.593951 0.150365 0.233754
184 1 0.487472 0.262072 0.235157
188 1 0.683282 0.235837 0.250111
329 1 0.672417 0.168614 0.336871
326 1 0.586896 0.232368 0.321848
186 1 0.767481 0.245046 0.167815
187 1 0.758308 0.164172 0.257812
192 1 0.842564 0.257295 0.251318
211 1 0.747947 0.327864 0.249556
190 1 0.906136 0.266907 0.165252
172 1 0.0180846 0.253273 0.252018
191 1 0.925679 0.180995 0.242325
215 1 0.927174 0.335799 0.244844
194 1 0.081503 0.41823 0.157359
196 1 0.0142406 0.413747 0.248421
338 1 0.0984812 0.413252 0.336823
365 1 0.157283 0.498394 0.333968
198 1 0.263034 0.430819 0.175312
200 1 0.184483 0.413377 0.241184
342 1 0.253667 0.435349 0.33372
225 1 0.347619 0.501236 0.182373
202 1 0.413138 0.421669 0.163696
203 1 0.420161 0.343378 0.244359
204 1 0.331485 0.421912 0.261735
227 1 0.428683 0.481254 0.255505
373 1 0.512542 0.489633 0.334044
208 1 0.514666 0.416471 0.248123
207 1 0.599999 0.329389 0.268312
231 1 0.596248 0.496122 0.255948
212 1 0.672354 0.4143 0.245132
210 1 0.754318 0.406455 0.164122
354 1 0.757631 0.40845 0.327668
214 1 0.919809 0.412517 0.169852
216 1 0.83446 0.409194 0.24382
239 1 0.91985 0.511427 0.254276
381 1 0.845971 0.519864 0.328342
219 1 0.0972026 0.48067 0.252117
220 1 0.0194738 0.57958 0.240695
245 1 0.171386 0.648662 0.166274
224 1 0.165939 0.56919 0.247995
361 1 0.00209977 0.50525 0.323075
223 1 0.255133 0.507023 0.239154
226 1 0.417881 0.588627 0.172281
253 1 0.487605 0.665635 0.169771
228 1 0.344464 0.581015 0.254813
232 1 0.490841 0.564966 0.244756
251 1 0.404974 0.679345 0.254393
397 1 0.500494 0.668184 0.317926
236 1 0.668141 0.592872 0.257216
255 1 0.591684 0.671175 0.243737
235 1 0.764077 0.49269 0.24685
259 1 0.763912 0.671857 0.239588
240 1 0.844697 0.590088 0.24131
238 1 0.92997 0.583346 0.169704
237 1 0.853551 0.500936 0.171003
263 1 0.934723 0.647703 0.257337
385 1 0.00795063 0.661114 0.340081
243 1 0.0974286 0.668481 0.2472
248 1 0.179642 0.73545 0.252817
389 1 0.16106 0.646402 0.327413
386 1 0.0820535 0.741852 0.328912
249 1 0.330862 0.655338 0.173227
247 1 0.250821 0.648282 0.248254
252 1 0.318099 0.73985 0.245169
390 1 0.254637 0.74474 0.323414
271 1 0.232052 0.842356 0.23497
250 1 0.411427 0.739672 0.170468
393 1 0.338573 0.676576 0.339153
394 1 0.408846 0.762871 0.329664
417 1 0.317481 0.825117 0.324137
256 1 0.496363 0.755153 0.238007
398 1 0.589987 0.75409 0.323752
260 1 0.66006 0.75792 0.237583
279 1 0.567714 0.832221 0.225774
425 1 0.684715 0.837071 0.325464
258 1 0.753131 0.754169 0.170703
283 1 0.761237 0.851727 0.24758
264 1 0.835102 0.753058 0.247764
265 1 0.00874876 0.831303 0.167324
244 1 0.00785421 0.752532 0.247514
262 1 0.921453 0.7718 0.169216
266 1 0.0870335 0.934336 0.154102
267 1 0.0947093 0.828133 0.25006
269 1 0.162723 0.821649 0.159628
272 1 0.170564 0.928512 0.245581
410 1 0.0835796 0.919595 0.324868
270 1 0.259228 0.916133 0.170354
413 1 0.180866 0.830812 0.324435
414 1 0.249386 0.917631 0.344409
273 1 0.328298 0.824612 0.187001
153 1 0.335569 0.987449 0.1682
276 1 0.328015 0.917671 0.26686
275 1 0.413671 0.831122 0.240948
155 1 0.409693 1.00177 0.261125
159 1 0.595695 0.0100785 0.258261
280 1 0.499629 0.910524 0.2412
422 1 0.593974 0.902206 0.317517
285 1 0.827209 0.833541 0.160278
282 1 0.746518 0.925134 0.157328
284 1 0.670456 0.91652 0.238939
426 1 0.763321 0.930511 0.321941
288 1 0.837877 0.930672 0.228429
286 1 0.922216 0.912855 0.170138
287 1 0.927454 0.844238 0.246896
268 1 0.00477082 0.913463 0.239187
290 1 0.0747295 0.0763928 0.340522
315 1 0.0886599 0.163825 0.407963
292 1 0.994681 0.0891406 0.43291
457 1 0.00413206 0.169617 0.49871
434 1 0.0877027 0.0943221 0.4913
294 1 0.260568 0.108333 0.343779
296 1 0.178037 0.0939449 0.413315
317 1 0.171323 0.178384 0.339726
319 1 0.253121 0.17904 0.416673
461 1 0.174243 0.154819 0.499912
438 1 0.259347 0.0786502 0.486985
300 1 0.346741 0.0940549 0.418803
298 1 0.443489 0.0818971 0.324276
323 1 0.426975 0.166701 0.413592
442 1 0.409182 0.0674253 0.494121
465 1 0.346873 0.170012 0.499617
302 1 0.596598 0.0843667 0.33141
304 1 0.497525 0.0706586 0.422924
327 1 0.583618 0.157043 0.41517
303 1 0.591137 0.980414 0.391443
333 1 0.847562 0.167545 0.336661
308 1 0.674621 0.074756 0.416503
331 1 0.772545 0.153727 0.414452
307 1 0.751949 0.994498 0.409689
449 1 0.65759 -0.0150059 0.491043
312 1 0.849788 0.0852162 0.422503
310 1 0.934752 0.0811185 0.336422
454 1 0.907789 0.0815595 0.511703
314 1 0.0854665 0.253322 0.337047
316 1 0.989086 0.260086 0.428098
339 1 0.0701768 0.348883 0.423146
458 1 0.0964315 0.235875 0.498121
320 1 0.170163 0.24613 0.432854
324 1 0.345939 0.261614 0.423692
322 1 0.419669 0.253928 0.313754
347 1 0.424169 0.338764 0.411759
466 1 0.435833 0.251972 0.503772
328 1 0.510703 0.254273 0.41315
497 1 0.666558 0.330557 0.49479
349 1 0.513281 0.321865 0.330527
351 1 0.587989 0.329885 0.411902
493 1 0.513374 0.330201 0.502734
330 1 0.761678 0.238131 0.338916
353 1 0.672238 0.330154 0.347174
332 1 0.649634 0.242354 0.421701
355 1 0.741442 0.313117 0.41691
336 1 0.850704 0.25475 0.414136
474 1 0.750579 0.2377 0.504827
334 1 0.92358 0.25433 0.339956
337 1 1.00997 0.334742 0.330536
335 1 0.924031 0.170122 0.422391
478 1 0.917103 0.243409 0.52493
357 1 0.842053 0.337808 0.32869
501 1 0.854469 0.33268 0.486292
359 1 0.925537 0.347938 0.409576
481 1 0.997199 0.347019 0.49513
363 1 0.0945702 0.494147 0.418132
344 1 0.175099 0.406391 0.41703
505 1 0.0139396 0.49799 0.482294
345 1 0.346597 0.332201 0.325253
369 1 0.347346 0.50083 0.337251
341 1 0.16497 0.334238 0.341879
343 1 0.256056 0.32926 0.428329
348 1 0.331722 0.419741 0.39867
513 1 0.322621 0.495133 0.465588
346 1 0.430923 0.402612 0.326408
490 1 0.42892 0.413559 0.502462
352 1 0.503558 0.402422 0.413814
350 1 0.581498 0.407964 0.335432
494 1 0.574325 0.41916 0.488234
356 1 0.666675 0.426148 0.411055
340 1 0.00364886 0.424912 0.400936
360 1 0.832654 0.430367 0.421804
358 1 0.927088 0.424161 0.32075
362 1 0.0815395 0.579479 0.344473
364 1 1.0089 0.582617 0.417338
387 1 0.0829664 0.674023 0.409562
509 1 0.167848 0.487057 0.503544
368 1 0.161457 0.586052 0.423047
529 1 0.00450773 0.654446 0.496875
506 1 0.0803685 0.585787 0.497178
366 1 0.24065 0.561165 0.326025
367 1 0.240856 0.503715 0.411098
510 1 0.247294 0.590814 0.477899
370 1 0.420951 0.578624 0.334406
371 1 0.417895 0.499711 0.415423
372 1 0.340712 0.593921 0.405626
395 1 0.421914 0.686249 0.407538
376 1 0.500786 0.578604 0.410621
514 1 0.413216 0.570286 0.496755
541 1 0.501323 0.653365 0.4937
374 1 0.575516 0.58593 0.33078
375 1 0.599162 0.504048 0.400292
399 1 0.58057 0.668243 0.414952
380 1 0.671827 0.593996 0.414375
401 1 0.664466 0.662137 0.33963
521 1 0.674401 0.500899 0.503852
378 1 0.753464 0.575889 0.345962
379 1 0.746489 0.494547 0.42015
377 1 0.681551 0.494006 0.328597
403 1 0.745728 0.66392 0.416871
384 1 0.846791 0.590077 0.427149
522 1 0.760755 0.59308 0.50557
382 1 0.91611 0.589292 0.347049
383 1 0.924065 0.502906 0.40771
407 1 0.931899 0.667093 0.414937
530 1 0.0897433 0.754246 0.486483
557 1 0.171979 0.836088 0.48667
553 1 0.00530019 0.847951 0.492235
533 1 0.173051 0.677267 0.485728
391 1 0.248081 0.667798 0.409562
392 1 0.166628 0.749638 0.408825
534 1 0.25319 0.75785 0.500817
537 1 0.335937 0.662209 0.492785
415 1 0.244755 0.820623 0.408539
396 1 0.327735 0.756982 0.412477
538 1 0.402292 0.761286 0.491596
561 1 0.335509 0.839013 0.491639
421 1 0.499435 0.838827 0.327747
545 1 0.664462 0.685678 0.514866
400 1 0.50068 0.751759 0.417618
404 1 0.652523 0.753117 0.406432
402 1 0.755002 0.749305 0.309388
429 1 0.8405 0.831745 0.324796
408 1 0.82512 0.747541 0.402322
409 1 -0.00597064 0.849453 0.328955
405 1 0.843199 0.681084 0.326248
388 1 0.00462185 0.771034 0.414412
573 1 0.828071 0.832329 0.487717
406 1 0.922497 0.749934 0.342318
550 1 0.915794 0.761216 0.482584
431 1 0.92496 0.850134 0.411922
411 1 0.0808919 0.844162 0.400773
291 1 0.0837079 1.01131 0.422732
412 1 0.00978213 0.924105 0.402355
554 1 0.103884 0.921921 0.483396
295 1 0.242567 0.00356983 0.403578
416 1 0.165618 0.916517 0.403844
558 1 0.249338 0.923977 0.485062
419 1 0.418124 0.836961 0.415827
297 1 0.326585 0.0130064 0.332334
299 1 0.414071 0.987651 0.395584
420 1 0.341297 0.910467 0.410486
418 1 0.408006 0.899413 0.33184
562 1 0.413784 0.927925 0.502223
423 1 0.585794 0.835113 0.413836
424 1 0.49671 0.91371 0.41548
428 1 0.670397 0.908122 0.40213
427 1 0.745383 0.813688 0.408096
570 1 0.747405 0.927348 0.505613
432 1 0.833888 0.905757 0.409204
430 1 0.909642 0.919384 0.333372
311 1 0.919361 1.00074 0.432378
574 1 0.918701 0.913273 0.49611
440 1 0.163806 0.0837659 0.590119
578 1 0.0939019 0.0958809 0.66953
436 1 0.0122932 0.0940575 0.580824
577 1 0.00919242 0.00187382 0.659646
605 1 0.168012 0.176316 0.656243
463 1 0.247553 0.168731 0.577953
444 1 0.322527 0.0556376 0.576301
582 1 0.262061 0.0666724 0.653303
586 1 0.40196 0.0724524 0.649946
448 1 0.512847 0.0803827 0.592497
443 1 0.420082 0.993727 0.581016
446 1 0.580361 0.0748235 0.494939
471 1 0.585233 0.159858 0.60424
473 1 0.677167 0.154452 0.476999
447 1 0.582081 0.996346 0.580472
450 1 0.75874 0.0785507 0.499957
452 1 0.671408 0.0845083 0.577157
475 1 0.742218 0.164148 0.583876
617 1 0.671647 0.15628 0.667251
477 1 0.834809 0.166521 0.499927
456 1 0.834994 0.0880214 0.59161
479 1 0.912388 0.169228 0.598545
455 1 0.913102 0.00809186 0.593642
459 1 0.0933171 0.165916 0.585299
601 1 0.00272185 0.17032 0.664397
602 1 0.0875579 0.242369 0.685616
464 1 0.166121 0.256252 0.569025
460 1 0.00415245 0.223568 0.582086
485 1 0.157675 0.351564 0.502325
462 1 0.263552 0.252601 0.509991
487 1 0.258616 0.33174 0.576505
633 1 0.332129 0.335061 0.675753
467 1 0.423711 0.152819 0.581432
468 1 0.344124 0.240494 0.587275
491 1 0.42796 0.336108 0.594219
489 1 0.351631 0.337996 0.499842
610 1 0.420033 0.245876 0.667663
470 1 0.582202 0.23242 0.502833
469 1 0.505218 0.159765 0.500372
472 1 0.504527 0.245766 0.593359
476 1 0.673255 0.242797 0.58607
495 1 0.604613 0.324744 0.583482
641 1 0.674785 0.323116 0.66337
618 1 0.747831 0.257013 0.6749
499 1 0.756584 0.334474 0.574961
621 1 0.827614 0.17305 0.668719
480 1 0.820337 0.247318 0.593912
503 1 0.910793 0.332415 0.588511
645 1 0.839979 0.334619 0.674048
483 1 0.0737478 0.324403 0.570117
482 1 0.079345 0.413002 0.500724
626 1 0.0702615 0.404907 0.673158
484 1 0.984515 0.413869 0.589736
486 1 0.252812 0.411122 0.493832
488 1 0.15915 0.414791 0.595943
630 1 0.256064 0.416903 0.674533
492 1 0.346361 0.411269 0.585326
515 1 0.423946 0.504526 0.571162
517 1 0.512074 0.497597 0.499356
634 1 0.428503 0.412576 0.661962
496 1 0.512343 0.416681 0.582414
519 1 0.585857 0.491145 0.577406
637 1 0.506895 0.326385 0.667504
525 1 0.825734 0.504268 0.504209
498 1 0.73604 0.405121 0.495692
500 1 0.665707 0.413635 0.576444
502 1 0.917581 0.430812 0.503472
504 1 0.835501 0.411077 0.578047
646 1 0.919533 0.416134 0.680518
527 1 0.923295 0.505216 0.589122
669 1 0.843375 0.505655 0.662976
649 1 1.00454 0.492694 0.674681
507 1 0.0792517 0.49737 0.590951
508 1 1.0104 0.579059 0.580118
673 1 0.991636 0.662847 0.663404
650 1 0.0952316 0.595075 0.652392
512 1 0.178358 0.588311 0.577549
511 1 0.250776 0.483295 0.581958
654 1 0.245261 0.584898 0.657391
516 1 0.320068 0.571976 0.568273
661 1 0.510007 0.515895 0.673345
520 1 0.508712 0.574762 0.586803
518 1 0.598306 0.586623 0.487185
524 1 0.654199 0.584792 0.589793
543 1 0.568318 0.683883 0.584211
549 1 0.836519 0.68279 0.493015
523 1 0.744281 0.511912 0.587545
547 1 0.742684 0.669847 0.581592
693 1 0.844833 0.668405 0.684539
526 1 0.927333 0.568101 0.504707
528 1 0.846816 0.587416 0.594026
670 1 0.929211 0.574409 0.674222
551 1 0.920698 0.67482 0.566063
531 1 0.103562 0.678396 0.56435
532 1 0.0144916 0.739379 0.564182
674 1 0.0762051 0.744845 0.672346
677 1 0.169423 0.682077 0.658712
535 1 0.256681 0.670966 0.573558
536 1 0.163069 0.763704 0.569795
540 1 0.332427 0.759082 0.579446
559 1 0.259955 0.838076 0.568359
539 1 0.391425 0.65802 0.587996
563 1 0.421972 0.839994 0.580616
544 1 0.474078 0.734986 0.567113
569 1 0.671205 0.836137 0.500877
542 1 0.575366 0.745049 0.501685
686 1 0.590487 0.763806 0.674789
567 1 0.577857 0.82533 0.573496
548 1 0.665597 0.760428 0.599723
546 1 0.750516 0.750752 0.502406
552 1 0.823455 0.749277 0.589081
571 1 0.734229 0.829463 0.589134
690 1 0.747294 0.739077 0.670489
717 1 0.829421 0.829768 0.667351
697 1 -0.00385255 0.847429 0.655006
694 1 0.932121 0.756034 0.655654
575 1 0.902728 0.835434 0.583947
433 1 1.00639 0.0115146 0.504029
435 1 0.105164 -0.0113381 0.567351
555 1 0.0746854 0.837976 0.566045
560 1 0.170729 0.897824 0.582563
437 1 0.174418 1.01913 0.487966
439 1 0.238892 0.984144 0.579168
441 1 0.334584 -0.0129254 0.483316
564 1 0.322212 0.924953 0.571409
585 1 0.333734 0.983194 0.66243
706 1 0.419277 0.912214 0.664115
565 1 0.488872 0.828818 0.505747
566 1 0.573882 0.912792 0.488555
445 1 0.500612 0.988195 0.496893
568 1 0.50353 0.919703 0.571703
572 1 0.658046 0.920461 0.579719
593 1 0.659273 1.00917 0.674195
451 1 0.742526 0.0113186 0.578593
597 1 0.83515 0.00466233 0.658132
576 1 0.828508 0.913278 0.566106
453 1 0.830006 0.998454 0.488736
556 1 1.01544 0.925566 0.568687
718 1 0.917216 0.920255 0.651093
584 1 0.171444 0.0797461 0.746062
580 1 1.00344 0.0852209 0.734034
579 1 0.0800344 1.00119 0.752585
609 1 0.332464 0.153978 0.661292
581 1 0.163619 0.995581 0.660491
607 1 0.241756 0.161293 0.734096
726 1 0.241673 0.0655529 0.829437
588 1 0.32814 0.08545 0.749316
587 1 0.420015 0.00981062 0.759257
592 1 0.499595 0.0777797 0.756897
733 1 0.510445 0.996524 0.834565
590 1 0.585867 0.0809388 0.669921
613 1 0.511006 0.170754 0.676398
589 1 0.494629 -0.0116911 0.668687
734 1 0.581254 0.0746645 0.841971
594 1 0.751768 0.0831738 0.67239
596 1 0.651112 0.0863948 0.758752
619 1 0.761328 0.159399 0.762912
738 1 0.763149 0.0778474 0.824255
598 1 0.911899 0.0871508 0.668621
600 1 0.845196 0.0907874 0.749685
742 1 0.913021 0.079189 0.842131
741 1 0.853116 0.993065 0.813576
625 1 0.00865557 0.328522 0.667261
603 1 0.0815845 0.159125 0.751435
604 1 0.00275192 0.242141 0.744381
629 1 0.173342 0.347205 0.669902
606 1 0.26447 0.254956 0.660532
608 1 0.176163 0.254735 0.744517
750 1 0.247901 0.239338 0.829247
631 1 0.259453 0.331126 0.756032
773 1 0.170287 0.337416 0.837455
612 1 0.339208 0.232535 0.75513
611 1 0.421812 0.154325 0.746692
616 1 0.509033 0.244282 0.758444
754 1 0.420026 0.242226 0.837533
781 1 0.509478 0.331808 0.832933
614 1 0.597266 0.250874 0.666911
615 1 0.589652 0.175387 0.757506
639 1 0.593764 0.322443 0.755696
758 1 0.581518 0.248711 0.834343
757 1 0.50928 0.170652 0.8488
620 1 0.67779 0.254758 0.769083
624 1 0.838049 0.252115 0.755156
762 1 0.761386 0.247157 0.839431
622 1 0.91764 0.257236 0.663357
623 1 0.923632 0.161323 0.747548
627 1 0.0974712 0.334636 0.758867
769 1 0.00969395 0.325486 0.836072
628 1 -0.00294715 0.404497 0.761911
632 1 0.164059 0.426815 0.751012
636 1 0.336569 0.424963 0.748861
774 1 0.255438 0.417132 0.832396
635 1 0.418915 0.317729 0.750825
778 1 0.416842 0.400996 0.809892
659 1 0.428176 0.491294 0.740332
640 1 0.502667 0.403481 0.739185
638 1 0.591678 0.40194 0.656685
663 1 0.589761 0.486602 0.761249
782 1 0.596439 0.406364 0.837016
643 1 0.755745 0.339877 0.746988
644 1 0.67387 0.411939 0.747416
642 1 0.740683 0.419498 0.660196
785 1 0.670058 0.341404 0.854047
789 1 0.820619 0.346261 0.836714
647 1 0.921916 0.326437 0.760515
648 1 0.824984 0.418243 0.74911
790 1 0.907612 0.421259 0.828172
653 1 0.164465 0.504036 0.656243
797 1 0.185132 0.502252 0.848723
651 1 0.0844473 0.509479 0.750484
652 1 1.00513 0.570847 0.76526
794 1 0.0924693 0.568654 0.856098
657 1 0.334759 0.498284 0.648466
655 1 0.235931 0.503684 0.741087
656 1 0.16581 0.579895 0.778124
798 1 0.264528 0.581447 0.824577
681 1 0.31402 0.674787 0.670901
679 1 0.242904 0.652688 0.752196
801 1 0.333274 0.504924 0.814986
658 1 0.426995 0.57447 0.662153
660 1 0.335194 0.578116 0.73031
664 1 0.507095 0.573833 0.757033
683 1 0.423331 0.66066 0.739236
662 1 0.583735 0.587202 0.676067
809 1 0.672884 0.49743 0.832593
687 1 0.594205 0.659997 0.755454
668 1 0.67152 0.569121 0.751238
665 1 0.646448 0.495843 0.670419
666 1 0.740635 0.58912 0.667816
667 1 0.746267 0.494919 0.735448
672 1 0.831462 0.578416 0.738599
671 1 0.910795 0.497399 0.744443
695 1 0.9177 0.658337 0.758525
814 1 0.905989 0.576525 0.827385
701 1 0.160433 0.816993 0.680859
675 1 0.0883163 0.657503 0.745289
818 1 0.0846721 0.726882 0.835287
699 1 0.0809718 0.820017 0.763484
678 1 0.257644 0.773349 0.655796
845 1 0.178289 0.837219 0.833621
680 1 0.17186 0.742688 0.769948
703 1 0.247782 0.838467 0.754837
709 1 0.498068 0.819001 0.662798
685 1 0.50773 0.66229 0.671933
684 1 0.340087 0.755274 0.742683
682 1 0.41432 0.751622 0.665868
826 1 0.416593 0.766238 0.824649
688 1 0.493246 0.74543 0.755546
713 1 0.671515 0.842118 0.67214
689 1 0.665642 0.669772 0.674972
711 1 0.5832 0.842697 0.741014
830 1 0.587584 0.760783 0.820959
857 1 0.65862 0.836638 0.835177
692 1 0.671386 0.75665 0.759263
691 1 0.760036 0.669561 0.752338
715 1 0.747522 0.829299 0.738974
696 1 0.846146 0.754934 0.745947
834 1 0.757634 0.762777 0.830818
676 1 -0.00872984 0.748069 0.745474
861 1 0.832271 0.850981 0.804004
837 1 0.82749 0.671507 0.831012
719 1 0.917099 0.836658 0.730181
838 1 0.910225 0.747174 0.838822
698 1 0.0814334 0.915784 0.665595
842 1 0.078036 0.921246 0.856172
700 1 0.00967194 0.921798 0.747163
583 1 0.24913 0.993102 0.741563
725 1 0.155687 1.00246 0.839
704 1 0.17695 0.926274 0.750729
702 1 0.238714 0.901376 0.672131
705 1 0.341379 0.838155 0.664267
707 1 0.433131 0.835597 0.753148
708 1 0.343335 0.912641 0.747028
712 1 0.497121 0.913017 0.75265
853 1 0.497515 0.845273 0.829681
850 1 0.416688 0.923287 0.827214
710 1 0.57746 0.909335 0.655525
591 1 0.576963 1.00374 0.753066
854 1 0.582425 0.909283 0.843383
595 1 0.745284 1.00924 0.751204
716 1 0.65075 0.922746 0.744289
714 1 0.736264 0.926887 0.653746
720 1 0.82464 0.926495 0.728104
721 1 0.99909 0.00266685 0.815502
599 1 0.923329 1.00401 0.733095
862 1 0.927019 0.926172 0.814793
749 1 0.167823 0.156024 0.82021
745 1 0.999041 0.161249 0.822151
722 1 0.0827085 0.0817022 0.821022
2 1 0.0713223 0.0975661 -0.0051698
728 1 0.170161 0.0869119 0.922763
747 1 0.0827542 0.169031 0.903989
753 1 0.31511 0.157017 0.834873
729 1 0.330776 1.00845 0.827482
751 1 0.248095 0.163531 0.927435
727 1 0.268964 0.00278262 0.913438
732 1 0.337533 0.0858084 0.910481
10 1 0.435594 0.0790416 -0.000570669
730 1 0.437101 0.0913975 0.840764
731 1 0.428576 0.00414043 0.906098
736 1 0.507498 0.0914105 0.918959
9 1 0.338874 -0.0041257 0.995901
14 1 0.585459 0.0936357 0.006399
13 1 0.494106 0.978217 0.000998296
735 1 0.567475 1.00457 0.926653
18 1 0.760712 0.0868296 0.98727
765 1 0.835963 0.163617 0.843814
740 1 0.654999 0.0919422 0.927349
761 1 0.662757 0.167459 0.84563
739 1 0.748373 0.990508 0.918715
22 1 0.931755 0.0700673 0.0161388
724 1 0.998663 0.0909557 0.912686
744 1 0.837386 0.055301 0.911088
49 1 0.987473 0.342517 0.989909
746 1 0.0902473 0.2417 0.821898
26 1 0.0818522 0.239703 -0.00168047
748 1 0.0123902 0.249147 0.916974
30 1 0.26661 0.26094 -0.00422288
752 1 0.167497 0.236934 0.911445
53 1 0.166892 0.322113 0.993197
775 1 0.262883 0.337808 0.906282
755 1 0.41385 0.163336 0.923243
756 1 0.340548 0.248481 0.919326
779 1 0.420154 0.326119 0.905795
38 1 0.600148 0.247643 0.0113263
37 1 0.50446 0.177695 0.0278304
760 1 0.484543 0.239418 0.92558
759 1 0.573284 0.171687 0.935354
41 1 0.685581 0.171116 -0.00574378
42 1 0.760533 0.25341 0.00582098
763 1 0.747241 0.1594 0.906072
764 1 0.666595 0.254246 0.92218
768 1 0.831074 0.256536 0.921893
46 1 0.91649 0.264129 0.997837
766 1 0.92658 0.253359 0.826745
767 1 0.926263 0.164645 0.914447
770 1 0.0825619 0.424607 0.839721
771 1 0.0826436 0.328498 0.916702
772 1 0.9941 0.421077 0.90568
57 1 0.344117 0.332257 0.992459
54 1 0.24542 0.414141 0.997208
77 1 0.164131 0.506199 0.0162003
777 1 0.332888 0.324484 0.82461
776 1 0.165083 0.402814 0.916625
58 1 0.421119 0.406636 0.99636
81 1 0.343444 0.48879 0.993241
780 1 0.351699 0.413729 0.906842
803 1 0.408847 0.501882 0.903252
783 1 0.579409 0.327518 0.922575
784 1 0.499263 0.406183 0.906597
85 1 0.493847 0.483927 0.993778
61 1 0.496347 0.306479 0.00423389
62 1 0.585576 0.404412 0.994926
807 1 0.578216 0.476209 0.917377
805 1 0.494321 0.487359 0.829505
786 1 0.747069 0.422792 0.819731
65 1 0.677551 0.334857 0.013046
787 1 0.749461 0.33933 0.930903
788 1 0.669816 0.424271 0.916398
66 1 0.758132 0.411768 1.01046
811 1 0.750144 0.49556 0.910117
813 1 0.815474 0.497144 0.825298
69 1 0.845973 0.346684 -0.00125371
791 1 0.920773 0.336349 0.894133
792 1 0.837749 0.422682 0.90809
93 1 0.830259 0.501084 -0.000688665
815 1 0.910452 0.49677 0.905772
795 1 0.0887501 0.494312 0.923831
800 1 0.19101 0.569231 0.932127
799 1 0.264761 0.486452 0.918753
823 1 0.26212 0.660565 0.924672
829 1 0.503202 0.66283 0.817929
804 1 0.343239 0.579166 0.918199
802 1 0.417907 0.591469 0.821241
825 1 0.337287 0.667957 0.81615
806 1 0.58013 0.565616 0.83257
808 1 0.505644 0.574564 0.900827
812 1 0.655725 0.57657 0.908604
90 1 0.756687 0.58294 -0.00569067
810 1 0.749131 0.580562 0.829166
816 1 0.831814 0.582787 0.923569
817 1 0.00874223 0.64685 0.842987
793 1 1.00569 0.502579 0.843815
796 1 0.997711 0.584314 0.928989
101 1 0.164088 0.666579 0.986665
841 1 0.999894 0.824192 0.828584
819 1 0.0749181 0.664915 0.92359
98 1 0.0781989 0.755505 1.011
843 1 0.0721709 0.81957 0.903717
821 1 0.168721 0.658164 0.865942
822 1 0.248722 0.737718 0.841638
824 1 0.169775 0.762548 0.911833
847 1 0.253576 0.835327 0.910261
827 1 0.414942 0.670625 0.893075
828 1 0.328077 0.751374 0.907869
833 1 0.676478 0.663193 0.826794
831 1 0.594539 0.668275 0.911861
832 1 0.483151 0.7492 0.89671
855 1 0.578666 0.812658 0.918228
835 1 0.743911 0.659295 0.91165
836 1 0.675063 0.75848 0.929552
840 1 0.837745 0.733676 0.918792
839 1 0.90752 0.656085 0.908968
820 1 0.990632 0.738667 0.907761
118 1 0.914793 0.746299 -0.0127635
863 1 0.897152 0.833416 0.900464
723 1 0.0807617 0.0061292 0.917666
846 1 0.229925 0.935186 0.834992
848 1 0.163463 0.906181 0.92297
849 1 0.335669 0.836088 0.827038
851 1 0.394933 0.845142 0.921401
130 1 0.413873 0.902879 0.00575327
852 1 0.342935 0.932557 0.899304
856 1 0.494268 0.898944 0.922647
860 1 0.664612 0.92244 0.920296
858 1 0.740874 0.912172 0.81042
737 1 0.669571 1.00159 0.824245
859 1 0.741772 0.836639 0.908125
141 1 0.80981 0.826107 0.999186
121 1 -0.014502 0.818654 0.00400403
844 1 0.984912 0.89658 0.920127
743 1 0.916595 0.986286 0.905764
864 1 0.832423 0.918984 0.893203
142 1 0.904444 0.899582 0.986985
