ITEM: TIMESTEP
5250
ITEM: NUMBER OF ATOMS
864
ITEM: BOX BOUNDS pp pp pp
0.0000000000000000e+00 3.1559999999999999e+01
0.0000000000000000e+00 3.1559999999999999e+01
0.0000000000000000e+00 3.1559999999999999e+01
ITEM: ATOMS id type xs ys zs
27 1 0.0711556 0.179784 0.0864185
2 1 0.0694545 0.0911467 1.0066
29 1 0.164397 0.164614 0.988263
8 1 0.160573 0.100605 0.0804016
146 1 0.0844061 0.0795033 0.168812
12 1 0.335909 0.105613 0.0798338
7 1 0.24769 0.0203244 0.0865559
153 1 0.358096 0.0161474 0.160352
16 1 0.502945 0.101551 0.0682946
11 1 0.42501 0.00769483 0.0782392
154 1 0.43334 0.0931578 0.165425
157 1 0.494345 1.00058 0.174045
15 1 0.574998 1.01059 0.0907227
39 1 0.590286 0.166842 0.077276
37 1 0.513303 0.165131 0.98115
20 1 0.664431 0.0786141 0.0740927
19 1 0.745418 0.0179178 0.0754704
43 1 0.745362 0.179527 0.0814554
18 1 0.753724 0.0977874 0.996886
162 1 0.736524 0.086741 0.160027
4 1 -0.00732769 0.0993394 0.090748
24 1 0.830684 0.0946913 0.0662439
23 1 0.932747 0.0168256 0.0757532
25 1 1.0128 0.188321 -0.00430804
51 1 0.0745097 0.316398 0.0881462
28 1 0.982538 0.26274 0.0915716
26 1 0.0869443 0.257564 0.999044
193 1 0.998149 0.324433 0.181835
173 1 0.165959 0.160615 0.163343
49 1 0.999526 0.342713 0.00673314
32 1 0.166522 0.239091 0.0884322
31 1 0.249626 0.168437 0.0717864
36 1 0.332575 0.255276 0.0961949
55 1 0.257556 0.333359 0.0881686
174 1 0.241632 0.23101 0.171456
197 1 0.162499 0.335791 0.15223
201 1 0.330145 0.329051 0.173648
35 1 0.41856 0.164299 0.0655353
57 1 0.320474 0.330484 0.994522
178 1 0.417676 0.24461 0.157274
59 1 0.415335 0.331153 0.0878659
177 1 0.346621 0.162451 0.160088
34 1 0.403526 0.250741 0.999277
185 1 0.667014 0.16758 0.159164
40 1 0.510308 0.254621 0.0775912
182 1 0.584628 0.243084 0.154601
63 1 0.590913 0.33222 0.0855075
44 1 0.667579 0.252742 0.0817906
48 1 0.827928 0.253934 0.0777306
186 1 0.761102 0.257721 0.171166
67 1 0.749335 0.326213 0.0818904
47 1 0.920755 0.17729 0.0736489
69 1 0.819573 0.349456 0.991578
71 1 0.921409 0.349653 0.0975755
46 1 0.915379 0.261074 0.00926089
194 1 0.0781583 0.417467 0.167651
50 1 0.0873922 0.426415 0.00523601
217 1 -0.00845387 0.504271 0.181859
56 1 0.158979 0.421476 0.0854737
79 1 0.252893 0.498139 0.0865535
221 1 0.169581 0.50025 0.175229
198 1 0.255578 0.421179 0.166166
60 1 0.335902 0.407631 0.0874034
83 1 0.42193 0.484558 0.0828922
61 1 0.499505 0.331494 1.00009
64 1 0.505962 0.411712 0.0878166
229 1 0.50369 0.498779 0.165839
205 1 0.506117 0.322647 0.168417
206 1 0.592167 0.422355 0.167245
87 1 0.575024 0.493895 0.0827731
209 1 0.672376 0.334877 0.171336
62 1 0.575518 0.403523 0.993009
68 1 0.660528 0.406942 0.0824052
89 1 0.656132 0.508086 0.986036
213 1 0.825694 0.341129 0.165507
233 1 0.660347 0.510226 0.165535
65 1 0.668281 0.336583 0.993433
66 1 0.749222 0.434302 0.011712
52 1 0.998152 0.422484 0.102938
72 1 0.840119 0.430963 0.0947374
95 1 0.92282 0.5093 0.0923582
214 1 0.906246 0.419147 0.175558
70 1 0.923733 0.41675 0.000527457
75 1 0.090866 0.50938 0.0748995
99 1 0.0965084 0.660025 0.084304
241 1 1.00156 0.667233 0.17944
218 1 0.0777481 0.577183 0.155054
245 1 0.175272 0.657322 0.159252
74 1 0.0806584 0.577007 -0.0019458
77 1 0.171117 0.504512 0.00414138
80 1 0.171665 0.583959 0.0813285
222 1 0.261336 0.580625 0.156231
78 1 0.253205 0.576037 0.988849
84 1 0.351324 0.565869 0.0865267
226 1 0.416623 0.575526 0.18412
85 1 0.491741 0.476086 1.00334
88 1 0.503065 0.584163 0.091596
86 1 0.568859 0.55967 1.00004
92 1 0.664105 0.590866 0.0760102
111 1 0.58118 0.653926 0.0771958
91 1 0.763664 0.515681 0.0921538
234 1 0.738065 0.597767 0.16561
257 1 0.64747 0.663515 0.165421
115 1 0.73209 0.675315 0.0855517
90 1 0.747323 0.55955 -0.00290034
113 1 0.654913 0.656936 -0.0129287
76 1 -0.00363141 0.593244 0.0822765
96 1 0.818825 0.598718 0.0725438
94 1 0.91816 0.5822 0.0150882
261 1 0.831855 0.661153 0.182413
238 1 0.921361 0.589214 0.175868
93 1 0.836452 0.502475 0.00856524
104 1 0.177732 0.74581 0.0701593
123 1 0.0992359 0.836206 0.0856845
98 1 0.0802598 0.74794 0.999039
103 1 0.264001 0.656536 0.0697451
125 1 0.171455 0.825579 1.00364
269 1 0.179361 0.82012 0.165208
273 1 0.335492 0.831277 0.158779
107 1 0.417549 0.659079 0.0741671
108 1 0.329691 0.747444 0.0692244
112 1 0.497401 0.745022 0.0875262
133 1 0.492533 0.830635 0.992216
277 1 0.483254 0.843577 0.174811
253 1 0.48975 0.653652 0.170683
254 1 0.577349 0.769715 0.165555
116 1 0.646142 0.744063 0.0766754
110 1 0.568725 0.76084 -0.0166652
258 1 0.743348 0.746934 0.174281
117 1 0.841005 0.663306 0.997864
285 1 0.832281 0.82956 0.182494
114 1 0.746921 0.747522 0.99815
119 1 0.913048 0.669181 0.0909047
100 1 0.00620276 0.745993 0.0861817
120 1 0.833587 0.737827 0.0771282
143 1 0.930169 0.830829 0.0832475
118 1 0.924837 0.747056 0.0129637
141 1 0.845916 0.823086 -0.000977743
121 1 0.0138782 0.817356 0.00661475
3 1 0.0803987 0.0062453 0.0706957
149 1 0.165352 -0.00346891 0.157981
124 1 1.00742 0.915909 0.0777019
128 1 0.184244 0.91367 0.0781809
266 1 0.0788004 0.924735 0.161681
127 1 0.261536 0.8257 0.0670139
126 1 0.234897 0.945782 0.995176
270 1 0.252085 0.911514 0.158159
131 1 0.413378 0.820056 0.0849889
132 1 0.320246 0.927197 0.0790546
136 1 0.492159 0.919032 0.0747306
274 1 0.408296 0.919944 0.142237
135 1 0.565762 0.840518 0.0733373
140 1 0.658199 0.903557 0.0795829
278 1 0.576295 0.914319 0.154293
139 1 0.741895 0.820994 0.0816413
144 1 0.832829 0.892728 0.0931983
282 1 0.75221 0.913128 0.153329
21 1 0.833705 0.982691 0.0140552
161 1 0.665314 0.995212 0.15741
138 1 0.759824 0.901377 0.00113344
142 1 0.911677 0.911492 0.00400591
145 1 0.99799 1.00773 0.17279
152 1 0.179376 0.0796779 0.236953
290 1 0.0967036 0.0798624 0.31332
150 1 0.266178 0.0836448 0.164006
293 1 0.165002 0.99805 0.340219
156 1 0.337819 0.0989148 0.257936
294 1 0.250898 0.0768709 0.320076
160 1 0.499423 0.0891374 0.246247
321 1 0.330332 0.1785 0.340514
158 1 0.58257 0.0943431 0.166484
302 1 0.594533 0.0764734 0.328248
159 1 0.587246 0.986569 0.246499
301 1 0.491447 0.0152198 0.331049
183 1 0.608478 0.158146 0.262716
164 1 0.670796 0.0763947 0.244286
163 1 0.761728 -0.000429359 0.253955
168 1 0.834397 0.076153 0.246587
189 1 0.83297 0.153921 0.159464
166 1 0.916779 0.0860125 0.179
148 1 0.00501245 0.0730333 0.249454
167 1 0.916315 1.00177 0.244903
165 1 0.831877 1.01111 0.137882
289 1 0.0154039 0.992144 0.331384
169 1 0.98955 0.179741 0.1585
171 1 0.0853836 0.160873 0.25293
170 1 0.0933459 0.249647 0.168426
314 1 0.0848432 0.249139 0.315667
317 1 0.161372 0.16673 0.33904
176 1 0.17492 0.255794 0.265005
175 1 0.255392 0.163344 0.249251
180 1 0.327297 0.241471 0.240105
199 1 0.244955 0.335777 0.234333
179 1 0.417333 0.164284 0.254724
184 1 0.514464 0.239513 0.249133
322 1 0.429136 0.243673 0.329011
181 1 0.490756 0.169486 0.148994
325 1 0.515664 0.162461 0.331406
326 1 0.590212 0.260744 0.328771
188 1 0.67603 0.249024 0.244876
187 1 0.757213 0.169051 0.244602
192 1 0.833826 0.246678 0.244862
330 1 0.747552 0.256546 0.330616
357 1 0.829786 0.345279 0.326722
190 1 0.896805 0.245695 0.161267
191 1 0.926054 0.166346 0.265945
172 1 -0.00670124 0.250447 0.258255
313 1 0.0175555 0.153985 0.328538
195 1 0.09176 0.345455 0.242507
341 1 0.164438 0.34985 0.326003
219 1 0.0900887 0.513476 0.249574
338 1 0.0803501 0.424166 0.335354
200 1 0.171232 0.417329 0.232425
204 1 0.350946 0.40027 0.251237
342 1 0.25356 0.41942 0.315166
203 1 0.4287 0.309401 0.247142
202 1 0.415716 0.392696 0.170042
207 1 0.585561 0.333035 0.244079
349 1 0.500385 0.321594 0.328284
208 1 0.500778 0.417404 0.255216
212 1 0.660492 0.42254 0.263636
210 1 0.748203 0.420791 0.165247
211 1 0.751043 0.342397 0.241573
216 1 0.825528 0.427714 0.247248
215 1 0.917845 0.331374 0.256281
196 1 -0.000783492 0.41474 0.258012
239 1 0.909032 0.503674 0.254198
362 1 0.082768 0.585165 0.335368
365 1 0.181777 0.502226 0.33701
243 1 0.0897291 0.672379 0.237204
389 1 0.177197 0.652025 0.331724
224 1 0.174412 0.588115 0.242807
223 1 0.265511 0.503596 0.238942
247 1 0.261479 0.668452 0.251013
225 1 0.345448 0.490848 0.167038
228 1 0.333707 0.585643 0.25379
227 1 0.425953 0.492646 0.263045
370 1 0.425325 0.590398 0.332861
230 1 0.575672 0.586539 0.170635
231 1 0.57213 0.509085 0.248135
232 1 0.50186 0.594936 0.253504
236 1 0.645737 0.591974 0.258073
237 1 0.837567 0.520259 0.170812
401 1 0.661322 0.692424 0.336343
235 1 0.737932 0.511991 0.252203
240 1 0.822207 0.571925 0.258926
405 1 0.828219 0.676304 0.330823
220 1 -0.00252197 0.594375 0.262642
263 1 0.910795 0.673324 0.253418
385 1 1.00522 0.673021 0.340012
382 1 0.910573 0.584891 0.319466
242 1 0.0982303 0.755465 0.167924
244 1 -0.0166354 0.753164 0.269152
413 1 0.168038 0.819075 0.347961
386 1 0.0937597 0.747794 0.321547
249 1 0.334338 0.663757 0.155213
246 1 0.253353 0.743519 0.156378
248 1 0.180902 0.742219 0.249201
390 1 0.250393 0.740362 0.338351
393 1 0.336643 0.66247 0.343624
251 1 0.413707 0.66808 0.251853
250 1 0.417907 0.743418 0.170257
252 1 0.329784 0.748886 0.249067
256 1 0.50286 0.767441 0.242701
394 1 0.414252 0.755774 0.3294
421 1 0.494003 0.843604 0.32912
397 1 0.493386 0.681301 0.325407
255 1 0.577738 0.677144 0.243247
260 1 0.664054 0.748264 0.239119
398 1 0.584102 0.767859 0.319722
259 1 0.738313 0.65361 0.263808
264 1 0.821745 0.756299 0.249839
402 1 0.747363 0.764176 0.328936
262 1 0.900948 0.751925 0.172304
406 1 0.911242 0.760906 0.34521
287 1 0.91035 0.828055 0.263022
147 1 0.099918 0.997825 0.245849
267 1 0.0973695 0.82352 0.250951
268 1 1.00025 0.923978 0.252158
151 1 0.282949 0.00518512 0.23475
271 1 0.252902 0.828731 0.236674
272 1 0.165892 0.904032 0.241632
276 1 0.340271 0.915043 0.241103
414 1 0.256582 0.911382 0.309595
297 1 0.336551 0.00613842 0.329571
417 1 0.321086 0.825534 0.328165
155 1 0.422808 0.00401293 0.249042
275 1 0.405754 0.824674 0.248163
418 1 0.409239 0.920882 0.325734
281 1 0.683249 0.838781 0.161172
305 1 0.676446 0.000565528 0.333819
279 1 0.589615 0.848398 0.239478
280 1 0.500356 0.916016 0.25727
284 1 0.676873 0.923505 0.246144
422 1 0.612479 0.928056 0.335858
283 1 0.740543 0.824428 0.248498
426 1 0.736766 0.922164 0.341821
425 1 0.668443 0.835241 0.343788
429 1 0.816801 0.837825 0.322937
288 1 0.830706 0.914678 0.250755
265 1 8.13994e-05 0.825142 0.187837
286 1 0.92033 0.910919 0.173729
430 1 0.912227 0.908913 0.329378
296 1 0.164035 0.0889391 0.408678
434 1 0.0904859 0.0775426 0.494716
292 1 0.00907669 0.0701444 0.4048
438 1 0.253949 0.0884683 0.494023
300 1 0.335744 0.0765933 0.423787
461 1 0.17374 0.16429 0.508929
298 1 0.415288 0.08922 0.339564
299 1 0.41515 -0.00450765 0.407153
465 1 0.333198 0.161472 0.505149
442 1 0.410872 0.0876058 0.498681
304 1 0.500941 0.0880997 0.407996
303 1 0.582854 0.00489869 0.419095
446 1 0.585587 0.0876126 0.498575
308 1 0.67232 0.0871189 0.414526
306 1 0.763299 0.0885582 0.326949
453 1 0.832362 0.0125396 0.488112
477 1 0.841376 0.172942 0.500437
312 1 0.845733 0.0917451 0.395896
310 1 0.931491 0.0710355 0.330014
454 1 0.914249 0.0885166 0.523596
309 1 0.833393 0.99757 0.323906
457 1 -0.00104263 0.166891 0.502066
337 1 0.99937 0.349778 0.339835
315 1 0.083817 0.172308 0.414682
339 1 0.0822339 0.311971 0.399586
458 1 0.0968072 0.241162 0.50032
316 1 0.00658854 0.230125 0.396127
318 1 0.249168 0.254199 0.342211
319 1 0.248021 0.171234 0.419046
320 1 0.168938 0.253003 0.424635
323 1 0.423323 0.172017 0.425886
324 1 0.353151 0.249359 0.415297
328 1 0.495319 0.242887 0.406342
329 1 0.684121 0.170726 0.330754
327 1 0.587844 0.166002 0.412839
332 1 0.680629 0.234031 0.410445
473 1 0.658304 0.166002 0.494942
470 1 0.580427 0.243175 0.500831
331 1 0.757798 0.158309 0.404499
333 1 0.843898 0.173153 0.33331
336 1 0.820686 0.242388 0.412939
474 1 0.754583 0.251556 0.492172
334 1 0.912601 0.266071 0.35598
335 1 0.93553 0.147277 0.416531
478 1 0.92237 0.254042 0.478322
481 1 -0.0037822 0.345667 0.477737
361 1 0.00281509 0.497974 0.33853
482 1 0.0874888 0.408384 0.48175
344 1 0.174147 0.433544 0.415477
485 1 0.171771 0.33446 0.493928
363 1 0.0796436 0.492547 0.419067
509 1 0.167276 0.505562 0.497464
345 1 0.334942 0.323346 0.326823
343 1 0.248943 0.3419 0.402183
348 1 0.335903 0.403294 0.412183
367 1 0.249003 0.499309 0.412096
346 1 0.422081 0.399069 0.334798
347 1 0.421817 0.342748 0.414459
352 1 0.498498 0.413646 0.430233
490 1 0.425802 0.415704 0.508141
493 1 0.499366 0.319278 0.49969
350 1 0.573251 0.398814 0.341166
353 1 0.668941 0.333298 0.329938
497 1 0.662109 0.331367 0.498946
351 1 0.59696 0.319505 0.423853
375 1 0.581896 0.494801 0.411472
494 1 0.586123 0.420215 0.485412
354 1 0.751012 0.422379 0.341092
381 1 0.827306 0.496004 0.336171
355 1 0.757805 0.337301 0.425191
356 1 0.657987 0.411263 0.417117
379 1 0.753907 0.504311 0.422693
359 1 0.897109 0.343453 0.419519
340 1 0.978412 0.426183 0.411257
360 1 0.829408 0.427419 0.423355
501 1 0.829915 0.336296 0.50966
358 1 0.904491 0.427542 0.331717
502 1 0.920065 0.422845 0.50438
364 1 1.00007 0.583265 0.422698
505 1 0.00149783 0.508105 0.51117
366 1 0.259231 0.587314 0.338943
368 1 0.190688 0.588454 0.426183
510 1 0.267672 0.580445 0.494908
513 1 0.335444 0.502035 0.496924
369 1 0.339869 0.487209 0.328589
371 1 0.41649 0.474556 0.405517
372 1 0.344737 0.558347 0.405546
376 1 0.504245 0.576728 0.416101
374 1 0.572974 0.603947 0.342132
373 1 0.507102 0.486654 0.343155
518 1 0.584572 0.583728 0.497771
380 1 0.650373 0.601384 0.409802
377 1 0.656218 0.502293 0.336091
378 1 0.753935 0.580237 0.349669
384 1 0.839061 0.58961 0.412131
549 1 0.826416 0.66164 0.489097
522 1 0.74349 0.594184 0.485545
383 1 0.914131 0.511186 0.417353
407 1 0.91085 0.666655 0.412701
387 1 0.0825269 0.651835 0.424912
409 1 1.01502 0.839301 0.329748
388 1 -0.00884175 0.748036 0.419162
411 1 0.0924359 0.827452 0.423531
530 1 0.0727868 0.747136 0.5029
391 1 0.265609 0.668229 0.421564
392 1 0.175728 0.731628 0.410924
415 1 0.243086 0.816513 0.421493
534 1 0.263462 0.74267 0.506644
395 1 0.437443 0.663732 0.40898
396 1 0.353897 0.752616 0.424174
538 1 0.423651 0.733636 0.493325
561 1 0.353629 0.83018 0.508092
399 1 0.569082 0.693188 0.40221
400 1 0.490925 0.769509 0.402289
423 1 0.580414 0.833027 0.411486
565 1 0.484965 0.837896 0.491366
541 1 0.509002 0.659299 0.509166
542 1 0.586331 0.757098 0.510152
403 1 0.734491 0.672241 0.411745
404 1 0.661513 0.756752 0.423024
408 1 0.825784 0.750322 0.43347
550 1 0.91552 0.748433 0.499844
431 1 0.900766 0.834549 0.4145
553 1 -0.00690486 0.824342 0.495429
410 1 0.0917403 0.910356 0.315017
291 1 0.078283 0.97969 0.426361
412 1 0.990362 0.910714 0.405331
433 1 1.00323 0.009595 0.488648
554 1 0.0852141 0.913419 0.503006
295 1 0.253704 0.00380629 0.419638
437 1 0.162768 0.996468 0.493331
416 1 0.177861 0.912254 0.407971
558 1 0.254561 0.899722 0.494002
419 1 0.412888 0.850495 0.408701
420 1 0.320049 0.919996 0.410517
424 1 0.507654 0.919354 0.394384
441 1 0.321187 0.999375 0.506427
428 1 0.664602 0.939323 0.433935
569 1 0.662689 0.829333 0.513442
307 1 0.748106 0.0120412 0.424365
427 1 0.736904 0.839233 0.433715
573 1 0.824202 0.836463 0.505156
311 1 0.906116 0.998906 0.414191
432 1 0.830303 0.918052 0.405719
436 1 0.00720483 0.0711844 0.584784
459 1 0.0857456 0.144887 0.576037
578 1 0.0787023 0.0779499 0.676216
605 1 0.151788 0.153701 0.666114
435 1 0.104663 0.0046839 0.590717
440 1 0.178949 0.0891493 0.57548
444 1 0.330886 0.0840995 0.589044
582 1 0.245957 0.0919479 0.667779
463 1 0.261938 0.170371 0.575955
467 1 0.407337 0.16536 0.583087
585 1 0.336797 1.0006 0.666149
609 1 0.341583 0.173678 0.65958
445 1 0.500559 0.995074 0.490315
448 1 0.508072 0.0886985 0.577376
449 1 0.66561 1.00449 0.51476
452 1 0.668141 0.0826914 0.588193
450 1 0.759489 0.0931239 0.496025
456 1 0.834784 0.093463 0.583935
475 1 0.744766 0.156758 0.590048
594 1 0.754398 0.0801692 0.682535
593 1 0.675946 0.995927 0.656219
455 1 0.916235 -0.0158302 0.585717
598 1 0.920738 0.0853082 0.668388
483 1 0.0909545 0.326154 0.58345
602 1 0.0860577 0.251757 0.670375
464 1 0.164993 0.247199 0.586166
462 1 0.245957 0.250008 0.509588
489 1 0.332411 0.333887 0.497214
468 1 0.346769 0.257519 0.574387
487 1 0.251071 0.323549 0.573502
606 1 0.245707 0.231927 0.666062
466 1 0.42015 0.250185 0.501365
610 1 0.421759 0.250948 0.65945
469 1 0.509978 0.165614 0.497324
633 1 0.326912 0.328766 0.667221
471 1 0.587795 0.171817 0.581178
472 1 0.505024 0.234869 0.585727
641 1 0.665488 0.31831 0.660552
614 1 0.578817 0.26038 0.651519
476 1 0.676993 0.252837 0.580697
618 1 0.745353 0.249733 0.663911
480 1 0.834276 0.248685 0.576396
499 1 0.746617 0.336765 0.574068
601 1 0.0034259 0.162324 0.663196
479 1 0.917345 0.181025 0.589181
460 1 0.00649473 0.246633 0.598931
625 1 0.0129995 0.336553 0.668604
621 1 0.823319 0.170655 0.652515
622 1 0.923219 0.253335 0.664929
503 1 0.929082 0.336918 0.5683
484 1 0.0103926 0.423208 0.582108
626 1 0.0927472 0.403951 0.670033
488 1 0.162554 0.404895 0.577997
507 1 0.0896566 0.498063 0.586838
486 1 0.252996 0.416251 0.496623
630 1 0.242642 0.41553 0.660384
511 1 0.258471 0.488495 0.582216
491 1 0.421916 0.332045 0.589218
492 1 0.330105 0.412556 0.592443
515 1 0.410969 0.501296 0.577955
634 1 0.422557 0.411015 0.66051
496 1 0.500849 0.411012 0.588124
495 1 0.58395 0.334793 0.577452
517 1 0.514458 0.507535 0.498172
500 1 0.668666 0.416617 0.576664
521 1 0.668918 0.501165 0.490117
637 1 0.497935 0.331403 0.669049
498 1 0.74582 0.414876 0.489902
504 1 0.843055 0.427113 0.585589
523 1 0.757126 0.504882 0.570684
525 1 0.836441 0.504658 0.494291
646 1 0.917069 0.404379 0.659345
527 1 0.915913 0.514535 0.587821
533 1 0.168424 0.672707 0.513115
506 1 0.0867565 0.580368 0.510469
512 1 0.193803 0.572665 0.579652
531 1 0.0702919 0.666258 0.587946
654 1 0.256362 0.580601 0.676739
535 1 0.260959 0.674442 0.578971
514 1 0.414098 0.574571 0.498859
516 1 0.334747 0.585553 0.586318
539 1 0.422916 0.660654 0.580236
537 1 0.345486 0.655774 0.500022
658 1 0.416912 0.566905 0.660176
519 1 0.589478 0.488885 0.57909
520 1 0.504835 0.580791 0.579882
524 1 0.659965 0.584331 0.56415
545 1 0.656382 0.670993 0.504551
528 1 0.84096 0.59246 0.573099
526 1 0.914038 0.589786 0.499422
508 1 0.994114 0.586097 0.593252
670 1 0.898005 0.581279 0.671726
536 1 0.183589 0.7499 0.586431
559 1 0.259619 0.829575 0.573943
540 1 0.353255 0.750458 0.584821
544 1 0.493205 0.766222 0.579304
682 1 0.427338 0.747767 0.659275
563 1 0.40671 0.848605 0.597725
543 1 0.584978 0.673198 0.593504
685 1 0.506893 0.655938 0.666442
567 1 0.573587 0.84102 0.57756
709 1 0.498039 0.831748 0.658745
546 1 0.744122 0.754909 0.498844
547 1 0.735532 0.664068 0.579988
548 1 0.654693 0.750409 0.587663
552 1 0.827681 0.734163 0.572459
571 1 0.746475 0.825727 0.584719
529 1 0.996111 0.667993 0.50254
551 1 0.919056 0.663577 0.586728
532 1 0.00387239 0.756052 0.588351
694 1 0.913759 0.766081 0.656033
555 1 0.0858893 0.826736 0.576645
560 1 0.179892 0.909588 0.571731
556 1 0.00842649 0.909004 0.57354
701 1 0.17882 0.834268 0.659393
577 1 0.0160377 0.992717 0.661467
557 1 0.165828 0.822413 0.497611
439 1 0.258754 1.01635 0.599794
702 1 0.251139 0.921012 0.651824
562 1 0.410949 0.916963 0.498465
443 1 0.418826 0.0158392 0.578542
564 1 0.333695 0.916267 0.575543
706 1 0.413815 0.923103 0.672271
566 1 0.579208 0.922491 0.495997
447 1 0.579955 0.995216 0.58799
568 1 0.49887 0.919293 0.597403
572 1 0.658804 0.908468 0.589331
710 1 0.57661 0.93486 0.672487
451 1 0.760409 0.01682 0.585474
570 1 0.739559 0.918076 0.51785
714 1 0.751179 0.917746 0.655713
713 1 0.645359 0.842235 0.678795
575 1 0.915903 0.850731 0.574738
574 1 0.913974 0.910586 0.497351
576 1 0.831704 0.924088 0.575659
579 1 0.0882756 -0.00197796 0.749766
580 1 1.00815 0.0733482 0.759012
603 1 0.0891506 0.173607 0.753501
584 1 0.16694 0.0916644 0.742181
607 1 0.253436 0.168075 0.753172
586 1 0.409183 0.0880678 0.668146
753 1 0.332309 0.170069 0.825861
588 1 0.335294 0.0854839 0.743637
587 1 0.413978 0.00255367 0.749787
590 1 0.595217 0.0720375 0.670698
592 1 0.50381 0.0836491 0.740552
613 1 0.51485 0.167093 0.674088
757 1 0.51322 0.154096 0.832072
591 1 0.59738 -0.0172142 0.766195
733 1 0.508145 0.991928 0.832022
734 1 0.590665 0.0827984 0.823789
597 1 0.837498 0.998547 0.658106
596 1 0.67491 0.0908581 0.747894
738 1 0.754796 0.0838735 0.813984
600 1 0.84541 0.0869189 0.74559
742 1 0.911995 0.0785333 0.832792
765 1 0.849958 0.173779 0.83122
623 1 0.91837 0.171813 0.736355
599 1 0.935191 0.993448 0.734448
604 1 1.0073 0.243538 0.739189
629 1 0.179488 0.32598 0.647571
608 1 0.160584 0.251829 0.736188
750 1 0.239302 0.261975 0.819431
612 1 0.331746 0.254193 0.747862
611 1 0.428321 0.165967 0.747458
754 1 0.405856 0.249406 0.822034
616 1 0.507428 0.255649 0.749721
615 1 0.590052 0.153441 0.756355
758 1 0.575579 0.245533 0.836751
620 1 0.653562 0.251206 0.738904
617 1 0.667806 0.169811 0.67359
619 1 0.756816 0.17602 0.749556
762 1 0.740728 0.256663 0.817362
624 1 0.827496 0.250961 0.736065
766 1 0.915515 0.254777 0.833165
647 1 0.901199 0.330129 0.745344
653 1 0.173987 0.494761 0.663121
627 1 0.077084 0.323076 0.770029
632 1 0.162746 0.420753 0.749919
651 1 0.072438 0.509526 0.745397
657 1 0.329438 0.494283 0.673665
631 1 0.245805 0.333105 0.732422
655 1 0.255024 0.492498 0.741743
774 1 0.243138 0.400614 0.843614
777 1 0.341618 0.328289 0.829001
635 1 0.421686 0.344013 0.74552
636 1 0.321677 0.403055 0.754066
801 1 0.324657 0.479753 0.838811
640 1 0.50161 0.415319 0.741111
638 1 0.582741 0.414283 0.649305
639 1 0.587705 0.339355 0.744819
644 1 0.670648 0.418599 0.732124
785 1 0.665898 0.349161 0.818033
642 1 0.754035 0.410667 0.656887
645 1 0.826467 0.334397 0.654127
643 1 0.746567 0.342297 0.747661
667 1 0.746235 0.495394 0.748931
669 1 0.825785 0.511461 0.67238
628 1 0.0142586 0.413408 0.754022
648 1 0.838384 0.416026 0.7569
671 1 0.909763 0.487023 0.752094
650 1 0.0897094 0.580664 0.668442
652 1 0.991453 0.577985 0.734474
675 1 0.0946598 0.657638 0.741661
677 1 0.192646 0.667926 0.659657
681 1 0.340487 0.674784 0.653316
656 1 0.170881 0.57314 0.745947
679 1 0.269646 0.666172 0.751256
660 1 0.350903 0.585698 0.746171
659 1 0.421186 0.483086 0.750298
683 1 0.427096 0.652591 0.745077
662 1 0.588133 0.563779 0.656262
661 1 0.491392 0.495514 0.655503
664 1 0.491731 0.566134 0.736764
663 1 0.590217 0.500161 0.743115
668 1 0.67012 0.579944 0.750308
687 1 0.589498 0.655604 0.743532
805 1 0.502948 0.504608 0.829365
829 1 0.495479 0.658266 0.826868
666 1 0.744735 0.582398 0.666371
665 1 0.679981 0.493504 0.646374
672 1 0.833358 0.573511 0.759178
673 1 1.00872 0.66774 0.672317
649 1 0.998164 0.495896 0.667224
695 1 0.913159 0.672553 0.742791
674 1 0.0855649 0.744747 0.66527
699 1 0.0777634 0.832823 0.746675
845 1 0.168993 0.813957 0.841776
821 1 0.16276 0.658326 0.832487
818 1 0.0827769 0.751515 0.824549
678 1 0.263047 0.758772 0.666341
680 1 0.173442 0.747656 0.745567
703 1 0.245359 0.834236 0.752135
822 1 0.259991 0.744132 0.819563
705 1 0.322846 0.846573 0.666169
684 1 0.348435 0.753706 0.749932
849 1 0.322159 0.823489 0.839687
826 1 0.41856 0.751415 0.836126
707 1 0.420277 0.832411 0.744274
686 1 0.567207 0.753007 0.674867
688 1 0.491668 0.742282 0.757517
692 1 0.643425 0.746432 0.755677
689 1 0.662591 0.674505 0.663064
693 1 0.828514 0.670255 0.661977
691 1 0.751489 0.672385 0.745116
690 1 0.751446 0.746749 0.662403
715 1 0.747913 0.83392 0.742714
676 1 -0.00628973 0.756785 0.749315
696 1 0.832969 0.753126 0.742411
697 1 -0.000482575 0.849947 0.656762
698 1 0.0874843 0.913413 0.665722
700 1 0.0118986 0.914979 0.75368
842 1 0.0808994 0.905607 0.837926
704 1 0.170399 0.913729 0.746154
721 1 -0.00565536 0.999752 0.831971
581 1 0.171362 0.00505853 0.67068
583 1 0.256085 0.995919 0.73974
846 1 0.261182 0.917135 0.842435
725 1 0.167668 1.00716 0.836728
708 1 0.327725 0.907324 0.753597
850 1 0.40418 0.908316 0.832204
729 1 0.338536 1.0003 0.829266
589 1 0.494567 0.0150074 0.65808
712 1 0.487513 0.922742 0.753806
711 1 0.573936 0.84449 0.761134
853 1 0.499795 0.848429 0.83894
854 1 0.59219 0.914754 0.844625
595 1 0.747089 0.985816 0.744131
717 1 0.83919 0.833598 0.663976
716 1 0.670965 0.913927 0.738761
720 1 0.824745 0.905953 0.735516
861 1 0.835748 0.829922 0.828943
719 1 0.924479 0.837104 0.747146
718 1 0.905895 0.912913 0.67284
722 1 0.0933572 0.0874933 0.820424
745 1 0.994685 0.170073 0.821099
749 1 0.166205 0.186583 0.821383
728 1 0.148226 0.0873816 0.909224
724 1 0.983789 0.0833411 0.917775
747 1 0.0741002 0.163057 0.913059
1 1 0.996654 0.0098402 0.988909
6 1 0.2438 0.0934198 0.995733
726 1 0.249494 0.0784257 0.820229
751 1 0.247232 0.160928 0.902419
730 1 0.433488 0.068958 0.833357
732 1 0.342568 0.0884314 0.896466
10 1 0.406823 0.0757517 0.998457
33 1 0.327489 0.176548 0.987745
736 1 0.522869 0.0856176 0.909306
14 1 0.595452 0.0933004 0.992759
740 1 0.672527 0.0824562 0.909749
763 1 0.753526 0.172728 0.897119
17 1 0.664167 -0.00846663 1.00112
737 1 0.673166 0.987921 0.845283
744 1 0.830264 0.0862989 0.905545
22 1 0.90702 0.0946621 0.993589
45 1 0.830798 0.173755 0.988514
767 1 0.933735 0.176298 0.926327
743 1 0.907414 0.00166988 0.902923
746 1 0.0730734 0.250212 0.848052
771 1 0.0668552 0.338299 0.922684
748 1 0.99167 0.264083 0.928307
53 1 0.159889 0.329607 0.011605
30 1 0.240245 0.260996 1.00968
752 1 0.162375 0.240255 0.914728
756 1 0.324607 0.251732 0.900878
773 1 0.143115 0.33078 0.856604
755 1 0.415345 0.173647 0.915192
779 1 0.419752 0.322919 0.912015
760 1 0.502548 0.243038 0.903824
759 1 0.591298 0.177315 0.914544
38 1 0.583652 0.260884 0.993239
783 1 0.582308 0.335587 0.895413
761 1 0.661251 0.171984 0.838751
41 1 0.672926 0.162955 0.982007
764 1 0.670789 0.26313 0.897196
42 1 0.736228 0.264112 -0.0130778
787 1 0.742212 0.348565 0.908949
789 1 0.824107 0.327831 0.837748
768 1 0.817926 0.254674 0.926916
791 1 0.904653 0.326623 0.919971
769 1 -0.0108498 0.332343 0.827394
797 1 0.176664 0.494509 0.822537
770 1 0.0902693 0.415192 0.827063
795 1 0.0749543 0.508105 0.910622
793 1 -0.00989041 0.509159 0.820852
772 1 0.996468 0.430281 0.919204
54 1 0.239271 0.41657 1.00666
775 1 0.231084 0.316891 0.910403
776 1 0.153861 0.418383 0.92145
781 1 0.500864 0.340849 0.829821
778 1 0.420493 0.424089 0.836448
780 1 0.335374 0.401836 0.907954
58 1 0.405184 0.414443 0.989461
784 1 0.50306 0.406209 0.913263
782 1 0.587174 0.423872 0.822909
788 1 0.657219 0.41354 0.917885
786 1 0.750117 0.425839 0.830112
811 1 0.749178 0.496271 0.910043
792 1 0.836777 0.422786 0.911576
790 1 0.915035 0.407143 0.84205
815 1 0.919686 0.5064 0.92919
794 1 0.0761138 0.578624 0.82145
819 1 0.0829535 0.651738 0.917653
800 1 0.160265 0.577023 0.915158
97 1 0.998289 0.673389 0.012922
799 1 0.253124 0.49249 0.907326
798 1 0.259289 0.574676 0.826897
81 1 0.335526 0.491466 0.00555475
82 1 0.442478 0.572679 1.00287
802 1 0.411607 0.569968 0.832759
803 1 0.433004 0.500585 0.920558
105 1 0.344701 0.655903 1.00744
804 1 0.354084 0.577473 0.924581
808 1 0.502231 0.576426 0.915907
827 1 0.428217 0.657719 0.917083
806 1 0.571909 0.581473 0.833043
807 1 0.584103 0.495133 0.905861
831 1 0.584954 0.662984 0.913644
109 1 0.507915 0.667608 -0.0059292
809 1 0.672216 0.496654 0.833892
812 1 0.665737 0.584249 0.905963
810 1 0.743009 0.599657 0.834886
835 1 0.750118 0.671649 0.921643
816 1 0.829816 0.585063 0.91129
837 1 0.832659 0.676932 0.831115
814 1 0.907397 0.576007 0.833499
813 1 0.831961 0.507582 0.850086
73 1 1.00316 0.497437 0.0225943
796 1 0.99672 0.582229 0.930273
817 1 0.99948 0.644292 0.83325
843 1 0.0912135 0.822669 0.916775
841 1 0.000891208 0.826129 0.828468
820 1 0.00224735 0.728559 0.904561
101 1 0.166059 0.64806 0.994315
102 1 0.25399 0.724322 0.990213
825 1 0.348181 0.663229 0.831844
823 1 0.250485 0.642622 0.900352
824 1 0.171846 0.74741 0.926115
828 1 0.325807 0.750131 0.911311
847 1 0.255338 0.835768 0.914075
106 1 0.402628 0.750958 0.992582
832 1 0.49144 0.747614 0.918852
129 1 0.337979 0.836183 1.00281
830 1 0.570473 0.761438 0.835803
836 1 0.678406 0.751467 0.922433
855 1 0.58327 0.833912 0.912344
833 1 0.664159 0.674018 0.823836
834 1 0.746088 0.746382 0.825492
840 1 0.832753 0.747109 0.918725
839 1 0.927765 0.660862 0.923761
838 1 0.920011 0.746595 0.821515
863 1 0.936737 0.813896 0.924199
5 1 0.162373 0.0208427 0.989282
723 1 0.077948 1.00707 0.913007
122 1 0.0858058 0.919376 1.01034
848 1 0.167379 0.916839 0.907862
9 1 0.327499 0.0017516 1.0125
727 1 0.246229 0.0252517 0.917373
852 1 0.329121 0.922043 0.914769
851 1 0.413018 0.837049 0.908658
130 1 0.403992 0.915987 0.00909987
731 1 0.432565 -0.0027973 0.919662
13 1 0.500594 0.015235 1.00678
735 1 0.584575 0.992117 0.924714
134 1 0.574358 0.916829 0.997122
856 1 0.499242 0.912878 0.918261
137 1 0.651557 0.826621 0.00741392
858 1 0.750036 0.914677 0.848812
739 1 0.761158 0.00253758 0.916743
857 1 0.668736 0.832561 0.846008
860 1 0.674581 0.921346 0.926912
859 1 0.756908 0.826907 0.917429
862 1 0.925639 0.925532 0.832194
741 1 0.824805 -2.74988e-05 0.827688
844 1 -0.00635564 0.902326 0.922712
864 1 0.836301 0.903473 0.913613
