ITEM: TIMESTEP
4250
ITEM: NUMBER OF ATOMS
864
ITEM: BOX BOUNDS pp pp pp
0.0000000000000000e+00 3.1559999999999999e+01
0.0000000000000000e+00 3.1559999999999999e+01
0.0000000000000000e+00 3.1559999999999999e+01
ITEM: ATOMS id type xs ys zs
8 1 0.157246 0.0852109 0.082167
146 1 0.0714875 0.0881711 0.15774
4 1 0.994133 0.0839897 0.0810975
149 1 0.176072 0.99522 0.152096
173 1 0.164818 0.146479 0.167658
7 1 0.251234 0.0212361 0.0919312
31 1 0.241996 0.149344 0.0977578
12 1 0.33776 0.0930601 0.0949616
150 1 0.243392 0.0736849 0.186069
153 1 0.333374 0.000945998 0.182457
6 1 0.255936 0.0922341 1.01053
16 1 0.493311 0.0822519 0.0728182
154 1 0.41742 0.0967548 0.174042
157 1 0.498702 1.00465 0.152744
11 1 0.411925 0.9891 0.08354
15 1 0.586562 -0.00484226 0.0649538
158 1 0.575243 0.0950798 0.159639
39 1 0.58468 0.151815 0.0699255
20 1 0.669563 0.0738167 0.0807022
161 1 0.660925 0.991525 0.153449
14 1 0.592942 0.073597 0.986285
43 1 0.747744 0.158139 0.0907971
24 1 0.837496 0.0833543 0.0685754
19 1 0.748042 1.00654 0.079504
185 1 0.672393 0.164183 0.163493
162 1 0.764831 0.0852584 0.178146
166 1 0.932293 0.0912331 0.174673
145 1 0.996767 1.00519 0.153564
27 1 0.0521762 0.186481 0.0751539
170 1 0.0806758 0.243559 0.160453
51 1 0.0698309 0.330564 0.0716376
32 1 0.147318 0.246005 0.0862026
174 1 0.25272 0.248161 0.147456
55 1 0.262949 0.332218 0.0777588
197 1 0.165557 0.336264 0.158879
201 1 0.331036 0.325964 0.165749
53 1 0.18178 0.324968 0.998749
36 1 0.344293 0.236719 0.0679037
35 1 0.427497 0.161924 0.0623237
178 1 0.405152 0.235451 0.168168
59 1 0.410887 0.320147 0.104747
40 1 0.496503 0.24555 0.0852336
44 1 0.674077 0.251804 0.0776328
181 1 0.505608 0.172302 0.157302
189 1 0.835402 0.1564 0.149536
48 1 0.826491 0.249996 0.0793187
169 1 0.988981 0.191781 0.168358
47 1 0.916427 0.162157 0.0808137
28 1 0.97343 0.25998 0.0781722
71 1 0.897499 0.333434 0.0755052
190 1 0.907391 0.25255 0.161513
194 1 0.0765284 0.410337 0.158649
217 1 -0.00478984 0.487635 0.168584
52 1 0.999536 0.415473 0.062303
75 1 0.0916325 0.484009 0.0748892
77 1 0.155811 0.501067 0.996909
56 1 0.186821 0.430526 0.0815913
79 1 0.256099 0.507623 0.0802647
198 1 0.257757 0.425545 0.186255
221 1 0.160394 0.49821 0.171204
60 1 0.325786 0.418406 0.0787036
202 1 0.414049 0.407996 0.164032
57 1 0.334439 0.324459 0.990717
58 1 0.410087 0.419303 0.986542
63 1 0.58336 0.31221 0.0710772
64 1 0.489515 0.419855 0.0862697
87 1 0.588289 0.48735 0.0710539
206 1 0.574652 0.418652 0.158741
67 1 0.760761 0.33905 0.0780795
68 1 0.668671 0.407821 0.0511988
72 1 0.838849 0.420661 0.0699422
210 1 0.763994 0.40426 0.158569
213 1 0.831356 0.318014 0.167543
193 1 1.0026 0.333848 0.165238
95 1 0.916842 0.493962 0.0709481
73 1 0.00774725 0.505727 0.994477
99 1 0.101201 0.661258 0.0869964
76 1 0.0258944 0.579045 0.0858848
80 1 0.162101 0.57972 0.0847843
84 1 0.324995 0.587899 0.0870884
103 1 0.234721 0.663055 0.0798502
222 1 0.232728 0.580576 0.173075
245 1 0.158347 0.678548 0.17283
83 1 0.41586 0.504506 0.0732353
82 1 0.410327 0.575676 0.997489
105 1 0.344183 0.667481 -0.00201268
233 1 0.668791 0.47303 0.144942
88 1 0.505561 0.567259 0.081315
86 1 0.582692 0.586253 0.996259
229 1 0.496108 0.49659 0.16061
92 1 0.660621 0.581517 0.0669117
91 1 0.737397 0.495255 0.0623077
96 1 0.843433 0.576277 0.0731131
261 1 0.820305 0.653384 0.1489
115 1 0.750395 0.669405 0.0653711
90 1 0.748041 0.588993 0.993425
119 1 0.928334 0.660502 0.0777739
238 1 0.931326 0.56702 0.159188
94 1 0.933868 0.583869 -0.00202479
98 1 0.0925159 0.757415 1.00389
123 1 0.076317 0.844941 0.0651444
104 1 0.175172 0.756972 0.092621
108 1 0.332985 0.773315 0.0834528
107 1 0.437189 0.653676 0.0783211
250 1 0.407953 0.732617 0.156743
111 1 0.595147 0.668587 0.0711782
109 1 0.497514 0.672428 0.997484
112 1 0.511259 0.746537 0.0670079
253 1 0.517969 0.656597 0.16364
254 1 0.572058 0.744515 0.169066
110 1 0.587009 0.750233 0.995621
116 1 0.667905 0.770092 0.0781177
114 1 0.756744 0.779765 -0.0139179
139 1 0.7678 0.834235 0.0879571
120 1 0.832268 0.744799 0.0799769
117 1 0.83236 0.671006 0.998133
100 1 0.998372 0.760026 0.0817497
143 1 0.908012 0.837202 0.062176
118 1 0.910714 0.741687 0.991385
3 1 0.08629 0.998891 0.0696862
128 1 0.16256 0.904584 0.0753045
124 1 0.995959 0.921754 0.0764438
265 1 0.985644 0.853646 0.157539
127 1 0.242218 0.833185 0.10178
129 1 0.319092 0.844554 1.00376
270 1 0.247385 0.911341 0.176416
132 1 0.313786 0.928479 0.0891408
126 1 0.235451 0.922766 0.00513168
273 1 0.337957 0.831322 0.177781
131 1 0.414189 0.845267 0.0776985
274 1 0.40794 0.911785 0.153428
136 1 0.504299 0.913352 0.0755666
135 1 0.586547 0.828112 0.0718524
278 1 0.578513 0.914173 0.151529
277 1 0.496007 0.818266 0.143019
281 1 0.672651 0.832682 0.174616
137 1 0.670854 0.845217 0.998396
140 1 0.665338 0.910235 0.0801997
282 1 0.774251 0.92469 0.166728
165 1 0.848797 0.00892408 0.155584
23 1 0.917798 -0.00236434 0.0679589
144 1 0.835481 0.922712 0.0839725
286 1 0.917212 0.922034 0.159648
290 1 0.0799059 0.0900629 0.334369
147 1 0.0890805 1.00242 0.228388
152 1 0.168828 0.0771122 0.258425
171 1 0.0733171 0.169809 0.239949
151 1 0.252298 -0.0120677 0.250383
156 1 0.34612 0.0850576 0.261023
175 1 0.239505 0.180691 0.252248
294 1 0.262968 0.078598 0.331372
321 1 0.327938 0.172799 0.325203
298 1 0.427429 0.0975826 0.334235
179 1 0.415914 0.18199 0.262824
160 1 0.500385 0.0997345 0.249281
183 1 0.583375 0.168431 0.246832
305 1 0.672836 -0.00271658 0.326137
164 1 0.654982 0.0644928 0.224093
306 1 0.75145 0.079392 0.330294
333 1 0.834855 0.16885 0.333358
187 1 0.755826 0.164739 0.263681
148 1 -4.12525e-06 0.0799093 0.255247
168 1 0.842786 0.0949412 0.260573
167 1 0.919204 0.00275884 0.232559
314 1 0.0748608 0.255019 0.339407
195 1 0.0871037 0.327324 0.227178
341 1 0.147447 0.323207 0.316118
177 1 0.310319 0.167111 0.181553
176 1 0.152375 0.243835 0.238456
318 1 0.248493 0.249165 0.336077
180 1 0.324414 0.254393 0.252092
322 1 0.404517 0.262445 0.33758
349 1 0.512311 0.336661 0.32033
182 1 0.590415 0.236391 0.153581
184 1 0.502673 0.24672 0.249063
209 1 0.662714 0.345941 0.148996
207 1 0.586796 0.338252 0.237564
186 1 0.746798 0.247034 0.165727
188 1 0.66552 0.265564 0.238665
330 1 0.730384 0.25452 0.323979
192 1 0.82511 0.253013 0.250962
313 1 0.996372 0.185974 0.324295
191 1 0.904288 0.177931 0.24794
337 1 0.990006 0.33235 0.342141
172 1 0.989787 0.272618 0.256155
334 1 0.907461 0.26 0.332908
215 1 0.900468 0.334517 0.258095
196 1 0.983068 0.412874 0.240799
338 1 0.0686648 0.411128 0.321218
219 1 0.0733692 0.493847 0.245125
200 1 0.148643 0.420267 0.25225
199 1 0.242492 0.322291 0.251689
204 1 0.33717 0.43536 0.248132
203 1 0.413868 0.31599 0.234486
345 1 0.32358 0.336037 0.315785
227 1 0.425851 0.509749 0.245687
346 1 0.415896 0.410678 0.31685
205 1 0.511346 0.317167 0.171158
208 1 0.497913 0.418637 0.245982
212 1 0.666469 0.413912 0.234835
350 1 0.576229 0.423026 0.316251
211 1 0.75106 0.33752 0.239862
237 1 0.835573 0.506994 0.157261
354 1 0.748602 0.405171 0.326489
214 1 0.90641 0.410754 0.155518
361 1 0.992045 0.489955 0.321203
216 1 0.834239 0.406041 0.240154
218 1 0.0875621 0.584689 0.181026
362 1 0.0670943 0.59035 0.328881
243 1 0.0706923 0.668696 0.249018
224 1 0.16331 0.587418 0.262532
223 1 0.241876 0.510398 0.248931
389 1 0.185918 0.66392 0.335939
247 1 0.257441 0.657921 0.255144
228 1 0.336757 0.584777 0.254426
249 1 0.315445 0.677182 0.161555
226 1 0.42194 0.583003 0.161068
369 1 0.332747 0.492521 0.343442
225 1 0.332699 0.506685 0.169355
232 1 0.500977 0.590694 0.267566
373 1 0.498391 0.500536 0.336851
230 1 0.583284 0.56458 0.150946
231 1 0.586536 0.504007 0.234293
236 1 0.669554 0.602479 0.238261
234 1 0.7392 0.569424 0.151874
235 1 0.753291 0.485273 0.24257
240 1 0.846524 0.585088 0.246064
378 1 0.754512 0.585146 0.330444
220 1 0.981801 0.593234 0.257367
381 1 0.819103 0.498942 0.31554
239 1 0.906553 0.498261 0.249011
382 1 0.910909 0.584302 0.330586
242 1 0.0705752 0.772061 0.158306
248 1 0.160369 0.754277 0.259708
244 1 0.992608 0.748457 0.23503
385 1 0.00307898 0.679151 0.334932
409 1 0.998785 0.833791 0.342564
246 1 0.236249 0.753779 0.18084
252 1 0.337181 0.741212 0.249632
390 1 0.256685 0.748175 0.331391
251 1 0.411919 0.657169 0.234208
394 1 0.411411 0.758139 0.329586
256 1 0.487206 0.736301 0.243015
255 1 0.582892 0.67644 0.252493
279 1 0.58628 0.833278 0.254309
398 1 0.594271 0.748416 0.324334
258 1 0.747799 0.755522 0.165317
257 1 0.664008 0.675677 0.157981
259 1 0.764758 0.673092 0.24359
260 1 0.681689 0.729838 0.254809
262 1 0.909409 0.741568 0.157244
405 1 0.838032 0.661029 0.343818
241 1 0.00113426 0.665997 0.150523
264 1 0.827549 0.758043 0.241584
263 1 0.911862 0.671557 0.245473
406 1 0.911598 0.750806 0.332293
287 1 0.920332 0.830198 0.267198
269 1 0.147468 0.842962 0.161017
266 1 0.0691655 0.913487 0.145882
293 1 0.15677 0.993265 0.324584
267 1 0.07346 0.847734 0.253428
271 1 0.23938 0.828234 0.25901
272 1 0.14864 0.923348 0.224197
276 1 0.333649 0.919776 0.256273
297 1 0.334431 1.00143 0.341002
417 1 0.33473 0.839916 0.324303
155 1 0.432189 -0.010803 0.237289
275 1 0.426217 0.83656 0.237232
418 1 0.422251 0.905791 0.32309
421 1 0.493537 0.832114 0.323046
280 1 0.512419 0.915019 0.236345
301 1 0.496532 -0.000270061 0.335085
159 1 0.570758 -0.00154523 0.244756
422 1 0.584656 0.919036 0.339269
425 1 0.666982 0.84843 0.310769
283 1 0.758266 0.849587 0.245229
284 1 0.656757 0.929661 0.240659
163 1 0.772524 0.00073439 0.249001
426 1 0.739962 0.924985 0.326931
285 1 0.848375 0.831805 0.174225
288 1 0.84699 0.915336 0.245313
268 1 0.999956 0.919723 0.25305
317 1 0.147348 0.171455 0.326653
434 1 0.0910354 0.0718952 0.496287
296 1 0.168148 0.0892354 0.407613
461 1 0.166981 0.168717 0.492378
319 1 0.254792 0.162612 0.396294
465 1 0.337033 0.165688 0.494134
300 1 0.353218 0.0916373 0.404187
441 1 0.3466 0.0019376 0.486771
323 1 0.421034 0.178203 0.410863
442 1 0.422425 0.0892628 0.487281
325 1 0.5123 0.170255 0.334415
304 1 0.511968 0.0810061 0.410864
302 1 0.599147 0.0771625 0.319663
327 1 0.593585 0.156378 0.40932
308 1 0.670625 0.0706409 0.404662
329 1 0.657884 0.161477 0.319118
331 1 0.747031 0.17901 0.402755
307 1 0.754564 0.00496703 0.411049
450 1 0.752927 0.0818274 0.496213
477 1 0.817067 0.162678 0.482393
310 1 0.920547 0.0818334 0.329588
292 1 -0.00462137 0.0910943 0.413295
312 1 0.823117 0.0817271 0.416611
311 1 0.917463 -0.00129415 0.41744
454 1 0.902928 0.0739807 0.492726
315 1 0.0781798 0.16269 0.424572
458 1 0.066171 0.230681 0.502123
339 1 0.0792144 0.333061 0.407223
481 1 1.00364 0.323237 0.499931
320 1 0.15396 0.244396 0.408194
324 1 0.329609 0.243348 0.406277
343 1 0.23743 0.324508 0.408148
489 1 0.326117 0.329362 0.486109
466 1 0.411859 0.254857 0.495232
328 1 0.510978 0.27356 0.406558
347 1 0.412724 0.327078 0.41973
493 1 0.497298 0.349614 0.501974
326 1 0.591358 0.25401 0.31841
470 1 0.580354 0.246066 0.49019
332 1 0.660404 0.239985 0.401795
351 1 0.60576 0.329927 0.402246
357 1 0.820299 0.326671 0.333852
353 1 0.670079 0.33475 0.308781
336 1 0.825377 0.256318 0.409733
501 1 0.831007 0.317318 0.495697
335 1 0.914 0.176785 0.406831
316 1 1.00405 0.2461 0.416616
340 1 0.998801 0.421562 0.412075
363 1 0.0647852 0.510392 0.422251
482 1 0.0776041 0.407258 0.499962
365 1 0.158789 0.497783 0.328604
342 1 0.247579 0.417472 0.334665
344 1 0.156469 0.404222 0.397092
367 1 0.253234 0.490869 0.418225
486 1 0.241059 0.3953 0.490286
509 1 0.159149 0.496357 0.494542
348 1 0.331559 0.41523 0.415978
371 1 0.423108 0.493602 0.4064
490 1 0.411275 0.409123 0.501148
377 1 0.666436 0.501519 0.309538
352 1 0.50981 0.413011 0.41652
375 1 0.587471 0.494038 0.403279
494 1 0.592801 0.437824 0.499786
355 1 0.725643 0.326144 0.412222
356 1 0.663417 0.427906 0.398026
498 1 0.755234 0.406252 0.496131
360 1 0.834589 0.411962 0.40859
358 1 0.903873 0.432172 0.324659
359 1 0.91504 0.331293 0.416371
502 1 0.913953 0.410894 0.494508
505 1 0.990131 0.488799 0.501451
368 1 0.150872 0.591443 0.411956
364 1 0.988498 0.609048 0.408761
529 1 0.99904 0.662414 0.508227
366 1 0.263032 0.577179 0.339758
372 1 0.345497 0.587248 0.431316
510 1 0.246232 0.57205 0.490629
533 1 0.170312 0.67293 0.488666
370 1 0.42029 0.581584 0.341626
514 1 0.409201 0.570106 0.506113
376 1 0.505029 0.584228 0.411284
537 1 0.336923 0.665063 0.499775
374 1 0.587678 0.589006 0.331561
380 1 0.667622 0.568991 0.406226
517 1 0.496619 0.501524 0.501988
379 1 0.755644 0.489526 0.415609
403 1 0.758225 0.665406 0.415946
384 1 0.827029 0.572654 0.411089
525 1 0.844052 0.498042 0.489709
383 1 0.907973 0.499123 0.40635
526 1 0.90037 0.584203 0.509402
386 1 0.0904004 0.764323 0.338579
387 1 0.0849486 0.676722 0.413931
392 1 0.17636 0.751773 0.413335
388 1 0.992598 0.742129 0.428332
530 1 0.0896604 0.745557 0.495976
393 1 0.339527 0.659316 0.337439
391 1 0.261531 0.652613 0.416443
395 1 0.414676 0.663789 0.420584
396 1 0.334792 0.744051 0.411844
397 1 0.490688 0.667056 0.338671
400 1 0.509466 0.751315 0.409924
538 1 0.43314 0.756971 0.495953
401 1 0.677 0.654655 0.328288
399 1 0.585493 0.668886 0.398523
542 1 0.588811 0.732186 0.479859
404 1 0.672515 0.759307 0.413478
545 1 0.666281 0.652273 0.486228
402 1 0.762596 0.745449 0.336155
546 1 0.750976 0.753671 0.496028
427 1 0.736805 0.836579 0.409232
408 1 0.84081 0.752939 0.411559
407 1 0.8949 0.659379 0.434912
549 1 0.825763 0.667072 0.513115
550 1 0.913058 0.755009 0.498845
413 1 0.154081 0.844484 0.339249
410 1 0.0800408 0.913463 0.335348
289 1 0.0061218 -0.00225254 0.343034
291 1 0.0820549 0.00885231 0.413577
411 1 0.0824365 0.836392 0.420369
416 1 0.161424 0.929794 0.418919
557 1 0.181724 0.836943 0.48477
414 1 0.248514 0.926843 0.332249
295 1 0.24067 0.0024828 0.416801
415 1 0.270226 0.8352 0.403471
419 1 0.414118 0.831095 0.411478
420 1 0.344228 0.917504 0.411322
299 1 0.417743 1.00632 0.413902
445 1 0.501007 1.00275 0.48217
565 1 0.51182 0.824951 0.503173
423 1 0.595336 0.8337 0.40348
303 1 0.581736 1.00234 0.41808
424 1 0.507998 0.912281 0.408594
428 1 0.664353 0.920697 0.410952
309 1 0.848234 -0.000412851 0.338745
432 1 0.817234 0.929355 0.423509
570 1 0.745883 0.905802 0.500434
430 1 0.925587 0.925328 0.341247
429 1 0.825247 0.846498 0.328843
431 1 0.900872 0.855933 0.428675
412 1 -0.00254658 0.915519 0.407417
573 1 0.830153 0.824336 0.51148
435 1 0.0904095 0.987372 0.59159
578 1 0.0973882 0.0925179 0.656351
436 1 0.994765 0.075152 0.586777
440 1 0.168079 0.0789992 0.576812
459 1 0.068636 0.15921 0.586539
438 1 0.24333 0.08545 0.484844
439 1 0.253695 0.994895 0.592202
463 1 0.265786 0.161574 0.577384
469 1 0.499599 0.170328 0.487137
444 1 0.347368 0.0760919 0.563549
586 1 0.40779 0.0779784 0.652653
609 1 0.355031 0.162553 0.664567
467 1 0.414572 0.171248 0.565374
613 1 0.474698 0.16365 0.654523
446 1 0.57726 0.0823567 0.50554
449 1 0.650157 1.00824 0.502789
448 1 0.487685 0.0944062 0.571982
617 1 0.671354 0.167665 0.660241
452 1 0.66184 0.080515 0.592621
453 1 0.817588 0.989574 0.505686
456 1 0.82337 0.0763724 0.578147
475 1 0.749997 0.174936 0.581188
598 1 0.90281 0.0902049 0.668814
479 1 0.916459 0.149234 0.580033
455 1 0.904908 -0.0115528 0.606881
601 1 1.00384 0.151957 0.663329
602 1 0.0737044 0.258536 0.674975
462 1 0.242676 0.244638 0.501055
464 1 0.169717 0.251343 0.582463
629 1 0.165681 0.320806 0.659372
468 1 0.329538 0.246883 0.574525
487 1 0.246786 0.320614 0.575833
610 1 0.433354 0.257456 0.648787
491 1 0.412224 0.331056 0.574374
472 1 0.502018 0.255655 0.563887
637 1 0.511269 0.326586 0.663409
633 1 0.322453 0.327594 0.658859
497 1 0.655759 0.345001 0.48736
471 1 0.568763 0.165728 0.581269
495 1 0.579247 0.323185 0.57528
473 1 0.665416 0.156669 0.486216
474 1 0.738311 0.245228 0.481642
476 1 0.666423 0.238708 0.578034
618 1 0.745787 0.25419 0.661687
499 1 0.749972 0.329703 0.581232
645 1 0.829619 0.328975 0.664292
457 1 0.990445 0.145691 0.506872
478 1 0.919383 0.247785 0.507107
460 1 0.989677 0.242259 0.583281
480 1 0.829137 0.241827 0.576742
503 1 0.908863 0.327689 0.573579
622 1 0.917977 0.254701 0.679612
621 1 0.833622 0.167302 0.653058
483 1 0.0618516 0.318986 0.589007
626 1 0.0860583 0.396221 0.668706
484 1 1.00165 0.406482 0.577875
507 1 0.0793221 0.49349 0.5801
649 1 0.00849747 0.480584 0.660422
485 1 0.152751 0.320397 0.500855
488 1 0.162416 0.405879 0.573672
513 1 0.337946 0.489619 0.497061
492 1 0.329132 0.411937 0.591086
515 1 0.419225 0.486924 0.574261
634 1 0.431176 0.394954 0.660595
657 1 0.327824 0.498065 0.656478
496 1 0.514676 0.413711 0.577872
500 1 0.677848 0.411186 0.569623
638 1 0.595986 0.421589 0.64698
665 1 0.692361 0.509807 0.666738
661 1 0.495191 0.514435 0.644977
641 1 0.658328 0.332046 0.654697
642 1 0.754591 0.41164 0.661897
669 1 0.832161 0.492917 0.675023
504 1 0.847563 0.41026 0.590457
646 1 0.913738 0.418413 0.672449
506 1 0.0824922 0.596304 0.497789
650 1 0.0836666 0.573984 0.668085
653 1 0.179234 0.508829 0.661686
511 1 0.242852 0.480594 0.568222
512 1 0.171547 0.578938 0.560566
516 1 0.344383 0.578612 0.590929
677 1 0.169834 0.664318 0.668903
520 1 0.489073 0.593042 0.573872
658 1 0.418176 0.59451 0.670643
518 1 0.592151 0.575976 0.484591
519 1 0.585065 0.521741 0.57616
662 1 0.599738 0.591982 0.668418
521 1 0.688528 0.493122 0.501023
523 1 0.767651 0.493867 0.577439
524 1 0.700895 0.575124 0.586462
522 1 0.759881 0.576102 0.499428
666 1 0.756595 0.593959 0.683163
508 1 0.013029 0.576309 0.583883
528 1 0.83324 0.584055 0.59605
527 1 0.902035 0.50271 0.584301
551 1 0.916671 0.672378 0.58507
670 1 0.925731 0.576091 0.678363
531 1 0.106494 0.658027 0.583165
553 1 0.990279 0.854399 0.500021
532 1 0.99779 0.753561 0.569217
555 1 0.0851372 0.840893 0.581831
534 1 0.240436 0.746369 0.494015
535 1 0.256539 0.667734 0.566197
536 1 0.17773 0.748615 0.579431
540 1 0.342481 0.754626 0.58563
559 1 0.251103 0.821613 0.581457
541 1 0.497851 0.658271 0.48555
539 1 0.413688 0.678802 0.576271
544 1 0.50737 0.734732 0.579307
543 1 0.591924 0.661606 0.577779
567 1 0.594492 0.81978 0.570686
548 1 0.667697 0.74651 0.569966
689 1 0.669135 0.67471 0.643611
547 1 0.754389 0.68481 0.591039
713 1 0.668959 0.833717 0.673684
571 1 0.743419 0.833073 0.576484
690 1 0.754387 0.758189 0.664278
552 1 0.845866 0.75343 0.585769
693 1 0.850081 0.671853 0.675797
437 1 0.178088 0.994327 0.506927
554 1 0.0822045 0.920788 0.500241
698 1 0.0881691 0.916976 0.66668
558 1 0.255426 0.920207 0.503606
581 1 0.171089 -0.0101411 0.67554
560 1 0.177561 0.915626 0.589287
702 1 0.26122 0.900631 0.655451
564 1 0.349934 0.92431 0.578985
561 1 0.347052 0.844795 0.499524
562 1 0.429958 0.90988 0.492927
585 1 0.33784 0.00232178 0.661914
443 1 0.435815 0.00504347 0.56534
563 1 0.431391 0.829184 0.582613
566 1 0.587639 0.917333 0.50106
447 1 0.553446 6.7135e-05 0.582702
568 1 0.506507 0.910532 0.575892
569 1 0.665954 0.832034 0.487618
572 1 0.669957 0.914901 0.568303
451 1 0.746747 0.999805 0.587276
576 1 0.830501 0.917314 0.589452
574 1 0.910956 0.933925 0.508939
575 1 0.918391 0.834765 0.582626
433 1 -0.00647647 0.00202324 0.502172
556 1 0.00348377 0.927547 0.577938
580 1 -0.00553363 0.0885569 0.737615
722 1 0.091274 0.0803343 0.819291
603 1 0.0642094 0.168435 0.744517
584 1 0.166904 0.0973888 0.747263
582 1 0.257264 0.0781208 0.664716
605 1 0.172019 0.174089 0.655841
726 1 0.2559 0.0860774 0.839447
607 1 0.259352 0.156298 0.745412
589 1 0.496978 0.0053994 0.672757
588 1 0.346922 0.0771444 0.747141
592 1 0.487842 0.0817484 0.741614
730 1 0.421998 0.0808707 0.822037
733 1 0.507318 0.995688 0.811144
590 1 0.582078 0.095728 0.671678
596 1 0.666815 0.0943458 0.746929
737 1 0.666417 0.0164233 0.833122
734 1 0.569188 0.0878208 0.811469
591 1 0.58429 0.000131098 0.740054
594 1 0.745457 0.08251 0.671115
595 1 0.739144 -0.0103615 0.739066
597 1 0.824382 1.00142 0.668001
738 1 0.748302 0.0975984 0.824157
600 1 0.829957 0.0804287 0.741206
742 1 0.908194 0.0820433 0.821956
721 1 0.00271407 0.00729158 0.816197
599 1 0.918224 0.00575816 0.740594
741 1 0.834672 0.00518926 0.831609
604 1 0.990489 0.25158 0.756739
627 1 0.0765607 0.334283 0.753414
608 1 0.169246 0.235273 0.747424
606 1 0.253118 0.253382 0.664538
753 1 0.358643 0.163897 0.823281
750 1 0.243653 0.246977 0.811646
611 1 0.420759 0.179893 0.743797
612 1 0.329711 0.248323 0.742345
754 1 0.423586 0.256813 0.824882
616 1 0.509282 0.268043 0.742911
614 1 0.576542 0.243408 0.655265
615 1 0.581706 0.178862 0.751626
639 1 0.594156 0.334126 0.754291
757 1 0.496134 0.174013 0.820836
758 1 0.582063 0.25923 0.827553
619 1 0.759883 0.178523 0.735389
761 1 0.659875 0.182838 0.815668
620 1 0.657179 0.255295 0.730775
762 1 0.751335 0.250785 0.825506
745 1 -0.00898359 0.16368 0.830898
765 1 0.833583 0.160922 0.815453
624 1 0.82825 0.258908 0.746945
623 1 0.922802 0.161884 0.750604
766 1 0.90459 0.248279 0.828763
625 1 0.987958 0.33251 0.664598
797 1 0.176351 0.489531 0.831702
773 1 0.174463 0.321892 0.822721
770 1 0.100451 0.419476 0.844496
631 1 0.24053 0.330569 0.737854
632 1 0.16767 0.415548 0.737477
630 1 0.244325 0.415248 0.652284
774 1 0.253201 0.406066 0.811268
636 1 0.348518 0.409425 0.742286
635 1 0.414176 0.321994 0.739435
777 1 0.330437 0.319195 0.819211
778 1 0.417737 0.406565 0.822874
640 1 0.508788 0.407368 0.740734
782 1 0.58881 0.42123 0.833311
644 1 0.669412 0.423952 0.746478
785 1 0.65822 0.323216 0.842891
643 1 0.735816 0.326398 0.731136
648 1 0.813038 0.402015 0.751411
667 1 0.751304 0.49334 0.758945
786 1 0.735152 0.405857 0.830913
789 1 0.832233 0.329205 0.837054
628 1 -0.00556277 0.419392 0.750653
647 1 0.909239 0.334252 0.760935
790 1 0.9217 0.409301 0.847103
769 1 0.00752031 0.328589 0.843537
673 1 0.0103359 0.666149 0.645534
651 1 0.082479 0.497417 0.740755
794 1 0.0913114 0.579648 0.816249
652 1 0.011468 0.593904 0.740214
675 1 0.0885989 0.665931 0.742759
655 1 0.251713 0.507963 0.745746
656 1 0.179417 0.593933 0.749694
654 1 0.252915 0.584832 0.658896
798 1 0.250197 0.577015 0.834828
679 1 0.236854 0.677928 0.742063
825 1 0.324783 0.67452 0.829459
659 1 0.404444 0.501707 0.753585
660 1 0.323785 0.61144 0.738106
683 1 0.415923 0.67101 0.735123
805 1 0.494692 0.498668 0.808938
802 1 0.411524 0.58723 0.833594
663 1 0.585117 0.494132 0.732034
664 1 0.494309 0.582291 0.74017
806 1 0.570529 0.582412 0.814837
813 1 0.817853 0.518222 0.841486
668 1 0.678549 0.604854 0.757786
810 1 0.750846 0.601271 0.840429
672 1 0.840723 0.589504 0.74089
809 1 0.657843 0.507209 0.821271
671 1 0.893152 0.483179 0.764783
695 1 0.932426 0.671271 0.76331
814 1 0.928144 0.577888 0.820883
697 1 0.00647248 0.85912 0.653269
701 1 0.157574 0.838069 0.663177
674 1 0.0679973 0.760462 0.665809
818 1 0.0945836 0.759109 0.82457
676 1 0.0070824 0.749985 0.750746
841 1 0.0113319 0.837019 0.83468
678 1 0.261387 0.74745 0.663126
680 1 0.16276 0.758753 0.734104
684 1 0.343424 0.770264 0.74147
685 1 0.499745 0.672246 0.674138
681 1 0.334658 0.670963 0.655724
682 1 0.427941 0.754739 0.660085
707 1 0.418458 0.848147 0.735159
853 1 0.506342 0.832827 0.835806
709 1 0.516 0.828196 0.663098
688 1 0.489912 0.75647 0.754222
686 1 0.587727 0.737348 0.661543
687 1 0.576645 0.667483 0.749571
711 1 0.59278 0.830445 0.748996
830 1 0.592322 0.749985 0.827438
691 1 0.765877 0.678176 0.753674
692 1 0.680614 0.744225 0.746556
715 1 0.737867 0.837126 0.746242
837 1 0.845239 0.666274 0.831614
694 1 0.93022 0.757552 0.664647
696 1 0.83262 0.768131 0.748585
838 1 0.924607 0.750493 0.821164
577 1 0.997974 0.99458 0.655699
725 1 0.177383 1.00705 0.82462
579 1 0.0880546 -0.00320871 0.730747
699 1 0.0912213 0.847524 0.748085
704 1 0.1743 0.912215 0.754593
842 1 0.0991715 0.921787 0.835241
583 1 0.262913 -6.49025e-05 0.751251
703 1 0.25551 0.832738 0.738333
846 1 0.259204 0.919538 0.829147
845 1 0.159417 0.833619 0.837428
705 1 0.345477 0.837769 0.65063
706 1 0.4235 0.919654 0.661822
587 1 0.415968 0.997172 0.754671
708 1 0.333137 0.907246 0.744035
593 1 0.658953 -0.00830797 0.650078
710 1 0.574386 0.911016 0.662465
712 1 0.502609 0.914031 0.747206
854 1 0.595536 0.917462 0.828217
716 1 0.66492 0.923982 0.748467
714 1 0.739097 0.916241 0.660182
720 1 0.846832 0.918336 0.756767
858 1 0.745399 0.932664 0.838766
700 1 -0.00214814 0.918363 0.745426
717 1 0.817886 0.852833 0.667122
718 1 0.91173 0.905738 0.668308
719 1 0.925391 0.832716 0.75672
2 1 0.0778002 0.0888914 0.00961027
728 1 0.167882 0.0902299 0.91874
1 1 0.00228201 0.00108069 0.987559
5 1 0.169642 0.013267 0.995376
9 1 0.328231 0.00671464 0.994797
729 1 0.329645 0.00365698 0.83148
732 1 0.340385 0.0814633 0.919799
13 1 0.510642 -0.00787848 0.987805
10 1 0.419184 0.0851092 -0.0123893
731 1 0.422063 0.00414317 0.918104
736 1 0.511755 0.0900534 0.890406
735 1 0.592463 0.00583404 0.907352
740 1 0.667106 0.101128 0.902425
41 1 0.669755 0.173575 0.00232152
18 1 0.742502 0.088955 1.00338
739 1 0.741051 0.00793471 0.915795
763 1 0.761517 0.164791 0.917003
45 1 0.823219 0.165633 1.00005
724 1 -0.0131702 0.0770305 0.903395
744 1 0.835305 0.0891444 0.905316
22 1 0.916469 0.0955463 0.989557
767 1 0.912217 0.154213 0.901971
26 1 0.0646268 0.251275 -0.0191855
49 1 0.999558 0.329263 0.979434
746 1 0.0747084 0.251551 0.849229
747 1 0.0834996 0.156537 0.902321
29 1 0.155244 0.17755 0.00224587
752 1 0.158046 0.251023 0.919093
748 1 0.983159 0.244376 0.909672
30 1 0.242824 0.239244 0.00157097
751 1 0.247681 0.174185 0.913767
33 1 0.336681 0.159271 0.99041
749 1 0.159575 0.175475 0.834242
34 1 0.415599 0.244125 0.982182
756 1 0.33943 0.236369 0.892025
781 1 0.499685 0.331998 0.837514
755 1 0.41787 0.162303 0.911201
760 1 0.496604 0.242308 0.9039
38 1 0.573398 0.226509 -0.0150097
37 1 0.506696 0.145948 0.989014
61 1 0.482057 0.328489 0.011144
759 1 0.582164 0.1701 0.899475
783 1 0.57404 0.31313 0.928095
764 1 0.663351 0.235935 0.920858
42 1 0.753211 0.254949 0.994285
768 1 0.833193 0.242684 0.913226
25 1 -0.0129014 0.16783 0.997946
46 1 0.90939 0.237866 0.996136
771 1 0.0993327 0.335844 0.915368
50 1 0.0883052 0.40471 0.997796
795 1 0.0965232 0.498648 0.911399
776 1 0.170325 0.414458 0.918861
775 1 0.253092 0.320396 0.90208
54 1 0.25793 0.418757 0.990768
799 1 0.259796 0.497673 0.911931
779 1 0.414087 0.34382 0.908578
81 1 0.331288 0.507863 1.00957
780 1 0.327002 0.411945 0.88826
784 1 0.521388 0.415745 0.909277
62 1 0.55655 0.40026 0.0120871
66 1 0.751953 0.422302 0.988823
93 1 0.842643 0.498993 0.992014
787 1 0.752503 0.333526 0.913908
788 1 0.650789 0.420364 0.927919
65 1 0.659658 0.315456 0.994756
792 1 0.826144 0.428877 0.901911
69 1 0.828127 0.335318 0.995174
793 1 0.00699349 0.499712 0.845041
791 1 0.91724 0.324598 0.90308
772 1 0.0247368 0.416672 0.90857
70 1 0.91427 0.40318 0.985932
74 1 0.0975263 0.603086 0.999161
819 1 0.0961233 0.674038 0.909546
101 1 0.17009 0.677658 0.994571
821 1 0.174517 0.687023 0.827782
800 1 0.174061 0.584003 0.906172
78 1 0.249852 0.58261 1.01188
804 1 0.334605 0.580898 0.924589
823 1 0.25254 0.684346 0.931135
85 1 0.497649 0.491239 0.991081
801 1 0.328528 0.500304 0.830796
803 1 0.435156 0.487945 0.897025
808 1 0.492645 0.587772 0.908457
807 1 0.578033 0.51655 0.908023
812 1 0.654505 0.592806 0.898268
89 1 0.655859 0.505131 0.986089
811 1 0.738911 0.499093 0.907284
816 1 0.829793 0.59035 0.930345
835 1 0.756167 0.682654 0.916467
97 1 1.0063 0.679502 0.994502
817 1 0.0145689 0.657149 0.835796
796 1 1.0268 0.59567 0.912503
815 1 0.92284 0.518245 0.909365
839 1 0.930496 0.660344 0.914397
843 1 0.0852406 0.835972 0.915852
824 1 0.161106 0.761293 0.919348
820 1 0.0161442 0.755943 0.920802
822 1 0.259918 0.758067 0.835161
849 1 0.330872 0.837954 0.833266
102 1 0.258427 0.754746 0.00146698
828 1 0.329653 0.764861 0.913394
847 1 0.245648 0.83803 0.920725
106 1 0.405218 0.752842 0.0172856
826 1 0.408631 0.761325 0.823728
829 1 0.498804 0.667159 0.824163
827 1 0.416071 0.676942 0.921292
851 1 0.418306 0.829606 0.914942
832 1 0.489523 0.751542 0.911459
831 1 0.57761 0.667523 0.903957
113 1 0.666931 0.666257 0.993506
834 1 0.7511 0.763309 0.838072
833 1 0.676472 0.690449 0.842211
836 1 0.67777 0.763084 0.918562
861 1 0.830141 0.844634 0.829462
121 1 0.996141 0.828956 0.994902
840 1 0.848788 0.76552 0.90224
863 1 0.939227 0.832451 0.907143
125 1 0.178397 0.82634 0.00410487
723 1 0.0801098 0.0230178 0.91129
122 1 0.0854302 0.926521 0.980752
848 1 0.179622 0.920662 0.904131
844 1 0.00763343 0.931595 0.904283
727 1 0.244446 0.00567759 0.917555
852 1 0.337728 0.925167 0.91197
133 1 0.511441 0.843725 0.979237
130 1 0.420704 0.916931 0.996979
850 1 0.409334 0.92314 0.822888
134 1 0.600248 0.924579 0.990672
17 1 0.675152 -0.00136721 0.995862
856 1 0.50596 0.924025 0.891251
855 1 0.584222 0.834354 0.902757
860 1 0.670411 0.918178 0.915602
138 1 0.758273 0.923262 0.990671
857 1 0.66249 0.828538 0.822334
21 1 0.83248 0.00527989 0.990544
859 1 0.750045 0.847278 0.893152
743 1 0.909211 0.00675913 0.919584
141 1 0.840483 0.845525 0.977692
864 1 0.835249 0.932104 0.9115
862 1 0.931315 0.938938 0.827769
142 1 0.926328 0.924024 0.988196
