ITEM: TIMESTEP
3000
ITEM: NUMBER OF ATOMS
864
ITEM: BOX BOUNDS pp pp pp
0.0000000000000000e+00 3.1559999999999999e+01
0.0000000000000000e+00 3.1559999999999999e+01
0.0000000000000000e+00 3.1559999999999999e+01
ITEM: ATOMS id type xs ys zs
27 1 0.0850431 0.161998 0.0917872
97 1 0.00381769 0.139436 0.163577
8 1 0.169019 0.0853022 0.0793884
31 1 0.249318 0.160773 0.0595283
78 1 0.26335 0.0858732 0.149459
7 1 0.253306 0.000999081 0.0711964
12 1 0.338112 0.085935 0.0722946
105 1 0.339106 0.166486 0.158212
82 1 0.435282 0.0796779 0.132167
16 1 0.513954 0.0781709 0.0669923
39 1 0.579894 0.163157 0.0766302
89 1 0.659238 0.00222173 0.138006
20 1 0.677806 0.097796 0.0667513
117 1 0.831082 0.155312 0.16158
90 1 0.742942 0.0771753 0.155586
4 1 0.99753 0.0826323 0.0652117
24 1 0.840994 0.0678386 0.0729647
47 1 0.915742 0.164837 0.0895144
93 1 0.837608 0.00170079 0.160346
94 1 0.920442 0.0779499 0.142267
73 1 0.99599 0.00676529 0.146691
26 1 0.0784519 0.239312 0.0184217
98 1 0.0894629 0.257629 0.152454
121 1 0.00422969 0.32691 0.161678
101 1 0.174987 0.173234 0.146821
32 1 0.186468 0.268788 0.0888388
36 1 0.332243 0.24956 0.0860537
102 1 0.256992 0.245719 0.160326
33 1 0.333984 0.172975 0.00133513
35 1 0.411912 0.17367 0.0823678
59 1 0.421258 0.331408 0.071122
106 1 0.416607 0.243807 0.165731
113 1 0.660831 0.166787 0.154931
40 1 0.500993 0.257682 0.08611
44 1 0.658887 0.25111 0.0822881
109 1 0.500926 0.174487 0.162275
38 1 0.573048 0.245821 0.00365616
43 1 0.753445 0.167291 0.0788393
114 1 0.737179 0.246895 0.153692
48 1 0.82961 0.249573 0.0818516
42 1 0.73987 0.2494 0.00570389
28 1 0.995264 0.234086 0.0853604
71 1 0.911074 0.321915 0.0866382
46 1 0.914716 0.240363 0.0024992
125 1 0.155946 0.333756 0.160777
51 1 0.0912063 0.33613 0.0736272
122 1 0.0875766 0.410965 0.15653
435 1 0.0835753 0.499304 0.0659685
52 1 0.0139222 0.416803 0.0722499
55 1 0.259733 0.336589 0.0642906
56 1 0.178043 0.411346 0.0674321
126 1 0.255073 0.410565 0.161253
439 1 0.266513 0.49083 0.082861
509 1 0.17775 0.481786 0.160646
60 1 0.346793 0.407045 0.0822621
130 1 0.417201 0.405551 0.160934
64 1 0.492784 0.419836 0.081853
443 1 0.422832 0.497327 0.0769217
133 1 0.50048 0.33926 0.15372
63 1 0.59374 0.339671 0.0944431
62 1 0.584195 0.424488 0.0160576
68 1 0.667052 0.428205 0.0931233
67 1 0.767249 0.346195 0.0910911
525 1 0.832893 0.495802 0.161844
453 1 0.832858 0.494108 0.00436566
66 1 0.746746 0.420874 0.0165627
65 1 0.672633 0.337533 0.00867961
455 1 0.916432 0.497771 0.0864197
72 1 0.848024 0.410901 0.0778201
142 1 0.922635 0.412286 0.155915
70 1 0.926667 0.407242 0.0068214
505 1 0.99475 0.485217 0.16121
433 1 0.99213 0.493283 0.0019295
74 1 0.101954 0.0694287 0.167319
146 1 0.0824986 0.0795835 0.326706
76 1 0.0107653 0.0617848 0.252385
149 1 0.16391 0.0129062 0.330625
173 1 0.166154 0.145997 0.330246
80 1 0.17987 0.105269 0.228678
150 1 0.260386 0.0855192 0.311801
77 1 0.191984 0.0096181 0.16933
84 1 0.341828 0.072828 0.232189
88 1 0.482387 0.0760602 0.237598
177 1 0.33771 0.153182 0.319165
107 1 0.414777 0.164122 0.24621
157 1 0.483202 0.00142632 0.325651
154 1 0.416144 0.0785273 0.331327
161 1 0.66661 0.00569143 0.321578
86 1 0.583819 0.0854379 0.168103
158 1 0.590204 0.101701 0.329035
91 1 0.747985 0.00753666 0.250911
92 1 0.674795 0.0839764 0.230175
185 1 0.680211 0.152011 0.314044
96 1 0.836255 0.0851699 0.246568
119 1 0.92025 0.154883 0.23625
189 1 0.836485 0.156412 0.320065
166 1 0.922037 0.0871664 0.313907
99 1 0.0945339 0.166851 0.220582
123 1 0.0948878 0.323579 0.26241
100 1 0.00585551 0.240087 0.257318
193 1 0.00216393 0.322649 0.332094
103 1 0.259274 0.17288 0.238832
104 1 0.166911 0.242841 0.253281
201 1 0.29991 0.329926 0.323656
127 1 0.237751 0.324212 0.226137
174 1 0.249223 0.231279 0.325265
108 1 0.340524 0.24352 0.246945
129 1 0.33755 0.319513 0.173949
178 1 0.417375 0.26456 0.330546
181 1 0.498043 0.172472 0.324635
110 1 0.579915 0.259163 0.168984
111 1 0.578117 0.169585 0.241208
112 1 0.504596 0.254988 0.243621
116 1 0.665735 0.245045 0.241365
182 1 0.5834 0.249677 0.330602
137 1 0.67435 0.332141 0.167126
115 1 0.749574 0.171339 0.237258
209 1 0.668563 0.328793 0.310409
118 1 0.913683 0.242416 0.171856
120 1 0.838803 0.241049 0.248872
190 1 0.91607 0.236838 0.326294
143 1 0.928344 0.329038 0.251876
194 1 0.0813631 0.42043 0.330366
124 1 0.0125394 0.400876 0.233594
128 1 0.164176 0.416562 0.252044
511 1 0.257904 0.490589 0.249526
197 1 0.183444 0.339253 0.332281
132 1 0.327423 0.402083 0.251576
131 1 0.406653 0.333944 0.255246
513 1 0.337099 0.483905 0.173312
589 1 0.495344 0.499765 0.322067
202 1 0.414402 0.426055 0.332735
136 1 0.49966 0.412981 0.247758
205 1 0.49767 0.340403 0.333112
135 1 0.587908 0.352887 0.248836
134 1 0.576322 0.428639 0.167478
140 1 0.665302 0.430744 0.236359
206 1 0.605724 0.425013 0.32202
523 1 0.747243 0.497608 0.23911
138 1 0.750975 0.412953 0.169388
139 1 0.753283 0.337895 0.250963
144 1 0.830744 0.407986 0.262604
210 1 0.736431 0.415677 0.322276
527 1 0.909482 0.485047 0.249967
141 1 0.839938 0.336032 0.179274
171 1 0.0772789 0.15495 0.421483
152 1 0.151888 0.0828024 0.420578
169 1 0.00267646 0.158344 0.333489
249 1 0.331909 0.156342 0.485526
175 1 0.247618 0.158325 0.414821
222 1 0.246811 0.0794666 0.486725
253 1 0.487396 0.16289 0.488456
156 1 0.342047 0.0761101 0.410406
160 1 0.495255 0.0820253 0.408274
226 1 0.418841 0.0868036 0.484834
257 1 0.659467 0.163721 0.492662
159 1 0.582289 0.00940519 0.393812
234 1 0.750054 0.0762903 0.498222
162 1 0.757656 0.0851956 0.335115
164 1 0.670357 0.0878576 0.413658
168 1 0.828576 0.094019 0.417493
187 1 0.746322 0.164146 0.419472
167 1 0.903306 0.00336371 0.427272
148 1 0.985066 0.0754257 0.426381
191 1 0.92273 0.163344 0.410186
165 1 0.841644 0.0146931 0.342922
172 1 0.00591195 0.251265 0.418561
195 1 0.0901236 0.327097 0.410934
170 1 0.0887752 0.223651 0.333757
265 1 0.000159193 0.33191 0.49151
246 1 0.263355 0.237995 0.490546
273 1 0.326314 0.332761 0.497508
245 1 0.168515 0.184375 0.493905
176 1 0.179154 0.257762 0.412341
180 1 0.327704 0.25359 0.411573
179 1 0.419897 0.182249 0.400071
250 1 0.411593 0.245998 0.488316
183 1 0.576957 0.171801 0.420241
184 1 0.510773 0.269507 0.407856
186 1 0.742606 0.246631 0.336074
258 1 0.744732 0.246282 0.483086
211 1 0.745697 0.326815 0.402743
188 1 0.6686 0.238213 0.420002
285 1 0.833149 0.325017 0.475094
215 1 0.921217 0.317026 0.416309
192 1 0.833763 0.226706 0.416168
213 1 0.836182 0.321179 0.336868
196 1 0.00817806 0.397406 0.410348
200 1 0.155318 0.415996 0.40944
649 1 0.00524691 0.479727 0.488895
653 1 0.166512 0.494718 0.496664
579 1 0.0893701 0.498565 0.421267
583 1 0.255572 0.492282 0.428434
204 1 0.328437 0.417563 0.428991
198 1 0.25185 0.427516 0.341587
199 1 0.246866 0.336214 0.41869
208 1 0.49828 0.427239 0.410118
203 1 0.408944 0.339499 0.419065
587 1 0.413559 0.496707 0.41408
274 1 0.413322 0.418061 0.490569
591 1 0.580273 0.494743 0.409153
281 1 0.664362 0.334389 0.490091
665 1 0.655501 0.493869 0.488734
207 1 0.591094 0.337174 0.41083
277 1 0.510768 0.337698 0.490384
595 1 0.76022 0.499282 0.417226
282 1 0.749951 0.419974 0.490897
216 1 0.828371 0.409955 0.411871
212 1 0.669106 0.415341 0.412388
599 1 0.918574 0.495891 0.415552
286 1 0.916188 0.409594 0.482925
214 1 0.93291 0.415886 0.337937
218 1 0.0735128 0.0645135 0.502387
290 1 0.082046 0.0716588 0.653311
224 1 0.174183 0.0715296 0.595937
228 1 0.328032 0.0869116 0.585232
247 1 0.231222 0.165378 0.583536
298 1 0.420188 0.0695603 0.666135
251 1 0.425713 0.150864 0.580348
227 1 0.42175 0.0063947 0.574842
297 1 0.338696 0.00184928 0.658719
232 1 0.512904 0.0788851 0.589198
236 1 0.664945 0.0939759 0.584202
302 1 0.587135 0.0927276 0.663441
231 1 0.596838 0.00614137 0.587408
230 1 0.583855 0.083486 0.500636
229 1 0.506075 0.0010703 0.51414
305 1 0.68617 0.00606518 0.66327
306 1 0.747047 0.0823767 0.662967
240 1 0.832696 0.0771712 0.581945
235 1 0.752362 0.000867328 0.58759
220 1 0.995819 0.0638582 0.592903
333 1 0.838115 0.163033 0.659048
263 1 0.909014 0.161144 0.580416
313 1 0.988796 0.155365 0.661338
238 1 0.921769 0.0873472 0.507383
241 1 0.997629 0.161172 0.510745
243 1 0.0907636 0.166805 0.602291
267 1 0.0752602 0.31557 0.593153
248 1 0.159614 0.252405 0.583511
341 1 0.157113 0.328047 0.663902
242 1 0.0777167 0.240483 0.501004
271 1 0.249134 0.330517 0.585126
252 1 0.325358 0.25065 0.573428
345 1 0.324146 0.314799 0.659569
321 1 0.324742 0.169145 0.655108
269 1 0.167924 0.329096 0.501663
322 1 0.407616 0.227441 0.657681
275 1 0.398658 0.328841 0.584354
255 1 0.582523 0.167884 0.573579
256 1 0.503784 0.246724 0.590501
279 1 0.580515 0.332354 0.593188
326 1 0.593147 0.243366 0.662378
254 1 0.590921 0.255482 0.501687
259 1 0.759194 0.170192 0.592965
260 1 0.671274 0.247439 0.569076
329 1 0.677481 0.173245 0.652679
244 1 0.992798 0.242697 0.59181
264 1 0.847264 0.256515 0.574452
287 1 0.926468 0.332473 0.572359
261 1 0.836405 0.169991 0.502799
262 1 0.929004 0.247494 0.506464
651 1 0.0811121 0.493226 0.586466
268 1 0.00342981 0.418192 0.581566
266 1 0.0862994 0.410907 0.511912
725 1 0.173325 0.492368 0.665577
270 1 0.251362 0.409242 0.505825
655 1 0.248004 0.497354 0.584135
272 1 0.17101 0.41963 0.575331
276 1 0.316354 0.417513 0.602287
657 1 0.331487 0.49493 0.517015
346 1 0.407757 0.40536 0.652989
349 1 0.489347 0.336731 0.657631
663 1 0.580933 0.496466 0.58099
280 1 0.504094 0.42022 0.584199
284 1 0.65372 0.416075 0.567931
278 1 0.564197 0.429918 0.500552
283 1 0.746082 0.337042 0.573706
354 1 0.75732 0.421388 0.652814
288 1 0.842169 0.408294 0.563072
669 1 0.833973 0.496775 0.502983
671 1 0.926242 0.494253 0.559825
357 1 0.834541 0.33529 0.652082
337 1 0.999204 0.343632 0.664548
358 1 0.910422 0.420484 0.658579
293 1 0.166185 0.000386884 0.676322
315 1 0.078113 0.144108 0.755586
317 1 0.166257 0.151527 0.676328
385 1 0.00465578 0.137847 0.833104
294 1 0.261791 0.0782077 0.681287
296 1 0.171655 0.0819501 0.748362
300 1 0.351463 0.0711274 0.75577
304 1 0.490001 0.0797377 0.744682
323 1 0.416462 0.161624 0.73603
370 1 0.424395 0.0763973 0.822978
325 1 0.504854 0.15666 0.671063
374 1 0.574935 0.0760008 0.825319
303 1 0.591622 0.01297 0.723725
308 1 0.677596 0.0875815 0.751575
378 1 0.758927 0.0740138 0.829672
312 1 0.828436 0.0613769 0.752643
310 1 0.914786 0.0754756 0.677235
292 1 0.997803 0.075764 0.743262
314 1 0.0778843 0.248884 0.679987
386 1 0.0774589 0.243852 0.822546
320 1 0.166743 0.236111 0.762505
319 1 0.256961 0.16785 0.759043
318 1 0.220942 0.242614 0.671671
324 1 0.32704 0.247647 0.760122
394 1 0.419514 0.248219 0.832771
328 1 0.488217 0.256122 0.737617
347 1 0.406974 0.327693 0.738634
397 1 0.503981 0.177299 0.814065
327 1 0.591465 0.168501 0.744111
332 1 0.664557 0.253601 0.74786
401 1 0.662908 0.167206 0.829474
351 1 0.574742 0.322468 0.73863
398 1 0.589773 0.260835 0.830267
330 1 0.742373 0.26378 0.670911
331 1 0.757758 0.177923 0.750142
402 1 0.748608 0.25675 0.827235
336 1 0.82707 0.261754 0.750601
334 1 0.92679 0.258566 0.670823
335 1 0.899919 0.174207 0.74472
316 1 0.988669 0.260559 0.758208
339 1 0.0743842 0.343339 0.758791
338 1 0.0723174 0.422256 0.680147
344 1 0.147173 0.435719 0.755019
342 1 0.24526 0.401723 0.68173
343 1 0.213041 0.334685 0.759156
414 1 0.248265 0.414117 0.828031
348 1 0.328612 0.417394 0.748677
418 1 0.424154 0.413367 0.822819
352 1 0.487858 0.411338 0.742194
417 1 0.334289 0.336415 0.82562
350 1 0.584647 0.412517 0.675193
422 1 0.580782 0.406658 0.819586
733 1 0.507098 0.495436 0.670469
421 1 0.502102 0.334433 0.830392
425 1 0.664852 0.344227 0.83129
735 1 0.59274 0.496148 0.76196
353 1 0.674592 0.347497 0.670921
739 1 0.753333 0.497185 0.737323
355 1 0.743178 0.340667 0.755787
356 1 0.668678 0.41795 0.753229
360 1 0.829695 0.412989 0.754953
340 1 0.985027 0.427571 0.745581
359 1 0.90389 0.343495 0.75313
409 1 0.983605 0.345142 0.827637
430 1 0.914112 0.437303 0.823748
2 1 0.0891099 0.0893765 0.993276
362 1 0.0932623 0.0639326 0.839915
389 1 0.163919 0.15862 0.846012
387 1 0.0772745 0.161388 0.914034
364 1 0.0194559 0.0689942 0.912878
25 1 0.00282489 0.165571 0.990285
6 1 0.248116 0.0773438 0.989939
366 1 0.258027 0.0783171 0.836163
368 1 0.166938 0.0646134 0.909375
391 1 0.255876 0.16288 0.918079
29 1 0.174122 0.146845 0.992035
10 1 0.43279 0.0725619 0.991065
9 1 0.344435 0.000492261 0.993701
393 1 0.335036 0.158551 0.833849
372 1 0.336233 0.0800941 0.907734
395 1 0.41796 0.163888 0.915473
376 1 0.493678 0.0623736 0.907427
14 1 0.596964 0.0770403 0.986798
399 1 0.589658 0.157851 0.917192
37 1 0.503141 0.158327 0.984762
18 1 0.753465 0.0806195 0.986156
380 1 0.67229 0.0704185 0.892808
384 1 0.832375 0.0756041 0.91114
17 1 0.67853 0.00177652 0.998872
22 1 0.914954 0.0778814 0.98976
382 1 0.917877 0.0706723 0.834949
49 1 0.00446526 0.315481 0.997652
53 1 0.14404 0.32096 0.989278
413 1 0.155738 0.330778 0.844185
411 1 0.0747281 0.315474 0.914906
30 1 0.254011 0.24826 0.983508
392 1 0.16954 0.242656 0.917102
390 1 0.251783 0.254624 0.838822
57 1 0.339729 0.332896 0.988463
34 1 0.423818 0.255909 0.98335
396 1 0.340771 0.255975 0.905679
41 1 0.663494 0.169541 0.997929
400 1 0.504035 0.260804 0.909825
423 1 0.583232 0.326566 0.922407
405 1 0.830725 0.174508 0.837662
403 1 0.754226 0.173402 0.920152
404 1 0.67761 0.246907 0.91388
69 1 0.821984 0.331364 0.994078
408 1 0.821361 0.261079 0.916096
406 1 0.911159 0.259144 0.83555
407 1 0.910609 0.169077 0.919743
45 1 0.834939 0.178372 0.985678
388 1 0.993146 0.247478 0.898828
431 1 0.918634 0.332101 0.928348
50 1 0.088934 0.418097 0.992799
410 1 0.0737095 0.415781 0.841255
795 1 0.0818928 0.498766 0.918928
799 1 0.261626 0.499577 0.912306
54 1 0.255427 0.413454 0.991707
415 1 0.252755 0.337406 0.910075
416 1 0.177792 0.410673 0.914783
437 1 0.185281 0.499413 0.9982
420 1 0.335321 0.416122 0.909694
58 1 0.408167 0.418926 0.993176
419 1 0.428864 0.336286 0.911844
61 1 0.50082 0.342545 0.998234
805 1 0.511665 0.489885 0.834945
445 1 0.503503 0.499144 0.996033
428 1 0.664411 0.417359 0.919346
424 1 0.527788 0.415282 0.919621
811 1 0.753621 0.495544 0.924796
429 1 0.825426 0.335791 0.83641
426 1 0.751869 0.429039 0.83403
809 1 0.679605 0.498597 0.838872
427 1 0.745703 0.348256 0.908403
432 1 0.834089 0.415491 0.918623
412 1 0.996498 0.400254 0.926393
440 1 0.166385 0.586874 0.0758904
459 1 0.0845663 0.658017 0.0786516
506 1 0.0823979 0.569121 0.165807
463 1 0.264006 0.661636 0.0820504
510 1 0.261233 0.577968 0.151113
533 1 0.172656 0.660927 0.159095
444 1 0.343833 0.579236 0.0786113
467 1 0.425938 0.66274 0.076134
517 1 0.494989 0.508901 0.154739
514 1 0.420146 0.586491 0.158598
448 1 0.512514 0.592769 0.0725384
452 1 0.665174 0.603322 0.103292
447 1 0.587425 0.51854 0.085586
446 1 0.601187 0.587738 0.0138131
456 1 0.832103 0.587823 0.0886126
451 1 0.74918 0.518567 0.0947991
450 1 0.754757 0.586425 0.00654031
436 1 0.99935 0.587202 0.0779765
526 1 0.916983 0.58647 0.163693
529 1 0.998903 0.66145 0.165196
549 1 0.837333 0.664372 0.16319
479 1 0.918422 0.666164 0.0753536
454 1 0.903249 0.57912 0.00531936
457 1 0.987989 0.659874 0.00195007
460 1 0.00500002 0.742749 0.0958029
464 1 0.164984 0.734753 0.0827985
483 1 0.0907774 0.823424 0.0649037
487 1 0.257135 0.829041 0.0792618
468 1 0.339838 0.738982 0.0767206
491 1 0.420194 0.822548 0.0857911
471 1 0.58615 0.68128 0.102429
472 1 0.502472 0.744585 0.0801914
476 1 0.664058 0.763147 0.0898122
495 1 0.582065 0.825101 0.0771718
475 1 0.754419 0.674634 0.087283
546 1 0.759515 0.752238 0.166646
499 1 0.760139 0.830688 0.0847909
497 1 0.676789 0.830705 0.00410069
474 1 0.756659 0.758349 0.00261482
477 1 0.831992 0.676531 0.00692407
473 1 0.669779 0.671218 0.0153742
480 1 0.836923 0.757524 0.0861305
503 1 0.914469 0.830967 0.0872316
550 1 0.912581 0.754345 0.159568
481 1 0.988939 0.817519 0.0163195
553 1 0.0185298 0.835729 0.147938
484 1 0.0049559 0.920826 0.0804461
3 1 0.0938612 0.996813 0.0781973
554 1 0.0969621 0.93039 0.159522
1 1 0.00711855 0.992963 0.00224453
482 1 0.0890109 0.910447 0.00387088
81 1 0.332569 0.996568 0.159108
557 1 0.17764 0.834461 0.143531
488 1 0.172357 0.924584 0.0730509
492 1 0.327603 0.913841 0.0764111
489 1 0.338252 0.835222 0.00709902
11 1 0.413868 0.989127 0.0778773
562 1 0.410443 0.903751 0.159343
490 1 0.421778 0.912711 0.0104145
85 1 0.493727 0.98229 0.158622
496 1 0.507039 0.900229 0.0880685
500 1 0.656846 0.90313 0.0870578
15 1 0.575706 0.98716 0.0736822
493 1 0.501938 0.836186 0.000548977
570 1 0.75601 0.92532 0.162064
504 1 0.827982 0.918588 0.0843844
19 1 0.756784 0.993333 0.0838552
573 1 0.834207 0.838941 0.157442
23 1 0.922627 0.9965 0.0653832
502 1 0.909324 0.902815 0.00526077
507 1 0.0697578 0.501749 0.250615
508 1 0.00648096 0.585475 0.244905
578 1 0.0941576 0.565589 0.332775
512 1 0.162926 0.560855 0.228443
531 1 0.0951027 0.664662 0.249652
601 1 0.00573693 0.644357 0.331736
585 1 0.327163 0.502223 0.33112
516 1 0.326036 0.58237 0.246403
605 1 0.175812 0.658815 0.325291
537 1 0.333127 0.664421 0.173603
535 1 0.25136 0.647081 0.243483
520 1 0.499197 0.58369 0.240886
539 1 0.416018 0.658929 0.254651
515 1 0.406997 0.511087 0.248778
541 1 0.506923 0.664805 0.181556
521 1 0.657958 0.517179 0.167723
518 1 0.580563 0.591803 0.174362
543 1 0.586093 0.66625 0.256476
519 1 0.584447 0.502057 0.250851
522 1 0.757254 0.58735 0.167752
524 1 0.670791 0.576458 0.250052
547 1 0.756126 0.666431 0.257549
597 1 0.831224 0.500443 0.329659
528 1 0.835855 0.570757 0.245828
551 1 0.923112 0.658645 0.255155
577 1 0.988374 0.502888 0.324887
598 1 0.909962 0.581452 0.327234
530 1 0.102048 0.739506 0.169968
555 1 0.0835213 0.829819 0.264146
536 1 0.166606 0.770747 0.247896
532 1 0.00133076 0.73924 0.237977
534 1 0.246151 0.750387 0.183565
561 1 0.326444 0.826409 0.168805
559 1 0.259934 0.824352 0.254419
633 1 0.330601 0.833287 0.32863
606 1 0.254846 0.743003 0.331399
538 1 0.424222 0.730753 0.171607
565 1 0.494322 0.818449 0.17217
540 1 0.347838 0.746606 0.240256
544 1 0.499092 0.738072 0.266321
563 1 0.415807 0.82555 0.253153
609 1 0.342384 0.674066 0.330155
545 1 0.662775 0.681626 0.180932
617 1 0.663832 0.672766 0.332193
542 1 0.576829 0.75254 0.190577
548 1 0.656147 0.755691 0.269059
567 1 0.581179 0.831372 0.255821
569 1 0.671806 0.828606 0.180607
571 1 0.750523 0.832018 0.259482
618 1 0.766498 0.747594 0.331691
552 1 0.852572 0.740926 0.251232
622 1 0.934022 0.759439 0.327396
645 1 0.854419 0.826742 0.32625
75 1 0.0988376 0.995738 0.238636
625 1 0.00395254 0.845376 0.32727
626 1 0.0860389 0.924073 0.32382
556 1 0.00873729 0.9426 0.231564
153 1 0.328363 0.991599 0.328237
560 1 0.173557 0.919166 0.253018
558 1 0.251665 0.910898 0.172529
564 1 0.330091 0.910818 0.247878
79 1 0.248451 0.997109 0.253082
83 1 0.403589 0.991199 0.239098
566 1 0.586412 0.91492 0.173263
638 1 0.594086 0.9144 0.326747
568 1 0.507155 0.914285 0.246252
572 1 0.661863 0.922228 0.238302
87 1 0.578664 0.998205 0.256188
641 1 0.676311 0.843497 0.332912
575 1 0.948157 0.843063 0.232989
574 1 0.916278 0.923415 0.167413
576 1 0.836729 0.916099 0.253984
95 1 0.91679 0.998398 0.25927
673 1 0.00563744 0.658947 0.491829
603 1 0.091272 0.665144 0.415996
580 1 0.00649319 0.572978 0.418501
677 1 0.16761 0.666066 0.495983
582 1 0.256207 0.57536 0.3435
584 1 0.175764 0.58752 0.416321
607 1 0.262663 0.656915 0.423388
588 1 0.332592 0.568542 0.419154
581 1 0.175788 0.505212 0.349375
661 1 0.488117 0.506309 0.495809
586 1 0.407194 0.584304 0.33505
592 1 0.49914 0.571667 0.41658
611 1 0.407339 0.65123 0.424149
662 1 0.576489 0.585626 0.495683
590 1 0.590245 0.579883 0.338774
596 1 0.65711 0.581102 0.423499
615 1 0.575943 0.657336 0.422191
593 1 0.676146 0.502537 0.333503
594 1 0.756835 0.581637 0.334226
693 1 0.833214 0.656513 0.481601
621 1 0.837944 0.662411 0.33945
670 1 0.919634 0.584614 0.489918
600 1 0.840798 0.573217 0.407599
602 1 0.0746329 0.733506 0.333382
627 1 0.0808432 0.82148 0.412766
608 1 0.168898 0.746285 0.406147
613 1 0.498284 0.666751 0.340265
612 1 0.33792 0.759735 0.418902
610 1 0.422365 0.742762 0.343497
616 1 0.484014 0.742745 0.424363
709 1 0.505552 0.829641 0.494025
614 1 0.572595 0.743337 0.346746
639 1 0.58842 0.833215 0.409487
686 1 0.581738 0.735854 0.483771
713 1 0.672096 0.828681 0.480148
689 1 0.6709 0.669897 0.494493
619 1 0.753194 0.670888 0.404781
620 1 0.667808 0.733472 0.41415
643 1 0.768655 0.819721 0.412531
690 1 0.750525 0.739736 0.49407
717 1 0.833758 0.832098 0.499443
623 1 0.927443 0.667584 0.412065
624 1 0.842783 0.743909 0.420873
647 1 0.913768 0.82348 0.408857
694 1 0.923394 0.744015 0.497896
604 1 0.997929 0.741565 0.417824
145 1 0.00424536 0.999983 0.33833
628 1 0.0105864 0.914438 0.417
632 1 0.162926 0.922346 0.427905
147 1 0.0828675 0.983439 0.416722
629 1 0.167359 0.850001 0.346466
630 1 0.253673 0.922306 0.339878
631 1 0.252895 0.840099 0.418377
151 1 0.257363 0.996732 0.411908
225 1 0.339297 0.99808 0.498928
634 1 0.408173 0.915382 0.336611
155 1 0.418298 0.99636 0.429896
635 1 0.418324 0.842486 0.414961
637 1 0.488215 0.840335 0.339917
636 1 0.33505 0.906207 0.421543
710 1 0.585791 0.908718 0.480365
233 1 0.663013 0.997752 0.490458
640 1 0.504601 0.925281 0.410693
644 1 0.68011 0.922713 0.411616
648 1 0.829414 0.90579 0.42076
642 1 0.762677 0.926407 0.339023
714 1 0.751636 0.89969 0.492636
163 1 0.76487 0.996369 0.416055
718 1 0.89875 0.910778 0.488977
646 1 0.913904 0.92504 0.352231
697 1 0.983805 0.834487 0.491298
652 1 0.00115204 0.584667 0.578879
749 1 0.164838 0.658122 0.66329
722 1 0.0762873 0.578543 0.653739
656 1 0.159387 0.575969 0.583419
650 1 0.0866445 0.587877 0.501979
660 1 0.33002 0.576448 0.600312
679 1 0.247113 0.655257 0.589889
654 1 0.247497 0.580727 0.517396
730 1 0.432785 0.58125 0.666236
683 1 0.412831 0.654926 0.590399
664 1 0.494554 0.588687 0.566478
681 1 0.336971 0.662239 0.504599
659 1 0.412945 0.501699 0.605059
658 1 0.407116 0.582122 0.507421
734 1 0.571194 0.58912 0.65677
757 1 0.501902 0.665134 0.663714
668 1 0.655309 0.580633 0.581457
737 1 0.659295 0.502172 0.66264
738 1 0.737202 0.596322 0.660868
672 1 0.8309 0.601213 0.579386
741 1 0.822219 0.508787 0.654077
666 1 0.738604 0.581023 0.506918
667 1 0.728396 0.505318 0.582679
742 1 0.899438 0.590207 0.661356
721 1 0.995036 0.508035 0.658257
675 1 0.0833748 0.673865 0.570656
746 1 0.0903209 0.763991 0.659706
674 1 0.0982175 0.753239 0.50256
680 1 0.17862 0.747493 0.588141
705 1 0.31159 0.824738 0.514582
678 1 0.248048 0.729218 0.501863
701 1 0.191881 0.832979 0.503199
684 1 0.338595 0.734512 0.601168
754 1 0.424602 0.746527 0.663348
688 1 0.485806 0.740695 0.580152
685 1 0.480271 0.67339 0.502059
682 1 0.414852 0.764736 0.505331
687 1 0.567247 0.667052 0.575119
692 1 0.658419 0.739479 0.577334
781 1 0.50191 0.828214 0.659355
761 1 0.654425 0.67349 0.656018
785 1 0.663267 0.829159 0.660845
765 1 0.822945 0.681904 0.659126
691 1 0.746248 0.670761 0.57469
715 1 0.755766 0.822673 0.57371
762 1 0.747936 0.760511 0.660241
695 1 0.918288 0.667685 0.583364
745 1 0.999393 0.672127 0.658184
676 1 0.997326 0.747565 0.573692
696 1 0.836037 0.735934 0.563176
769 1 0.998791 0.821536 0.662917
766 1 0.917878 0.749144 0.663434
699 1 0.0792204 0.840584 0.583707
700 1 0.000110195 0.911326 0.599882
698 1 0.0814942 0.903557 0.504968
219 1 0.0848922 0.983575 0.579895
703 1 0.260046 0.847738 0.60208
702 1 0.256064 0.919903 0.500056
704 1 0.170549 0.913877 0.598329
221 1 0.174216 0.983757 0.511927
223 1 0.252977 0.995528 0.591984
707 1 0.408897 0.842497 0.58788
708 1 0.339689 0.924008 0.585218
706 1 0.426736 0.918418 0.504455
711 1 0.587561 0.835876 0.581528
712 1 0.507886 0.90978 0.578002
782 1 0.5917 0.914865 0.66293
237 1 0.821519 0.995576 0.506512
716 1 0.66834 0.906124 0.565501
720 1 0.829433 0.909668 0.586316
786 1 0.743967 0.911575 0.656397
719 1 0.921098 0.833901 0.580079
789 1 0.848992 0.834215 0.661673
217 1 0.974987 0.981113 0.507232
239 1 0.903828 0.994911 0.604266
794 1 0.0757474 0.570739 0.817346
747 1 0.0767802 0.647483 0.743908
723 1 0.0795566 0.506463 0.740849
821 1 0.154992 0.652988 0.826365
793 1 0.00548858 0.504045 0.829491
726 1 0.243467 0.577392 0.672476
728 1 0.173895 0.570224 0.760276
732 1 0.328206 0.577934 0.767241
727 1 0.245785 0.503856 0.751962
753 1 0.333976 0.64638 0.683807
802 1 0.414806 0.58223 0.827028
729 1 0.33689 0.50635 0.682551
731 1 0.424918 0.508267 0.755233
736 1 0.50921 0.571229 0.751265
759 1 0.589737 0.661409 0.762741
740 1 0.662139 0.583947 0.741339
806 1 0.593555 0.569203 0.828097
837 1 0.819146 0.664878 0.825525
744 1 0.826371 0.587029 0.739379
810 1 0.744785 0.580895 0.805698
724 1 0.981717 0.59161 0.742714
767 1 0.903976 0.66519 0.737417
743 1 0.917626 0.51175 0.754198
817 1 0.995714 0.645724 0.825742
818 1 0.0714477 0.738464 0.823399
771 1 0.0834113 0.815412 0.7513
751 1 0.253921 0.666838 0.752096
752 1 0.173132 0.745305 0.736054
750 1 0.25444 0.746464 0.672601
775 1 0.253349 0.827011 0.759561
777 1 0.34952 0.823901 0.679914
755 1 0.43871 0.666872 0.751522
825 1 0.352146 0.66911 0.826356
756 1 0.333525 0.733026 0.745794
779 1 0.428739 0.825245 0.749771
849 1 0.337727 0.817388 0.822905
826 1 0.431635 0.745182 0.832688
758 1 0.584239 0.750404 0.666734
760 1 0.517806 0.743986 0.750958
764 1 0.657927 0.742532 0.742419
783 1 0.591544 0.830555 0.754022
763 1 0.741197 0.678019 0.732748
857 1 0.688101 0.8239 0.832521
834 1 0.748249 0.736986 0.8293
748 1 0.98962 0.73275 0.749869
768 1 0.834684 0.75755 0.755656
838 1 0.918339 0.724971 0.830553
791 1 0.91502 0.819372 0.767194
361 1 0.0105065 0.989507 0.821489
291 1 0.0763137 0.996502 0.742669
770 1 0.0794057 0.912978 0.680459
772 1 0.00487616 0.903208 0.75262
289 1 0.000612803 0.998873 0.669748
773 1 0.170668 0.83914 0.680952
774 1 0.270747 0.923979 0.677125
365 1 0.173208 0.996044 0.824235
776 1 0.174757 0.917401 0.750025
846 1 0.261447 0.905961 0.82692
295 1 0.259789 0.987634 0.755035
299 1 0.42671 0.981883 0.753698
778 1 0.425654 0.916 0.670714
780 1 0.3526 0.909779 0.744678
850 1 0.421074 0.904921 0.828421
373 1 0.500665 0.983246 0.83135
854 1 0.592682 0.919325 0.820125
853 1 0.513085 0.841512 0.826098
784 1 0.518838 0.909196 0.7405
301 1 0.508822 0.989024 0.671463
377 1 0.670736 0.997534 0.82037
309 1 0.815485 0.995109 0.669315
787 1 0.758052 0.838616 0.739985
788 1 0.669957 0.8977 0.746301
307 1 0.746698 0.993737 0.749958
858 1 0.758588 0.915983 0.820873
790 1 0.918813 0.910041 0.684963
792 1 0.83711 0.920477 0.750374
862 1 0.922038 0.900254 0.829427
311 1 0.919557 0.996592 0.747234
797 1 0.162429 0.505643 0.856077
819 1 0.0751295 0.652002 0.898903
434 1 0.0918204 0.57723 0.998324
798 1 0.25716 0.58356 0.841633
441 1 0.329981 0.504014 0.988454
800 1 0.175683 0.599111 0.918676
438 1 0.262028 0.591058 0.996307
801 1 0.331503 0.503369 0.841319
442 1 0.419146 0.579479 0.997243
803 1 0.429262 0.50274 0.912168
804 1 0.342183 0.587873 0.912967
808 1 0.504417 0.582131 0.910964
831 1 0.582464 0.656882 0.919868
807 1 0.590392 0.508764 0.911555
449 1 0.680918 0.507298 0.995947
833 1 0.669039 0.66589 0.838276
813 1 0.82573 0.508469 0.83714
812 1 0.677393 0.582677 0.922649
816 1 0.822028 0.587569 0.913909
835 1 0.749618 0.660815 0.924484
796 1 0.986982 0.583338 0.923137
839 1 0.905683 0.659292 0.920654
814 1 0.903787 0.580252 0.834235
815 1 0.904535 0.504552 0.920648
461 1 0.156005 0.669457 0.99842
458 1 0.0799471 0.749037 0.988536
843 1 0.0838951 0.819073 0.902501
824 1 0.164254 0.737434 0.911565
822 1 0.244711 0.744784 0.835564
823 1 0.252644 0.675454 0.923282
847 1 0.265995 0.831803 0.919534
462 1 0.248493 0.747543 0.991467
845 1 0.167308 0.820088 0.837023
466 1 0.428148 0.761069 0.992003
465 1 0.338952 0.682621 0.987373
827 1 0.420983 0.674751 0.907339
828 1 0.349933 0.751725 0.907893
830 1 0.586132 0.752131 0.846106
829 1 0.510234 0.667374 0.834956
832 1 0.506211 0.756808 0.915645
469 1 0.50717 0.674584 0.993792
470 1 0.585623 0.742384 0.994553
861 1 0.828264 0.820577 0.835123
836 1 0.676418 0.742598 0.932447
859 1 0.754232 0.831476 0.912962
840 1 0.819226 0.736072 0.909267
841 1 0.997817 0.825724 0.84048
478 1 0.907732 0.743063 0.993484
863 1 0.900174 0.812029 0.910067
820 1 0.999652 0.74341 0.918513
501 1 0.836662 0.827738 0.996376
363 1 0.0863395 0.981299 0.905923
485 1 0.161987 0.834432 0.982594
842 1 0.0968534 0.902147 0.833399
5 1 0.165158 0.999354 0.993131
369 1 0.329952 0.991145 0.836991
367 1 0.261458 0.987272 0.918434
486 1 0.253722 0.905802 0.990466
848 1 0.182436 0.907604 0.907466
852 1 0.328383 0.912947 0.915189
371 1 0.409869 0.994067 0.9003
851 1 0.429405 0.836998 0.910347
856 1 0.517507 0.91143 0.912502
860 1 0.664954 0.906913 0.897004
494 1 0.597896 0.902867 0.99227
375 1 0.599221 0.989137 0.913467
855 1 0.596289 0.834866 0.914848
13 1 0.510048 0.996041 0.982239
379 1 0.741103 0.993319 0.913497
21 1 0.833115 0.995504 0.981694
498 1 0.749245 0.918772 0.991811
844 1 0.996962 0.918074 0.907062
381 1 0.844082 0.987062 0.836272
864 1 0.839031 0.913211 0.917248
383 1 0.927801 0.995156 0.921046
