ITEM: TIMESTEP
9500
ITEM: NUMBER OF ATOMS
864
ITEM: BOX BOUNDS pp pp pp
0.0000000000000000e+00 3.1559999999999999e+01
0.0000000000000000e+00 3.1559999999999999e+01
0.0000000000000000e+00 3.1559999999999999e+01
ITEM: ATOMS id type xs ys zs
8 1 0.14401 0.0711245 0.0742002
2 1 0.0697988 0.0720478 0.994942
3 1 0.0618704 1.00018 0.0756774
146 1 0.0688448 0.07697 0.18558
173 1 0.158579 0.160082 0.165419
29 1 0.158674 0.16595 0.997146
6 1 0.242071 0.084178 -0.00520607
150 1 0.25198 0.0919199 0.157702
7 1 0.231987 0.00514045 0.0893436
12 1 0.323485 0.0822584 0.0785156
157 1 0.519691 0.976158 0.172254
16 1 0.502853 0.0652955 0.0853693
14 1 0.581314 0.0899055 1.00168
39 1 0.586785 0.162024 0.080703
20 1 0.667995 0.072695 0.0835309
24 1 0.849926 0.0810944 0.0887038
189 1 0.838364 0.16611 0.181425
18 1 0.760666 0.0856772 0.984044
45 1 0.836737 0.168235 0.9959
4 1 -0.0216283 0.0915426 0.0907319
145 1 0.992319 1.00972 0.153958
47 1 0.909919 0.177739 0.0828674
166 1 0.911285 0.0820841 0.179146
27 1 0.0764872 0.152409 0.088708
26 1 0.0812696 0.237189 1.00139
28 1 0.978309 0.257009 0.0742085
170 1 0.0748231 0.249232 0.176274
31 1 0.232628 0.171292 0.0767425
32 1 0.163964 0.246499 0.076691
30 1 0.238028 0.244602 0.98865
36 1 0.323591 0.238294 0.0769016
35 1 0.416282 0.146977 0.0884049
40 1 0.509909 0.243557 0.0815491
59 1 0.433359 0.317155 0.0899416
205 1 0.507205 0.338824 0.157446
181 1 0.491339 0.156839 0.164812
182 1 0.587566 0.252144 0.164301
44 1 0.68605 0.231665 0.0768734
38 1 0.596421 0.248273 0.00845111
43 1 0.760447 0.151825 0.0869133
48 1 0.824654 0.25549 0.0783339
67 1 0.747422 0.330657 0.0903644
65 1 0.671809 0.325268 0.0114889
71 1 0.900929 0.340371 0.0799443
193 1 0.986791 0.336775 0.174465
169 1 0.977412 0.179403 0.157215
25 1 1.00344 0.161309 0.995441
46 1 0.909225 0.259727 1.00284
51 1 0.0822755 0.338673 0.080639
75 1 0.0692966 0.485384 0.0841381
197 1 0.171351 0.323699 0.159065
73 1 1.01557 0.48479 0.993257
55 1 0.24878 0.32391 0.0692418
56 1 0.167316 0.427184 0.0834977
198 1 0.254806 0.400885 0.156796
221 1 0.170499 0.507368 0.167028
53 1 0.161109 0.33335 0.00362154
54 1 0.249189 0.420756 1.01269
60 1 0.331832 0.411291 0.0818365
64 1 0.496973 0.426949 0.0920039
83 1 0.414742 0.501739 0.102678
63 1 0.591371 0.33013 0.0858077
209 1 0.661813 0.340349 0.160034
68 1 0.674094 0.4221 0.0919018
229 1 0.507358 0.511803 0.18042
87 1 0.589538 0.492535 0.100916
72 1 0.818299 0.40992 0.0847886
91 1 0.751545 0.509591 0.0899967
89 1 0.657259 0.504123 1.00562
52 1 0.999866 0.409084 0.0796458
95 1 0.918419 0.490265 0.0884367
237 1 0.831002 0.490288 0.163164
49 1 -0.00423481 0.345008 0.994182
70 1 0.905379 0.409538 0.986169
218 1 0.073195 0.575528 0.178356
74 1 0.0976134 0.569595 0.0100647
79 1 0.248628 0.504065 0.0894139
80 1 0.158943 0.581728 0.0987211
103 1 0.24224 0.661446 0.0812939
249 1 0.340083 0.661561 0.167312
78 1 0.239992 0.571285 0.00681504
84 1 0.336068 0.568877 0.0686295
88 1 0.506691 0.580947 0.094216
226 1 0.42246 0.598346 0.166743
92 1 0.663489 0.574895 0.0824254
230 1 0.590709 0.575879 0.171993
113 1 0.668118 0.671835 -0.00394007
111 1 0.585289 0.662745 0.0849319
115 1 0.738216 0.657382 0.0840927
96 1 0.828579 0.573989 0.0908081
234 1 0.751605 0.585568 0.169791
90 1 0.757396 0.598675 0.990405
76 1 -0.00189505 0.570809 0.0801927
119 1 0.918601 0.663323 0.0721152
93 1 0.83492 0.487336 0.00722379
94 1 0.931197 0.562438 0.999626
99 1 0.0741515 0.656703 0.0909248
100 1 0.996136 0.743443 0.0849713
121 1 0.00334646 0.832471 1.00764
245 1 0.159945 0.6662 0.163992
104 1 0.169242 0.751164 0.0863773
101 1 0.163758 0.67282 0.0107134
246 1 0.23939 0.741112 0.156491
108 1 0.327815 0.75374 0.0806053
107 1 0.422281 0.663796 0.0715801
131 1 0.414174 0.839783 0.0808379
105 1 0.329549 0.656248 0.00396425
106 1 0.415979 0.756162 0.00709553
277 1 0.49296 0.827076 0.158441
112 1 0.493454 0.746458 0.0850664
110 1 0.581063 0.749231 0.00615771
135 1 0.586127 0.821627 0.0813453
116 1 0.668451 0.740735 0.0758669
281 1 0.669357 0.807969 0.166368
133 1 0.497114 0.827105 0.0100088
120 1 0.843924 0.733713 0.074438
139 1 0.758103 0.825523 0.0824587
258 1 0.747449 0.729555 0.160592
261 1 0.827412 0.660897 0.171123
118 1 0.917937 0.740759 0.991822
262 1 0.912504 0.736137 0.16567
97 1 0.00478893 0.662572 1.00606
123 1 0.073911 0.825849 0.0829858
266 1 0.0721428 0.913435 0.152709
128 1 0.164158 0.926062 0.0785787
269 1 0.15614 0.847798 0.156119
265 1 0.986186 0.823458 0.168984
149 1 0.15383 0.00697895 0.163869
122 1 0.0649253 0.9166 1.00427
127 1 0.241791 0.839525 0.0878332
126 1 0.246279 0.927096 1.00303
11 1 0.42305 0.995632 0.0739135
132 1 0.328594 0.920757 0.0792769
136 1 0.514194 0.92784 0.0745601
15 1 0.601432 -0.00615604 0.0879324
134 1 0.599167 0.915584 0.999111
19 1 0.751897 0.0163745 0.0793506
140 1 0.678728 0.920054 0.0756994
161 1 0.687893 0.992171 0.169712
282 1 0.75976 0.913519 0.165362
23 1 0.910768 0.000481297 0.0817433
144 1 0.828705 0.92025 0.0718029
143 1 0.915231 0.828587 0.089245
124 1 0.990507 0.914183 0.0902089
142 1 0.931885 0.914566 -0.00567013
152 1 0.159811 0.0788501 0.24418
171 1 0.0658118 0.179536 0.2523
290 1 0.0870508 0.0857101 0.34054
313 1 1.00124 0.180802 0.349165
317 1 0.158142 0.167704 0.319543
175 1 0.243587 0.16071 0.251084
151 1 0.250342 0.00480392 0.235673
154 1 0.43093 0.0474479 0.173912
156 1 0.332554 0.0846376 0.256367
179 1 0.40773 0.163852 0.24482
155 1 0.422385 0.983954 0.259175
177 1 0.336509 0.15921 0.161076
160 1 0.484725 0.0818349 0.255727
158 1 0.577775 0.0816859 0.17546
164 1 0.673264 0.0803823 0.276431
162 1 0.751673 0.0800126 0.177864
187 1 0.745864 0.155302 0.267856
168 1 0.842703 0.0939483 0.258419
165 1 0.825391 0.00660886 0.16548
163 1 0.747631 0.98636 0.25015
306 1 0.764704 0.0682822 0.333085
148 1 1.00154 0.0857846 0.267733
310 1 0.908968 0.0772736 0.353032
176 1 0.159617 0.25125 0.244188
172 1 0.998068 0.258017 0.254686
314 1 0.0813022 0.245225 0.339829
174 1 0.246372 0.234979 0.158925
180 1 0.325975 0.234456 0.242826
321 1 0.337772 0.162237 0.340834
318 1 0.263054 0.252404 0.328892
345 1 0.347809 0.323516 0.322657
201 1 0.335345 0.320371 0.157898
178 1 0.423879 0.227098 0.157803
184 1 0.510627 0.231534 0.246706
203 1 0.419601 0.310406 0.221264
322 1 0.412645 0.243911 0.31434
183 1 0.597396 0.158078 0.249364
326 1 0.592241 0.24739 0.329807
188 1 0.672008 0.247592 0.248004
325 1 0.503635 0.171103 0.336449
185 1 0.661288 0.165813 0.159247
353 1 0.66627 0.359421 0.352035
186 1 0.752559 0.242486 0.170536
192 1 0.818354 0.251997 0.266989
330 1 0.752226 0.259246 0.342695
190 1 0.900882 0.26863 0.152985
191 1 0.933651 0.164708 0.25881
213 1 0.816211 0.334395 0.186917
215 1 0.901286 0.31756 0.258528
333 1 0.8344 0.164164 0.3371
357 1 0.833376 0.34367 0.337078
194 1 0.0725118 0.405228 0.164511
195 1 0.089571 0.35111 0.24549
200 1 0.183936 0.408537 0.241551
337 1 0.00113601 0.332821 0.333369
199 1 0.2613 0.325353 0.244604
369 1 0.344532 0.504889 0.335473
223 1 0.243377 0.495011 0.242726
202 1 0.41801 0.407288 0.162257
204 1 0.334823 0.419281 0.263691
208 1 0.496121 0.419768 0.248913
225 1 0.329316 0.502001 0.171032
227 1 0.416231 0.510118 0.246149
206 1 0.587403 0.412054 0.16386
207 1 0.604747 0.329185 0.264694
231 1 0.578867 0.504901 0.264523
212 1 0.662705 0.426833 0.249135
210 1 0.744745 0.4151 0.176812
211 1 0.726251 0.336791 0.253207
235 1 0.740939 0.51462 0.252464
216 1 0.823135 0.420485 0.252264
214 1 0.91083 0.409132 0.18665
196 1 0.989355 0.409001 0.253088
219 1 0.0873139 0.477217 0.241653
220 1 0.00106078 0.56815 0.254791
241 1 1.00038 0.653148 0.169277
222 1 0.255092 0.583312 0.164352
224 1 0.176449 0.588466 0.23974
247 1 0.256887 0.669581 0.251894
366 1 0.252583 0.583395 0.310629
228 1 0.346289 0.58898 0.241618
251 1 0.423471 0.681574 0.260112
370 1 0.421792 0.577025 0.336336
397 1 0.495494 0.657752 0.33829
232 1 0.51757 0.589556 0.259221
236 1 0.665341 0.58294 0.242419
255 1 0.585642 0.675736 0.248894
374 1 0.595076 0.587193 0.339501
233 1 0.675422 0.506204 0.170013
257 1 0.663602 0.658107 0.172729
240 1 0.837228 0.576134 0.256085
378 1 0.746787 0.569939 0.361078
238 1 0.913372 0.581811 0.153593
217 1 1.00524 0.486122 0.166923
361 1 0.00997824 0.497056 0.325948
239 1 0.912574 0.495325 0.252757
382 1 0.92211 0.577987 0.338983
242 1 0.0769477 0.749729 0.158217
243 1 0.08021 0.671508 0.238119
244 1 -0.00765079 0.758261 0.257545
248 1 0.164753 0.747121 0.24914
252 1 0.323143 0.754067 0.239059
390 1 0.253757 0.758382 0.322494
393 1 0.346444 0.66737 0.335047
250 1 0.401624 0.752148 0.157595
394 1 0.406495 0.755935 0.341154
253 1 0.498441 0.687275 0.171286
421 1 0.513547 0.832322 0.336436
256 1 0.509082 0.748738 0.256232
254 1 0.582927 0.74389 0.150902
279 1 0.582465 0.825085 0.232883
398 1 0.588391 0.741186 0.337379
260 1 0.67064 0.745387 0.254961
259 1 0.746287 0.657323 0.247751
283 1 0.745469 0.81414 0.246752
425 1 0.664972 0.821557 0.321488
263 1 0.913304 0.644395 0.253979
264 1 0.83158 0.727117 0.239328
285 1 0.827123 0.82556 0.177832
147 1 0.0686881 -0.000771992 0.25275
293 1 0.16811 1.00705 0.326699
267 1 0.0898887 0.823726 0.238458
410 1 0.0862059 0.90845 0.312849
273 1 0.326794 0.846219 0.158545
413 1 0.168619 0.84729 0.31344
271 1 0.245461 0.8339 0.236222
272 1 0.159291 0.932011 0.239291
270 1 0.241696 0.921862 0.158551
414 1 0.256088 0.937296 0.326444
153 1 0.325621 0.000558183 0.154001
275 1 0.417183 0.819302 0.236156
274 1 0.399502 0.927521 0.157255
276 1 0.327131 0.926137 0.240346
417 1 0.330562 0.848594 0.311779
418 1 0.428491 0.906034 0.32923
159 1 0.5974 1.00251 0.248646
278 1 0.597735 0.902301 0.153572
280 1 0.511233 0.897604 0.250744
284 1 0.671277 0.910293 0.235282
288 1 0.834744 0.906854 0.25811
305 1 0.664282 -0.014388 0.332333
309 1 0.832092 0.990119 0.339216
167 1 0.914441 0.996523 0.240206
268 1 -0.0143241 0.912865 0.229199
287 1 0.910517 0.829298 0.247023
286 1 0.886423 0.928472 0.164476
315 1 0.0868934 0.165922 0.410462
291 1 0.0889978 0.997371 0.406478
457 1 0.997311 0.166699 0.488661
292 1 0.0072574 0.0806625 0.41368
297 1 0.33527 0.0112399 0.339636
294 1 0.242292 0.0965775 0.329431
296 1 0.162483 0.0752737 0.414205
295 1 0.25866 0.00669498 0.420614
438 1 0.250181 0.0849007 0.493501
300 1 0.325865 0.0876437 0.41156
298 1 0.429516 0.0927875 0.341101
442 1 0.411355 0.085253 0.476251
323 1 0.417394 0.176958 0.409933
304 1 0.500493 0.0720193 0.420706
465 1 0.338951 0.16531 0.497161
301 1 0.506337 0.996443 0.334321
302 1 0.584832 0.0800089 0.33619
303 1 0.580535 0.00432981 0.425878
446 1 0.580841 0.0895152 0.506426
449 1 0.669468 -0.00131058 0.509623
308 1 0.664583 0.0811571 0.41906
312 1 0.832939 0.0818019 0.416216
477 1 0.831798 0.16381 0.500091
307 1 0.747485 -0.00483083 0.4024
335 1 0.913258 0.164552 0.419133
320 1 0.178072 0.238814 0.406364
316 1 -0.00186108 0.263323 0.420934
339 1 0.080349 0.326228 0.410385
485 1 0.172877 0.314568 0.490118
461 1 0.166255 0.164996 0.488742
319 1 0.253885 0.169442 0.408732
324 1 0.336938 0.24254 0.410308
462 1 0.257406 0.240621 0.51169
347 1 0.422606 0.321631 0.42129
327 1 0.593319 0.176151 0.416169
328 1 0.50578 0.240999 0.425894
351 1 0.587165 0.322201 0.401458
329 1 0.676701 0.16945 0.343421
349 1 0.498928 0.307534 0.32437
331 1 0.761371 0.164512 0.41619
332 1 0.678596 0.260875 0.42505
474 1 0.750576 0.242858 0.506505
497 1 0.696653 0.336349 0.492459
336 1 0.830595 0.261255 0.418788
334 1 0.922864 0.262839 0.345248
359 1 0.921835 0.353728 0.421117
478 1 0.918785 0.250503 0.497598
365 1 0.162951 0.483131 0.316516
481 1 -0.00939924 0.347581 0.515094
341 1 0.17497 0.338838 0.33257
338 1 0.0864224 0.407687 0.327519
344 1 0.179423 0.405885 0.409103
482 1 0.0910192 0.403922 0.491201
342 1 0.26066 0.398367 0.32961
343 1 0.262337 0.315601 0.421984
348 1 0.342521 0.400672 0.409501
486 1 0.260374 0.402334 0.494209
489 1 0.344019 0.315281 0.495832
346 1 0.418656 0.414303 0.331319
373 1 0.508469 0.501615 0.342364
371 1 0.415481 0.514395 0.423015
350 1 0.582162 0.40822 0.325264
352 1 0.510679 0.410859 0.415751
356 1 0.6705 0.422991 0.432164
355 1 0.76377 0.356783 0.406684
354 1 0.749518 0.436736 0.337775
498 1 0.773123 0.414964 0.512328
340 1 0.0127867 0.424566 0.41612
358 1 0.907555 0.429184 0.337234
360 1 0.837799 0.42509 0.412792
362 1 0.0974032 0.576341 0.31187
363 1 0.0949532 0.497667 0.407417
509 1 0.178059 0.489404 0.491272
367 1 0.262168 0.480352 0.390141
368 1 0.181135 0.591303 0.411171
372 1 0.347118 0.597805 0.407797
395 1 0.424131 0.672701 0.41922
377 1 0.667332 0.496886 0.337824
401 1 0.669599 0.663658 0.328485
375 1 0.583768 0.495319 0.416843
376 1 0.509128 0.593363 0.416278
399 1 0.589923 0.669519 0.429599
380 1 0.667419 0.589241 0.431064
521 1 0.656208 0.505787 0.492827
405 1 0.8193 0.658755 0.327241
379 1 0.77264 0.50863 0.446181
403 1 0.75258 0.672877 0.420103
384 1 0.850095 0.601276 0.42085
545 1 0.670038 0.666178 0.502103
522 1 0.752318 0.591228 0.50804
525 1 0.838077 0.521582 0.532314
381 1 0.83248 0.50554 0.335117
364 1 0.0126312 0.567896 0.40794
383 1 0.919346 0.499862 0.422924
526 1 0.920308 0.582851 0.513356
386 1 0.0752907 0.743787 0.326188
385 1 -0.00601676 0.667212 0.334109
387 1 0.094389 0.667135 0.415244
392 1 0.180036 0.750812 0.410762
388 1 -0.00242838 0.757754 0.410535
533 1 0.170582 0.674746 0.497076
389 1 0.174609 0.660962 0.328602
391 1 0.247379 0.672268 0.4158
534 1 0.247768 0.753777 0.499095
396 1 0.333643 0.75224 0.41484
400 1 0.510408 0.746703 0.405308
538 1 0.418004 0.745374 0.502942
419 1 0.418478 0.825608 0.419153
537 1 0.331587 0.687803 0.489361
423 1 0.58339 0.825766 0.425365
542 1 0.576865 0.744208 0.512068
404 1 0.667472 0.755643 0.422997
565 1 0.501467 0.841566 0.514898
402 1 0.74696 0.746912 0.337438
429 1 0.835952 0.82566 0.332249
546 1 0.76146 0.754355 0.505559
407 1 0.948566 0.646686 0.433792
408 1 0.824289 0.743341 0.420689
406 1 0.908421 0.740422 0.347461
550 1 0.900554 0.761134 0.506108
529 1 0.0243236 0.663886 0.513752
409 1 0.0107842 0.841432 0.3238
411 1 0.0866807 0.842848 0.40437
412 1 0.998033 0.910501 0.418651
415 1 0.253269 0.837589 0.406277
416 1 0.172742 0.91456 0.404249
437 1 0.170923 0.00813543 0.495071
299 1 0.417333 0.995595 0.412566
420 1 0.346447 0.910642 0.418423
424 1 0.490026 0.912253 0.431882
422 1 0.581578 0.918842 0.344253
566 1 0.57751 0.918007 0.500316
445 1 0.487317 0.998485 0.504374
427 1 0.761283 0.829548 0.424717
428 1 0.657205 0.912694 0.426751
426 1 0.73724 0.899045 0.341628
432 1 0.838213 0.899042 0.409149
570 1 0.739333 0.911847 0.491417
289 1 0.993722 0.983264 0.325541
430 1 0.90836 0.909836 0.337079
573 1 0.834032 0.846785 0.528261
431 1 0.921296 0.8249 0.422691
311 1 0.905397 0.997668 0.419099
574 1 0.91758 0.907779 0.49541
434 1 0.0786614 0.09122 0.491718
459 1 0.068814 0.171114 0.580612
440 1 0.163547 0.0942705 0.571534
463 1 0.240843 0.160622 0.583016
609 1 0.353105 0.158001 0.672418
444 1 0.328866 0.0938618 0.587124
467 1 0.412155 0.163527 0.579239
613 1 0.486183 0.175437 0.655233
448 1 0.495479 0.0771764 0.589476
452 1 0.654521 0.0911307 0.59394
471 1 0.574742 0.164979 0.589198
473 1 0.672664 0.166172 0.502057
450 1 0.746097 0.0814158 0.505746
475 1 0.748474 0.166095 0.588015
594 1 0.748747 0.0832765 0.673718
617 1 0.663986 0.172374 0.686875
454 1 0.915141 0.0900586 0.499964
453 1 0.819819 0.981387 0.508045
436 1 0.0100419 0.0820792 0.57848
456 1 0.836518 0.0782259 0.582824
479 1 0.906263 0.159352 0.594026
458 1 0.0871027 0.248238 0.486502
460 1 0.984743 0.253872 0.576705
625 1 1.0056 0.334648 0.671789
464 1 0.164221 0.240796 0.581418
468 1 0.337997 0.249103 0.571396
629 1 0.180609 0.31767 0.674129
605 1 0.159096 0.173289 0.666947
466 1 0.421166 0.240535 0.501676
469 1 0.500674 0.164833 0.50178
472 1 0.49282 0.250753 0.585931
470 1 0.575768 0.23554 0.512514
476 1 0.65851 0.245696 0.590268
614 1 0.578736 0.262141 0.671096
618 1 0.741969 0.251408 0.674179
645 1 0.838166 0.330771 0.661748
499 1 0.755676 0.329693 0.595094
641 1 0.656135 0.340838 0.662157
480 1 0.837818 0.265238 0.568467
503 1 0.914737 0.34474 0.592438
483 1 0.0877642 0.325835 0.59241
488 1 0.179899 0.415979 0.59036
507 1 0.105383 0.518981 0.589777
626 1 0.0964821 0.401337 0.663435
487 1 0.257005 0.319097 0.58191
492 1 0.335432 0.395809 0.570756
633 1 0.338592 0.340983 0.662836
630 1 0.256827 0.410715 0.676812
491 1 0.420613 0.332292 0.581631
490 1 0.419574 0.411323 0.484058
513 1 0.332421 0.481748 0.492897
515 1 0.395123 0.496688 0.582721
634 1 0.419383 0.418939 0.655495
661 1 0.496618 0.507061 0.655801
493 1 0.498562 0.326327 0.502304
494 1 0.582844 0.409446 0.494459
495 1 0.579766 0.332353 0.578505
496 1 0.494251 0.421594 0.571091
500 1 0.681212 0.408882 0.572673
523 1 0.73831 0.502656 0.584669
505 1 0.0012673 0.495598 0.48891
501 1 0.856448 0.3609 0.497398
484 1 0.010747 0.447032 0.579443
504 1 0.832712 0.415966 0.594803
502 1 0.923449 0.434313 0.519484
527 1 0.91413 0.505706 0.606216
669 1 0.814956 0.507902 0.663659
506 1 0.0889975 0.570461 0.493128
650 1 0.0865245 0.581544 0.676423
512 1 0.170418 0.59133 0.566416
653 1 0.170797 0.48964 0.672256
510 1 0.261369 0.560524 0.489297
511 1 0.26268 0.491126 0.589399
654 1 0.254349 0.586857 0.651776
657 1 0.341827 0.511622 0.671852
517 1 0.495616 0.5017 0.502231
516 1 0.323191 0.601663 0.576037
514 1 0.399996 0.607364 0.503003
520 1 0.477076 0.575748 0.580005
541 1 0.50483 0.662605 0.502177
518 1 0.571548 0.580212 0.499854
519 1 0.581041 0.492728 0.582836
662 1 0.577193 0.582479 0.664971
524 1 0.660302 0.58342 0.580162
689 1 0.659279 0.668294 0.685172
508 1 0.00630185 0.57243 0.584089
528 1 0.844816 0.60385 0.596946
530 1 0.0918252 0.753091 0.491142
557 1 0.16963 0.84195 0.489902
531 1 0.097661 0.664547 0.589746
674 1 0.098425 0.759251 0.65982
673 1 0.0196451 0.666314 0.666652
561 1 0.315544 0.831119 0.495085
535 1 0.246655 0.678407 0.578662
536 1 0.162146 0.757563 0.576153
678 1 0.24694 0.760545 0.652238
705 1 0.351007 0.82604 0.671746
539 1 0.411165 0.674662 0.587105
540 1 0.329252 0.760071 0.577833
544 1 0.503084 0.748419 0.590047
543 1 0.573288 0.651591 0.576443
567 1 0.593312 0.833392 0.57105
686 1 0.578473 0.745469 0.665902
549 1 0.839174 0.676378 0.513618
547 1 0.749392 0.673259 0.592162
548 1 0.677337 0.754125 0.580876
571 1 0.73749 0.84817 0.598371
552 1 0.830602 0.74237 0.599401
693 1 0.835274 0.675495 0.673812
713 1 0.657298 0.836984 0.676783
690 1 0.749661 0.750349 0.665948
551 1 0.927272 0.669619 0.581409
532 1 0.0115334 0.742626 0.577602
694 1 0.930889 0.739964 0.665526
554 1 0.0864736 0.905167 0.504643
433 1 0.00240836 0.995586 0.496778
555 1 0.0898966 0.83348 0.583418
435 1 0.0783979 1.0003 0.576989
560 1 0.169012 0.92931 0.559543
556 1 0.01377 0.906463 0.580821
697 1 0.0161568 0.835759 0.670076
558 1 0.255048 0.92248 0.487302
441 1 0.33733 1.00411 0.492914
559 1 0.245373 0.846507 0.576582
439 1 0.252493 0.00676536 0.572751
564 1 0.326438 0.922561 0.598317
562 1 0.410444 0.897564 0.514632
443 1 0.40767 1.00513 0.585776
563 1 0.424093 0.838773 0.601514
568 1 0.500095 0.929493 0.594752
447 1 0.576237 -0.00172808 0.577371
572 1 0.657789 0.926012 0.584414
569 1 0.675658 0.826535 0.511062
451 1 0.748739 0.00695277 0.592706
717 1 0.852171 0.828408 0.677611
576 1 0.838709 0.916848 0.615784
553 1 -0.00491469 0.826919 0.511601
455 1 0.929073 -0.00384425 0.580305
575 1 0.924924 0.837572 0.596459
578 1 0.0904967 0.0826432 0.66744
584 1 0.166163 0.0719112 0.733577
580 1 0.00223699 0.0842088 0.736787
603 1 0.0951138 0.158827 0.750098
581 1 0.159685 -0.00164142 0.64755
582 1 0.245066 0.0905596 0.665241
585 1 0.316703 1.00918 0.680833
583 1 0.244274 1.00064 0.765651
749 1 0.159819 0.159077 0.829777
586 1 0.424941 0.083757 0.677741
588 1 0.320651 0.0852589 0.749351
587 1 0.423116 1.00999 0.76311
592 1 0.502752 0.0870249 0.76163
590 1 0.582953 0.101474 0.679359
591 1 0.580529 0.0026299 0.767028
757 1 0.49085 0.16959 0.827048
596 1 0.657893 0.0862542 0.755186
761 1 0.649097 0.179392 0.827135
589 1 0.503069 0.0111328 0.684755
737 1 0.667066 -0.00492334 0.83303
600 1 0.833825 0.080637 0.74243
595 1 0.755157 0.0157587 0.751881
597 1 0.837969 0.00982483 0.665563
598 1 0.920915 0.0880383 0.66461
765 1 0.837157 0.163355 0.827422
623 1 0.915709 0.172799 0.731583
599 1 0.923516 1.00342 0.736216
602 1 0.0753747 0.247423 0.678993
746 1 0.089705 0.248924 0.827119
773 1 0.174685 0.321795 0.831669
607 1 0.250441 0.163153 0.735399
608 1 0.170018 0.245125 0.749398
606 1 0.263944 0.252047 0.664039
631 1 0.249144 0.339341 0.753134
753 1 0.331131 0.169884 0.829384
750 1 0.260179 0.248261 0.831889
611 1 0.417225 0.17918 0.750826
612 1 0.331934 0.282138 0.758356
610 1 0.413372 0.247038 0.669291
754 1 0.423173 0.262056 0.848745
615 1 0.56378 0.180216 0.750246
616 1 0.498509 0.247389 0.745344
619 1 0.746818 0.173468 0.753487
620 1 0.648646 0.260422 0.757352
762 1 0.739702 0.253384 0.828691
643 1 0.738634 0.339049 0.753397
621 1 0.808111 0.171461 0.669769
601 1 -0.00655479 0.168473 0.664291
604 1 0.991273 0.251595 0.754542
624 1 0.834145 0.244419 0.743696
622 1 0.915648 0.249703 0.661629
647 1 0.917912 0.332426 0.757921
649 1 0.00138024 0.500419 0.676362
627 1 0.082818 0.330778 0.75014
628 1 -0.00641975 0.408478 0.749808
770 1 0.0942601 0.401062 0.837581
769 1 -0.00192054 0.327448 0.826405
651 1 0.0913756 0.487437 0.75212
632 1 0.163473 0.40713 0.758169
774 1 0.235922 0.411425 0.836578
636 1 0.340712 0.407372 0.746728
635 1 0.428539 0.333363 0.763655
637 1 0.48251 0.329817 0.673287
659 1 0.411381 0.511294 0.768269
781 1 0.501138 0.340137 0.857932
639 1 0.564235 0.339619 0.748983
638 1 0.5661 0.405441 0.661643
640 1 0.484273 0.42886 0.732262
782 1 0.572202 0.403202 0.82475
644 1 0.659891 0.395919 0.757387
642 1 0.739546 0.413823 0.671417
667 1 0.756258 0.515504 0.748876
785 1 0.661712 0.336724 0.840611
646 1 0.918263 0.409754 0.679857
648 1 0.827971 0.433942 0.74546
813 1 0.850111 0.50006 0.831899
671 1 0.922263 0.518705 0.737208
652 1 0.0172432 0.581624 0.752508
797 1 0.167576 0.505917 0.832237
794 1 0.0930972 0.587274 0.839512
656 1 0.169264 0.589922 0.751818
655 1 0.248413 0.488202 0.748583
660 1 0.314843 0.582159 0.748623
658 1 0.404394 0.597698 0.666985
802 1 0.401484 0.589337 0.84368
664 1 0.506616 0.580065 0.761154
829 1 0.500457 0.664287 0.835481
663 1 0.58148 0.498077 0.757484
806 1 0.592906 0.577186 0.845792
668 1 0.661645 0.581631 0.752785
665 1 0.64804 0.488012 0.666339
666 1 0.744312 0.591283 0.667732
809 1 0.661665 0.499082 0.834008
670 1 0.931561 0.5949 0.663958
672 1 0.839495 0.585433 0.751268
695 1 0.934068 0.672755 0.745983
837 1 0.84735 0.675004 0.812526
814 1 0.923962 0.576437 0.831626
675 1 0.0846272 0.669657 0.757863
699 1 0.0826144 0.834888 0.760587
817 1 0.00604483 0.68417 0.830407
825 1 0.328916 0.668138 0.8371
677 1 0.169442 0.670851 0.673065
701 1 0.166235 0.836466 0.65873
679 1 0.256563 0.679696 0.733863
680 1 0.166622 0.763617 0.745923
703 1 0.252951 0.83512 0.740324
681 1 0.333001 0.680104 0.656867
684 1 0.342286 0.760264 0.75648
683 1 0.415127 0.667694 0.765447
682 1 0.421589 0.750133 0.669394
688 1 0.497007 0.732771 0.751747
853 1 0.512169 0.826253 0.847619
707 1 0.430581 0.837145 0.758808
685 1 0.500017 0.652573 0.663137
687 1 0.582688 0.670297 0.755853
711 1 0.577521 0.827167 0.756716
830 1 0.580714 0.746963 0.836994
857 1 0.666497 0.833064 0.838515
691 1 0.743897 0.665542 0.76086
692 1 0.66375 0.756652 0.760544
833 1 0.675325 0.670074 0.840642
696 1 0.849577 0.758075 0.745669
834 1 0.755951 0.758667 0.830575
676 1 0.00573352 0.749114 0.740934
719 1 0.937288 0.83366 0.753244
579 1 0.0862316 -0.00612961 0.741993
698 1 0.0956709 0.919856 0.663713
704 1 0.164283 0.916118 0.740375
577 1 0.00803064 -0.00167609 0.667267
702 1 0.255598 0.923502 0.671344
708 1 0.338316 0.90771 0.749673
845 1 0.171873 0.838924 0.840101
709 1 0.499495 0.84158 0.67309
706 1 0.421207 0.924122 0.67651
850 1 0.440266 0.905451 0.841989
712 1 0.505752 0.920287 0.750439
710 1 0.579871 0.925263 0.667971
716 1 0.666371 0.905748 0.755382
854 1 0.588098 0.909571 0.841014
593 1 0.662187 0.0100995 0.668651
715 1 0.760283 0.844065 0.741463
861 1 0.841278 0.848898 0.82341
714 1 0.73751 0.92636 0.675186
720 1 0.84201 0.9301 0.742125
858 1 0.749566 0.915648 0.823436
718 1 0.926787 0.917268 0.670779
700 1 0.00604769 0.912511 0.747695
862 1 0.922226 0.927658 0.824425
5 1 0.147556 0.998101 -0.00850792
722 1 0.0786866 0.0818434 0.8276
747 1 0.0805391 0.151593 0.917718
728 1 0.166654 0.0934803 0.920067
726 1 0.241791 0.0946954 0.838195
751 1 0.246716 0.169546 0.912145
727 1 0.23878 0.0048885 0.926237
10 1 0.429941 0.0907357 1.00373
9 1 0.315892 1.00643 0.0138855
732 1 0.345844 0.0909192 0.918617
730 1 0.411498 0.0841046 0.838079
755 1 0.414113 0.173884 0.922366
731 1 0.404616 0.991233 0.923351
37 1 0.506868 0.165289 0.0104019
734 1 0.584539 0.0783698 0.843235
736 1 0.486239 0.0740153 0.916216
740 1 0.665577 0.0896036 0.904877
738 1 0.744227 0.0943412 0.826261
763 1 0.734454 0.180417 0.916387
41 1 0.67535 0.164304 -0.00463407
742 1 0.914408 0.0785409 0.806446
744 1 0.835272 0.0827363 0.9093
22 1 0.910551 0.0798943 0.988228
724 1 0.993857 0.0810438 0.915407
741 1 0.838836 0.00528058 0.82726
745 1 1.0084 0.150139 0.828528
748 1 -0.00624745 0.251549 0.924895
752 1 0.168232 0.247184 0.913769
756 1 0.337628 0.256391 0.914985
33 1 0.328354 0.161968 -0.00598082
34 1 0.425903 0.246087 0.0100481
758 1 0.569893 0.254121 0.840065
759 1 0.578795 0.176463 0.921546
760 1 0.508676 0.254235 0.927084
783 1 0.587544 0.333159 0.924601
764 1 0.664664 0.254973 0.906414
42 1 0.761699 0.255617 0.987798
69 1 0.82583 0.345551 1.00194
766 1 0.911169 0.240573 0.831023
767 1 0.911858 0.174091 0.912965
768 1 0.841242 0.244385 0.908229
789 1 0.832172 0.320255 0.832149
50 1 0.082333 0.416341 0.0018662
771 1 0.0883255 0.329062 0.919242
772 1 0.0122977 0.414274 0.915152
776 1 0.170146 0.409719 0.915302
57 1 0.333229 0.321091 0.00191961
777 1 0.339186 0.353558 0.846433
801 1 0.325611 0.47221 0.837281
775 1 0.256605 0.337276 0.922517
778 1 0.421517 0.421247 0.837287
779 1 0.417722 0.334425 0.936277
58 1 0.419274 0.416214 0.0102549
780 1 0.325997 0.423003 0.924611
85 1 0.492287 0.507503 0.00772049
61 1 0.51159 0.343642 -0.00305123
62 1 0.596489 0.407917 0.014079
784 1 0.501513 0.42447 0.929781
788 1 0.666507 0.426499 0.907485
66 1 0.743747 0.435874 -0.00841285
787 1 0.744149 0.34694 0.912988
786 1 0.738174 0.433067 0.816931
811 1 0.755805 0.511252 0.915177
790 1 0.922779 0.414951 0.834898
792 1 0.817482 0.430493 0.91606
791 1 0.91969 0.326207 0.910239
77 1 0.163139 0.492043 0.999237
795 1 0.09396 0.486901 0.903316
800 1 0.167582 0.585667 0.927345
793 1 0.0128134 0.495705 0.835452
798 1 0.240024 0.579246 0.840944
799 1 0.244357 0.501009 0.914338
804 1 0.332946 0.586327 0.925001
823 1 0.247697 0.663531 0.92268
81 1 0.340226 0.494605 -0.00326379
803 1 0.414924 0.499426 0.911435
82 1 0.418252 0.582068 1.00668
827 1 0.411883 0.663159 0.932251
808 1 0.499034 0.578626 0.924291
109 1 0.502682 0.658011 1.00801
807 1 0.585189 0.494461 0.917946
805 1 0.500966 0.499398 0.839712
86 1 0.580243 0.571966 1.00096
812 1 0.670045 0.579106 0.925912
810 1 0.734226 0.581644 0.831875
835 1 0.758785 0.674769 0.903415
117 1 0.85569 0.652566 0.984075
815 1 0.914886 0.497698 0.920298
796 1 0.0157293 0.569425 0.908792
816 1 0.832388 0.600871 0.886013
98 1 0.0763114 0.739025 0.0129968
819 1 0.0818624 0.663192 0.921717
818 1 0.103465 0.744678 0.831148
102 1 0.245775 0.736555 0.00261558
821 1 0.183592 0.676862 0.839363
824 1 0.161677 0.74053 0.92444
822 1 0.253543 0.758941 0.852357
129 1 0.310648 0.832132 -0.00443561
826 1 0.416228 0.752788 0.846137
828 1 0.327643 0.745082 0.93027
851 1 0.413463 0.838182 0.936326
137 1 0.66859 0.819045 0.0103261
831 1 0.583121 0.666572 0.919962
832 1 0.507882 0.753914 0.922186
836 1 0.671658 0.746351 0.923011
855 1 0.59564 0.829209 0.922742
114 1 0.752898 0.737513 1.00772
840 1 0.836125 0.742711 0.904681
859 1 0.754838 0.848448 0.914638
820 1 0.00488492 0.757488 0.927008
141 1 0.838874 0.824727 -0.00854573
838 1 0.91344 0.765283 0.824669
839 1 0.941628 0.670836 0.910608
841 1 0.00336878 0.826655 0.840373
863 1 0.917113 0.833253 0.916517
842 1 0.0798485 0.92055 0.828158
723 1 0.0803137 -0.00564216 0.908888
725 1 0.156374 0.997797 0.834655
125 1 0.163532 0.83928 0.0170284
843 1 0.0906025 0.824329 0.922292
848 1 0.151674 0.914737 0.922685
846 1 0.242641 0.921112 0.851933
847 1 0.229544 0.829782 0.92494
729 1 0.340661 0.990067 0.826885
849 1 0.332752 0.830268 0.834307
852 1 0.327568 0.911799 0.91759
130 1 0.401432 0.914622 0.000961909
17 1 0.673368 0.0049005 0.990485
733 1 0.510632 0.994667 0.85789
13 1 0.500307 1.00819 0.999295
735 1 0.582067 0.0068619 0.930443
856 1 0.505107 0.908311 0.92736
860 1 0.669938 0.916805 0.903994
138 1 0.758039 0.921029 0.99453
21 1 0.836607 1.01005 0.00495032
739 1 0.751896 1.00685 0.908024
864 1 0.845139 0.92012 0.921794
1 1 0.990228 0.0108313 1.00742
721 1 0.000305907 1.00944 0.8249
743 1 0.92674 0.998243 0.916192
844 1 0.00537775 0.907482 0.905683
