ITEM: TIMESTEP
15250
ITEM: NUMBER OF ATOMS
864
ITEM: BOX BOUNDS pp pp pp
0.0000000000000000e+00 3.1559999999999999e+01
0.0000000000000000e+00 3.1559999999999999e+01
0.0000000000000000e+00 3.1559999999999999e+01
ITEM: ATOMS id type xs ys zs
4 1 0.0234914 0.0991144 0.0750071
138 1 0.280658 0.414176 0.479425
11 1 0.445321 0.00369712 0.0661368
7 1 0.276668 0.00379104 0.0794476
8 1 0.198194 0.0910702 0.0730289
42 1 0.267515 0.0908071 0.150147
45 1 0.368676 0.0066638 0.149938
113 1 0.192379 0.0276851 0.493161
12 1 0.356123 0.0717064 0.0684307
46 1 0.440566 0.0867672 0.148443
57 1 0.347528 0.181414 0.154492
15 1 0.118797 0.159584 0.0810001
16 1 0.0269364 0.23796 0.0801131
50 1 0.126645 0.258015 0.145496
49 1 0.0487069 0.164533 0.15596
61 1 0.0309907 0.331526 0.146644
19 1 0.282778 0.164431 0.0539522
20 1 0.18428 0.250665 0.0424681
53 1 0.194262 0.165733 0.155997
54 1 0.258794 0.251528 0.144313
24 1 0.342168 0.254947 0.0541572
23 1 0.428606 0.17778 0.0782375
58 1 0.415161 0.259517 0.148423
27 1 0.108138 0.334934 0.0705721
62 1 0.101318 0.426405 0.151097
28 1 0.0173159 0.424823 0.070616
32 1 0.187715 0.417299 0.0640855
31 1 0.255487 0.33182 0.0697007
66 1 0.265849 0.423929 0.146162
65 1 0.178264 0.346109 0.167731
69 1 0.351366 0.34434 0.143566
36 1 0.350607 0.43935 0.0719011
35 1 0.44923 0.354973 0.0567322
70 1 0.438479 0.434039 0.143466
38 1 0.101101 0.0716526 0.160943
40 1 0.0261959 0.0786604 0.254625
74 1 0.100278 0.0910784 0.327063
51 1 0.11565 0.167358 0.251891
103 1 0.254088 0.340059 0.402447
44 1 0.186096 0.088496 0.237696
142 1 0.438829 0.414747 0.488063
78 1 0.28407 0.0903381 0.318643
43 1 0.295679 0.012553 0.23959
48 1 0.364576 0.108887 0.230634
82 1 0.442967 0.105562 0.306381
81 1 0.36318 0.0136141 0.323839
47 1 0.453 0.0187234 0.2383
85 1 0.0304666 0.172675 0.327584
86 1 0.11209 0.244391 0.33798
52 1 0.0344323 0.252121 0.250439
55 1 0.277178 0.179192 0.229361
89 1 0.198892 0.180072 0.310173
56 1 0.198164 0.263701 0.234763
90 1 0.271917 0.273534 0.303959
101 1 0.178361 0.33774 0.30687
59 1 0.445802 0.191128 0.242258
60 1 0.350027 0.263593 0.233136
94 1 0.44516 0.261047 0.321558
93 1 0.344112 0.19043 0.316947
63 1 0.0973638 0.345207 0.236318
64 1 0.0283369 0.439257 0.235216
98 1 0.0840452 0.429282 0.32682
97 1 0.0331709 0.333311 0.331232
67 1 0.26246 0.348092 0.232902
68 1 0.182823 0.433224 0.237944
102 1 0.261027 0.425437 0.319613
71 1 0.42892 0.342648 0.220902
105 1 0.350998 0.346249 0.311774
106 1 0.429524 0.418519 0.319974
72 1 0.351315 0.429106 0.222884
75 1 0.099641 0.0150482 0.417047
107 1 0.441654 0.336981 0.409787
87 1 0.110232 0.171544 0.427215
37 1 0.0100396 0.00925971 0.160844
76 1 0.0218415 0.0946347 0.402494
114 1 0.267555 0.104516 0.490617
80 1 0.184971 0.0997759 0.398255
79 1 0.277186 0.00544286 0.418255
126 1 0.279481 0.262828 0.490116
83 1 0.442054 0.0219606 0.395003
117 1 0.376854 0.0187294 0.487069
84 1 0.344586 0.100501 0.416289
77 1 0.187806 0.00821811 0.324529
133 1 0.0192032 0.331355 0.477725
88 1 0.0303728 0.249842 0.408286
108 1 0.352345 0.425816 0.399709
141 1 0.357455 0.334535 0.487851
91 1 0.261885 0.191831 0.397208
92 1 0.185737 0.258886 0.43415
129 1 0.362819 0.183215 0.486433
95 1 0.446482 0.164171 0.399812
96 1 0.345618 0.263979 0.400277
109 1 0.000553177 0.0196866 0.484909
39 1 0.105862 0.00280554 0.248087
118 1 0.444837 0.0963847 0.488391
99 1 0.10584 0.337041 0.416753
110 1 0.0996792 0.0992025 0.496194
104 1 0.193916 0.426017 0.420738
41 1 0.194348 0.00665513 0.162726
130 1 0.459051 0.263037 0.499564
299 1 0.440733 0.497355 0.395258
137 1 0.187163 0.346504 0.496619
146 1 0.0952243 0.0932102 0.660342
216 1 0.346251 0.419292 0.907108
187 1 0.267306 0.00520522 0.916705
6 1 0.286583 0.0835364 0.99094
116 1 0.169253 0.0916604 0.580778
150 1 0.271793 0.0957387 0.653331
217 1 0.0251872 0.488714 0.973119
115 1 0.275453 0.0196569 0.557141
120 1 0.373254 0.0918543 0.57032
154 1 0.449577 0.0970408 0.660679
153 1 0.352167 0.0165977 0.657103
119 1 0.446949 0.0118793 0.575353
123 1 0.0943479 0.173648 0.584022
124 1 0.0271337 0.260186 0.596519
158 1 0.120625 0.276332 0.654838
157 1 0.0113019 0.175044 0.668205
161 1 0.189407 0.177277 0.653372
127 1 0.286084 0.179443 0.556189
128 1 0.200404 0.263509 0.577962
162 1 0.269373 0.270804 0.665033
183 1 0.10661 0.0192553 0.903004
363 1 0.0959645 0.497996 0.74481
131 1 0.463196 0.17513 0.563157
165 1 0.349334 0.188911 0.658378
132 1 0.380384 0.26025 0.564462
166 1 0.449397 0.254842 0.659735
135 1 0.0990349 0.369897 0.576995
170 1 0.116781 0.435234 0.656477
169 1 0.0317565 0.352028 0.660142
136 1 0.0147217 0.430056 0.562182
34 1 0.432954 0.440703 0.997344
139 1 0.28688 0.340796 0.574094
173 1 0.202094 0.359808 0.642485
140 1 0.203019 0.426585 0.564795
174 1 0.28367 0.432976 0.657659
5 1 0.196589 0.0137656 0.990445
177 1 0.358864 0.331311 0.653203
143 1 0.446641 0.348585 0.582683
144 1 0.363767 0.417724 0.572031
178 1 0.446096 0.423095 0.651127
148 1 0.0128435 0.0948715 0.735826
185 1 0.186817 0.00279591 0.815384
182 1 0.102886 0.0913211 0.813195
147 1 0.104405 0.0100404 0.747182
152 1 0.184859 0.0952477 0.734929
186 1 0.267295 0.0850732 0.82224
125 1 0.186399 0.173153 0.504999
181 1 0.0118021 0.00629834 0.808684
156 1 0.35511 0.0888993 0.748332
122 1 0.109058 0.252798 0.50677
193 1 0.0313057 0.174552 0.813344
159 1 0.109476 0.174725 0.732888
194 1 0.103508 0.263721 0.822334
160 1 0.0283487 0.261627 0.729529
197 1 0.180122 0.1794 0.823494
163 1 0.269659 0.177703 0.731128
164 1 0.186993 0.254302 0.75081
198 1 0.280492 0.259823 0.812164
168 1 0.352003 0.26591 0.73755
167 1 0.439178 0.18217 0.734925
201 1 0.346245 0.177453 0.812213
202 1 0.426742 0.263007 0.816202
172 1 0.0222123 0.431561 0.737551
171 1 0.115034 0.343149 0.743838
206 1 0.105437 0.430485 0.828794
205 1 0.0234454 0.343161 0.812723
209 1 0.198186 0.340897 0.828476
175 1 0.266999 0.347226 0.751708
210 1 0.266172 0.429481 0.823318
176 1 0.189746 0.428807 0.743141
214 1 0.4399 0.408613 0.815227
179 1 0.426784 0.342586 0.730462
180 1 0.351655 0.433934 0.748937
213 1 0.35563 0.346094 0.817791
33 1 0.349695 0.341557 0.992023
184 1 0.0262687 0.0851239 0.903645
1 1 0.026595 0.00479282 0.982646
121 1 0.00948121 0.182699 0.50198
26 1 0.105602 0.415331 0.994486
112 1 0.0149296 0.0984055 0.574617
188 1 0.19212 0.0843182 0.897111
17 1 0.187507 0.168517 0.976799
369 1 0.371011 0.492675 0.656544
190 1 0.422711 0.0878436 0.832745
10 1 0.437391 0.0846 0.976484
192 1 0.347453 0.0904906 0.904727
111 1 0.0824764 0.00797438 0.571925
2 1 0.116449 0.0916809 0.993187
13 1 0.0197566 0.17494 0.973284
14 1 0.0974811 0.250172 0.988393
195 1 0.0943985 0.163736 0.89523
196 1 0.0145221 0.266703 0.894544
18 1 0.270189 0.248877 0.981415
200 1 0.183741 0.258449 0.895262
199 1 0.275938 0.17157 0.889321
21 1 0.35709 0.178225 0.974806
203 1 0.436929 0.186892 0.891099
204 1 0.357532 0.258394 0.907619
22 1 0.437504 0.271568 0.985215
25 1 0.0327071 0.332777 0.990742
207 1 0.101255 0.328852 0.900175
208 1 0.0311638 0.408967 0.905684
191 1 0.428052 0.00084219 0.901523
30 1 0.276994 0.44062 0.991789
212 1 0.168665 0.432144 0.904164
211 1 0.277477 0.343315 0.909035
29 1 0.177793 0.333218 0.976823
149 1 0.180905 0.0108095 0.649682
215 1 0.438696 0.348474 0.910212
151 1 0.262139 0.0198667 0.733143
189 1 0.345985 0.00100085 0.823228
155 1 0.430521 0.000777703 0.741003
134 1 0.121748 0.441239 0.500899
335 1 0.435896 0.499465 0.558604
220 1 0.0319381 0.580041 0.0662457
253 1 0.0199999 0.509491 0.148025
346 1 0.455344 0.756362 0.487641
224 1 0.183371 0.597491 0.0715686
258 1 0.256909 0.593913 0.163527
318 1 0.258583 0.932212 0.310385
223 1 0.273905 0.521365 0.0768188
228 1 0.355425 0.609002 0.0795669
261 1 0.346849 0.511079 0.159385
262 1 0.441073 0.614227 0.170231
227 1 0.433909 0.540821 0.0869242
231 1 0.110721 0.668337 0.0635651
232 1 0.0459478 0.750903 0.0652732
266 1 0.118068 0.76116 0.155516
265 1 0.039806 0.680948 0.151656
269 1 0.184547 0.66669 0.171143
236 1 0.181335 0.753866 0.0704534
235 1 0.269326 0.670564 0.0602856
270 1 0.268954 0.75542 0.167193
240 1 0.363481 0.75876 0.0611349
273 1 0.351384 0.691917 0.159049
239 1 0.440869 0.687802 0.0724971
274 1 0.451163 0.74961 0.169678
251 1 0.443093 0.835107 0.083238
285 1 0.346852 0.833072 0.152774
277 1 0.0165853 0.825219 0.155475
244 1 0.0212682 0.924928 0.068292
243 1 0.11365 0.860284 0.0663714
278 1 0.0849739 0.910431 0.164813
247 1 0.26919 0.841885 0.0803489
248 1 0.195834 0.924461 0.0861844
282 1 0.278434 0.930892 0.162709
295 1 0.274271 0.508887 0.408281
252 1 0.367759 0.917228 0.0714372
286 1 0.440415 0.929125 0.143003
350 1 0.101586 0.936159 0.491886
254 1 0.111411 0.589503 0.147566
255 1 0.0938949 0.524807 0.240211
290 1 0.0917598 0.58467 0.348078
256 1 0.0121968 0.600101 0.235887
324 1 0.353768 0.93622 0.404791
260 1 0.192596 0.589442 0.261104
259 1 0.260919 0.504798 0.232422
323 1 0.462963 0.832176 0.408898
291 1 0.0927067 0.503964 0.411589
264 1 0.345363 0.589915 0.228486
298 1 0.446338 0.590014 0.329005
263 1 0.434093 0.507773 0.232731
267 1 0.10531 0.648661 0.251329
268 1 0.0338943 0.754001 0.240212
272 1 0.197891 0.753416 0.262024
306 1 0.278462 0.762396 0.329169
271 1 0.276456 0.67641 0.249417
305 1 0.191034 0.671892 0.336369
275 1 0.441791 0.681923 0.257488
276 1 0.353688 0.763211 0.248746
310 1 0.450335 0.771248 0.321406
309 1 0.358863 0.671614 0.327581
287 1 0.443373 0.841312 0.230061
279 1 0.108381 0.834633 0.245629
280 1 0.0138816 0.929 0.234197
314 1 0.0888804 0.9263 0.315227
313 1 0.0171514 0.851903 0.324308
320 1 0.192221 0.933228 0.402426
281 1 0.177108 0.845918 0.159527
283 1 0.26952 0.836318 0.249262
284 1 0.185631 0.919832 0.233265
317 1 0.192496 0.849953 0.32664
322 1 0.443619 0.923323 0.316797
288 1 0.351138 0.919773 0.249927
321 1 0.370832 0.846751 0.331105
297 1 0.341649 0.506951 0.312842
292 1 0.00105244 0.584667 0.408942
337 1 0.0184189 0.669823 0.486787
319 1 0.277581 0.860398 0.395272
338 1 0.104022 0.766728 0.47947
330 1 0.290652 0.587837 0.491141
294 1 0.271731 0.594444 0.328809
296 1 0.188742 0.594379 0.404215
334 1 0.439375 0.582246 0.481073
300 1 0.361718 0.583348 0.394778
311 1 0.445168 0.675649 0.412595
345 1 0.362297 0.666553 0.492421
73 1 0.0218551 0.993189 0.342305
302 1 0.111679 0.746306 0.327903
304 1 0.0232508 0.766247 0.400348
303 1 0.105888 0.679425 0.416966
333 1 0.358355 0.506639 0.490487
301 1 0.00851084 0.666551 0.330454
342 1 0.288312 0.754501 0.481482
308 1 0.195381 0.751403 0.420181
307 1 0.283012 0.660237 0.420051
3 1 0.118084 0.995761 0.0758718
312 1 0.362925 0.74812 0.401604
293 1 0.178257 0.509261 0.331261
349 1 0.00787115 0.842406 0.492676
357 1 0.359688 0.843451 0.471392
316 1 0.033135 0.908624 0.413685
315 1 0.110271 0.838882 0.40113
354 1 0.273946 0.917521 0.490428
289 1 0.00664535 0.515472 0.318485
329 1 0.200177 0.515881 0.486224
353 1 0.193727 0.851188 0.494322
219 1 0.11643 0.505561 0.0655229
226 1 0.433808 0.611903 0.00419717
358 1 0.439093 0.919373 0.490352
326 1 0.108629 0.589784 0.495501
257 1 0.186512 0.500308 0.160473
362 1 0.120136 0.580692 0.659747
328 1 0.0260658 0.592094 0.577806
250 1 0.45977 0.92421 0.984883
373 1 0.0280666 0.670533 0.657279
332 1 0.219184 0.587085 0.570294
366 1 0.29609 0.576814 0.64488
377 1 0.19378 0.662838 0.645721
327 1 0.110476 0.507701 0.583614
246 1 0.278402 0.924866 0.992976
336 1 0.370044 0.592405 0.559874
331 1 0.283545 0.502326 0.569778
339 1 0.109774 0.671106 0.579887
340 1 0.0221836 0.751565 0.577019
374 1 0.107571 0.759097 0.655493
385 1 0.00646221 0.831554 0.65366
351 1 0.10461 0.843423 0.574198
344 1 0.180762 0.767357 0.56551
343 1 0.292838 0.668494 0.57258
378 1 0.265523 0.756419 0.641756
347 1 0.454226 0.666027 0.575396
348 1 0.377372 0.754304 0.55239
382 1 0.447979 0.753632 0.659868
381 1 0.365634 0.672416 0.647843
386 1 0.100528 0.917413 0.665316
352 1 0.0122502 0.906717 0.572366
355 1 0.270447 0.839768 0.566986
356 1 0.189587 0.941962 0.559472
389 1 0.1882 0.859188 0.652393
390 1 0.279643 0.938825 0.644746
359 1 0.454693 0.846314 0.574893
393 1 0.365802 0.845208 0.637068
360 1 0.351205 0.925804 0.558182
394 1 0.439561 0.935902 0.662367
365 1 0.200734 0.500054 0.651492
364 1 0.0246943 0.588957 0.738961
398 1 0.105877 0.589372 0.815625
242 1 0.115332 0.936631 0.985078
375 1 0.114662 0.679257 0.729567
427 1 0.27217 0.843195 0.914117
367 1 0.276501 0.511145 0.728137
368 1 0.191811 0.591472 0.743963
402 1 0.278898 0.593648 0.809292
431 1 0.431594 0.834513 0.90759
370 1 0.43845 0.590158 0.659039
372 1 0.361766 0.582492 0.746293
406 1 0.449984 0.597849 0.822428
432 1 0.365163 0.914351 0.919181
376 1 0.0211553 0.748798 0.729595
410 1 0.117774 0.76114 0.818884
409 1 0.0284892 0.65774 0.820186
421 1 0.0210446 0.84237 0.839031
379 1 0.278233 0.672593 0.722821
413 1 0.1925 0.671872 0.821445
380 1 0.190609 0.760394 0.727856
383 1 0.442375 0.669496 0.728112
417 1 0.351768 0.677565 0.817911
384 1 0.363887 0.749459 0.723932
418 1 0.433283 0.768924 0.821923
388 1 0.0225339 0.917839 0.743533
387 1 0.0984432 0.823879 0.737248
422 1 0.10677 0.911731 0.802736
425 1 0.190253 0.844327 0.805141
391 1 0.282423 0.85005 0.713746
392 1 0.185677 0.927614 0.736769
426 1 0.26375 0.929403 0.813148
395 1 0.431322 0.848632 0.729789
429 1 0.348637 0.854453 0.820647
396 1 0.348541 0.932052 0.731665
430 1 0.435407 0.92272 0.819393
403 1 0.266929 0.513244 0.894392
401 1 0.188488 0.509957 0.82493
371 1 0.445084 0.516345 0.750265
400 1 0.0328429 0.583595 0.898563
218 1 0.114864 0.593529 0.985337
221 1 0.186643 0.507393 0.982772
404 1 0.198506 0.590658 0.911742
9 1 0.354787 0.998138 0.992597
222 1 0.273373 0.601466 0.982881
225 1 0.360147 0.517499 0.992259
408 1 0.346226 0.5887 0.886775
407 1 0.444892 0.513027 0.906825
397 1 0.0177562 0.506531 0.813997
229 1 0.0461088 0.6803 0.978436
230 1 0.109094 0.762918 0.978818
412 1 0.0377682 0.74903 0.900838
411 1 0.105285 0.666774 0.892423
414 1 0.270315 0.764976 0.813197
233 1 0.192247 0.685965 0.972499
415 1 0.27999 0.671929 0.893986
416 1 0.198619 0.770704 0.904931
249 1 0.368079 0.84336 0.987669
237 1 0.355232 0.668393 0.971548
238 1 0.432772 0.758909 0.988984
419 1 0.441785 0.677472 0.90512
420 1 0.348521 0.752039 0.906598
399 1 0.107553 0.512658 0.906583
241 1 0.0289055 0.862768 0.983749
424 1 0.0406683 0.94263 0.892274
423 1 0.120426 0.84712 0.899904
325 1 0.0222791 0.51505 0.50102
361 1 0.019457 0.512087 0.653536
245 1 0.186408 0.85528 0.989249
428 1 0.188746 0.930681 0.901173
145 1 0.0181264 0.991969 0.65392
234 1 0.265218 0.769309 0.993256
341 1 0.191918 0.663406 0.500971
405 1 0.373552 0.50399 0.826077
436 1 0.509162 0.102276 0.0610771
470 1 0.5988 0.0765507 0.137615
496 1 0.514655 0.426267 0.233741
471 1 0.602904 0.0187738 0.223892
440 1 0.685515 0.0893249 0.0671934
474 1 0.768966 0.0886474 0.152742
477 1 0.849532 0.0124061 0.145783
493 1 0.512627 0.345553 0.151316
444 1 0.85299 0.097263 0.0604609
478 1 0.939428 0.0976891 0.169629
489 1 0.842125 0.185683 0.150665
443 1 0.953469 0.0107648 0.0630572
535 1 0.787082 0.334237 0.404496
447 1 0.58522 0.185043 0.0727158
482 1 0.596217 0.264827 0.155082
448 1 0.510505 0.254825 0.0729318
449 1 0.670379 0.169879 0.00272755
451 1 0.761543 0.170484 0.0731705
485 1 0.678083 0.164097 0.140083
452 1 0.677111 0.263618 0.071274
486 1 0.769328 0.262453 0.161459
456 1 0.84464 0.254063 0.0696009
455 1 0.931879 0.171496 0.0793763
490 1 0.941066 0.247133 0.156434
459 1 0.595273 0.338896 0.0617264
494 1 0.610848 0.425576 0.147189
566 1 0.617527 0.424457 0.491619
460 1 0.531847 0.42183 0.069585
497 1 0.689462 0.336842 0.147908
463 1 0.775207 0.34711 0.0715696
464 1 0.699597 0.429402 0.088533
498 1 0.784395 0.440432 0.153656
467 1 0.948181 0.335696 0.0564064
468 1 0.873687 0.43297 0.0698516
501 1 0.87981 0.328628 0.134878
502 1 0.943848 0.429058 0.153611
473 1 0.689762 0.00239427 0.140998
506 1 0.610868 0.0906607 0.31652
472 1 0.534407 0.109961 0.22249
569 1 0.687729 0.342697 0.475574
509 1 0.691085 0.0260472 0.307212
476 1 0.690403 0.0926885 0.225981
510 1 0.771677 0.0846083 0.310797
521 1 0.687722 0.173228 0.318309
545 1 0.694784 0.0196518 0.496813
480 1 0.858802 0.098446 0.230097
469 1 0.522868 0.00746115 0.147887
513 1 0.867727 0.00581272 0.315451
484 1 0.524941 0.270229 0.244298
517 1 0.527863 0.17366 0.315832
483 1 0.607835 0.171313 0.227923
518 1 0.617237 0.265204 0.30097
487 1 0.777302 0.178996 0.242863
488 1 0.68514 0.26251 0.228066
522 1 0.78784 0.256913 0.332089
499 1 0.791311 0.346083 0.216188
525 1 0.860882 0.15796 0.319146
491 1 0.960869 0.159363 0.251919
492 1 0.849707 0.254353 0.238613
526 1 0.932875 0.248784 0.3073
537 1 0.855308 0.336444 0.314207
529 1 0.521648 0.345664 0.318331
495 1 0.613166 0.349443 0.228615
530 1 0.614473 0.41897 0.316413
100 1 0.992843 0.414872 0.389783
533 1 0.706081 0.35002 0.328062
534 1 0.785747 0.428113 0.30845
500 1 0.702092 0.440228 0.236171
503 1 0.955071 0.351588 0.22474
538 1 0.936384 0.415034 0.308609
504 1 0.864012 0.418429 0.21847
481 1 0.513012 0.19474 0.15907
570 1 0.780793 0.412741 0.487074
541 1 0.536788 0.0116203 0.492219
508 1 0.538241 0.0973718 0.40488
542 1 0.619681 0.0916463 0.489058
507 1 0.599008 0.0108067 0.410123
511 1 0.765042 0.018127 0.41227
546 1 0.780344 0.0820232 0.495862
512 1 0.681145 0.108896 0.399768
550 1 0.930829 0.0969605 0.482194
514 1 0.944438 0.0805724 0.324048
516 1 0.861734 0.0814225 0.406
539 1 0.944049 0.314714 0.388831
553 1 0.530366 0.173115 0.479281
554 1 0.600986 0.260096 0.494576
519 1 0.615204 0.190883 0.394085
520 1 0.522281 0.250966 0.406827
558 1 0.784928 0.25672 0.484545
557 1 0.682646 0.179035 0.478427
523 1 0.783415 0.157858 0.392692
524 1 0.703146 0.265672 0.406475
561 1 0.843287 0.168848 0.491105
574 1 0.9488 0.437188 0.482752
527 1 0.94377 0.185333 0.421032
528 1 0.86063 0.254502 0.413248
531 1 0.612197 0.340034 0.394864
532 1 0.535506 0.42793 0.405965
540 1 0.86348 0.407936 0.402815
565 1 0.531802 0.349652 0.486584
727 1 0.778007 0.492869 0.395533
536 1 0.681996 0.436188 0.404262
439 1 0.78236 0.00866196 0.0628212
505 1 0.524708 0.0203933 0.320495
475 1 0.788298 0.0152048 0.233431
761 1 0.702409 0.496836 0.489931
687 1 0.600634 0.493984 0.240424
465 1 0.846732 0.334784 0.00208678
544 1 0.531469 0.0901052 0.570645
543 1 0.607507 0.0118356 0.575313
577 1 0.525214 0.0221521 0.664384
548 1 0.688866 0.1047 0.574205
547 1 0.762985 0.0276743 0.584993
559 1 0.766533 0.168748 0.571821
617 1 0.693723 0.00430853 0.832421
552 1 0.852931 0.0803303 0.573761
597 1 0.839885 0.175712 0.658143
462 1 0.770709 0.424442 0.987355
556 1 0.526476 0.267246 0.577194
555 1 0.594081 0.182451 0.555494
590 1 0.593826 0.265383 0.668844
589 1 0.530432 0.172983 0.646648
593 1 0.677478 0.185472 0.656333
560 1 0.687944 0.26623 0.55689
594 1 0.759086 0.251422 0.650481
571 1 0.777732 0.342665 0.574254
563 1 0.925478 0.171814 0.573166
564 1 0.859223 0.259895 0.593271
598 1 0.941093 0.265607 0.668615
575 1 0.949969 0.33831 0.583605
567 1 0.606917 0.347969 0.569049
602 1 0.606445 0.413517 0.657989
568 1 0.526179 0.444394 0.581221
601 1 0.520156 0.340825 0.662687
466 1 0.935527 0.432235 0.970411
605 1 0.690258 0.350219 0.651243
572 1 0.701686 0.423385 0.57483
606 1 0.78113 0.42604 0.655137
551 1 0.939328 0.00242868 0.578402
609 1 0.857478 0.349568 0.666414
576 1 0.863665 0.413251 0.576153
610 1 0.942868 0.444975 0.654896
644 1 0.701192 0.42083 0.906941
578 1 0.619687 0.0919157 0.670235
580 1 0.523533 0.0945181 0.747669
614 1 0.602572 0.0871657 0.827562
585 1 0.860447 0.00787939 0.655857
648 1 0.844643 0.410067 0.909989
582 1 0.762981 0.103453 0.679641
562 1 0.933401 0.257447 0.503932
584 1 0.683912 0.0831817 0.76159
618 1 0.775141 0.0890615 0.826285
647 1 0.933278 0.342703 0.919144
586 1 0.926195 0.0882282 0.647702
588 1 0.852467 0.092075 0.738962
622 1 0.93443 0.0961919 0.818821
461 1 0.689948 0.337249 0.988577
833 1 0.691124 0.494863 0.829522
625 1 0.521727 0.168235 0.820617
591 1 0.607166 0.178742 0.752037
592 1 0.51367 0.251266 0.751397
626 1 0.604884 0.271393 0.821899
629 1 0.68779 0.171094 0.83203
596 1 0.693561 0.2586 0.736655
595 1 0.762949 0.176128 0.756631
630 1 0.757893 0.259796 0.823526
641 1 0.69905 0.348848 0.817253
599 1 0.932599 0.179856 0.738137
600 1 0.844812 0.254565 0.737061
634 1 0.942406 0.266228 0.815021
637 1 0.517781 0.344041 0.832081
603 1 0.604116 0.357968 0.75153
638 1 0.606324 0.436437 0.851629
604 1 0.518432 0.427161 0.741274
607 1 0.77104 0.338598 0.722384
608 1 0.692885 0.415783 0.73601
642 1 0.782538 0.420968 0.820511
645 1 0.847172 0.329818 0.805957
611 1 0.939076 0.349614 0.737027
646 1 0.941121 0.408307 0.833616
612 1 0.874272 0.44305 0.744534
434 1 0.585725 0.0977537 0.986278
616 1 0.507448 0.101958 0.904716
433 1 0.518891 0.00889372 0.977322
450 1 0.761599 0.262258 0.996112
438 1 0.767063 0.0961267 0.986653
619 1 0.770975 0.00502617 0.917505
620 1 0.689329 0.0885048 0.900141
643 1 0.767366 0.339366 0.902795
442 1 0.931367 0.114615 0.971688
573 1 0.868783 0.338384 0.500433
633 1 0.872683 0.186712 0.822787
624 1 0.852112 0.104803 0.899914
587 1 0.928721 0.00771526 0.749903
621 1 0.849736 0.0150573 0.827394
445 1 0.509691 0.192096 0.98487
628 1 0.527624 0.260254 0.904262
627 1 0.596012 0.171114 0.90393
446 1 0.597582 0.256038 0.989521
441 1 0.87533 0.00934565 0.974746
631 1 0.763367 0.176542 0.909338
632 1 0.683761 0.25777 0.905606
579 1 0.603858 0.00393926 0.765706
454 1 0.930162 0.2424 0.989425
453 1 0.838201 0.177201 0.985945
635 1 0.94647 0.174956 0.889428
636 1 0.857938 0.253865 0.908702
457 1 0.529105 0.352812 0.97799
458 1 0.611699 0.433515 0.988291
640 1 0.520863 0.432947 0.907284
639 1 0.609901 0.336749 0.911458
581 1 0.692181 0.00589875 0.668742
837 1 0.861607 0.484512 0.837666
583 1 0.781799 0.0101043 0.75099
615 1 0.601756 0.00799489 0.895224
437 1 0.675203 0.00382145 0.993922
686 1 0.6075 0.591048 0.177823
652 1 0.532264 0.601928 0.0798725
685 1 0.529845 0.515862 0.159313
651 1 0.615904 0.50756 0.0601734
656 1 0.703269 0.587516 0.0597042
690 1 0.778172 0.598182 0.148906
689 1 0.689708 0.519042 0.154369
790 1 0.93108 0.922738 0.48017
693 1 0.862594 0.515863 0.138557
660 1 0.875925 0.600587 0.0740527
694 1 0.949208 0.611703 0.148246
659 1 0.947196 0.505299 0.0528751
663 1 0.605256 0.685357 0.0763476
698 1 0.609561 0.768345 0.162332
664 1 0.521882 0.760712 0.0691286
697 1 0.533774 0.67625 0.160313
675 1 0.613183 0.845654 0.0720964
667 1 0.78347 0.681058 0.0667934
701 1 0.702839 0.685789 0.157247
668 1 0.703843 0.769854 0.0951778
702 1 0.781102 0.773389 0.167723
705 1 0.862928 0.681211 0.149907
671 1 0.964522 0.672751 0.062224
672 1 0.860656 0.749897 0.062823
706 1 0.934909 0.75515 0.151694
710 1 0.596125 0.931004 0.155131
709 1 0.529855 0.849009 0.156411
676 1 0.524592 0.905937 0.0657354
679 1 0.773947 0.842695 0.0672635
713 1 0.688615 0.859396 0.153869
680 1 0.704773 0.927566 0.0649595
714 1 0.786762 0.910437 0.15901
717 1 0.861594 0.840316 0.147893
683 1 0.94238 0.842457 0.064896
684 1 0.856429 0.924022 0.0557861
718 1 0.936039 0.93656 0.150477
729 1 0.867093 0.501568 0.307045
722 1 0.617399 0.588964 0.314692
688 1 0.531221 0.596237 0.252673
733 1 0.528054 0.664149 0.331838
666 1 0.762664 0.762675 0.0032956
692 1 0.694896 0.589966 0.235298
726 1 0.769268 0.59486 0.324183
765 1 0.844772 0.507043 0.494391
691 1 0.785312 0.514312 0.229381
696 1 0.850405 0.599114 0.232798
730 1 0.935641 0.595952 0.310557
741 1 0.846738 0.679764 0.324039
699 1 0.632098 0.677941 0.243123
734 1 0.611251 0.753704 0.323619
700 1 0.536007 0.755311 0.244291
703 1 0.768531 0.684985 0.239339
704 1 0.681996 0.765311 0.245085
738 1 0.753392 0.755101 0.319034
737 1 0.689589 0.660603 0.334206
707 1 0.945654 0.688928 0.244997
708 1 0.863702 0.756444 0.239128
742 1 0.935982 0.764055 0.32023
745 1 0.531696 0.841352 0.332726
712 1 0.524284 0.925832 0.23545
711 1 0.612333 0.846233 0.240697
746 1 0.605019 0.935744 0.32565
715 1 0.775111 0.846821 0.247394
749 1 0.691308 0.856158 0.302095
716 1 0.696306 0.935864 0.228908
750 1 0.776698 0.950642 0.322504
753 1 0.864567 0.840399 0.30806
719 1 0.952622 0.839158 0.237042
720 1 0.854331 0.925928 0.235775
754 1 0.936576 0.923863 0.320727
724 1 0.529323 0.586497 0.400518
435 1 0.579912 0.999548 0.0672339
757 1 0.527322 0.513154 0.497994
778 1 0.934186 0.760816 0.486204
728 1 0.688813 0.575721 0.400027
721 1 0.522018 0.504897 0.322982
766 1 0.926946 0.584074 0.479815
732 1 0.841092 0.574336 0.407104
770 1 0.604642 0.752665 0.493134
769 1 0.528852 0.666316 0.486314
735 1 0.612084 0.672761 0.404183
736 1 0.535074 0.743756 0.413182
773 1 0.692083 0.667825 0.486734
786 1 0.765939 0.923582 0.494864
740 1 0.692216 0.751629 0.409601
739 1 0.772887 0.659399 0.403465
695 1 0.931466 0.514318 0.226226
777 1 0.864523 0.679419 0.488326
744 1 0.838221 0.756736 0.40495
743 1 0.928516 0.679921 0.4005
781 1 0.533545 0.845628 0.497087
748 1 0.516053 0.928998 0.403376
747 1 0.607709 0.8447 0.395985
649 1 0.513705 0.506119 0.0181311
789 1 0.852313 0.832737 0.491331
774 1 0.756623 0.778066 0.49813
751 1 0.766185 0.839887 0.386092
752 1 0.684875 0.925579 0.409449
655 1 0.782167 0.511885 0.064379
755 1 0.942608 0.84072 0.406678
756 1 0.851133 0.917496 0.40588
549 1 0.860453 0.997361 0.497946
723 1 0.602928 0.50277 0.421663
758 1 0.609434 0.593895 0.480508
725 1 0.690619 0.504805 0.325165
785 1 0.676892 0.846963 0.494611
662 1 0.612976 0.755204 0.00492748
782 1 0.621208 0.939726 0.496959
479 1 0.933455 0.999168 0.240748
515 1 0.929764 0.999965 0.407435
731 1 0.934752 0.500104 0.394822
794 1 0.597399 0.589249 0.661839
760 1 0.50791 0.573492 0.587158
839 1 0.943587 0.513055 0.902931
764 1 0.672887 0.581113 0.575839
798 1 0.772881 0.596367 0.644095
768 1 0.851034 0.608966 0.577976
801 1 0.848193 0.52388 0.652393
802 1 0.941831 0.600547 0.65434
779 1 0.93108 0.678644 0.573636
767 1 0.928114 0.524301 0.574341
805 1 0.516823 0.66764 0.658123
771 1 0.595422 0.676271 0.566361
806 1 0.604879 0.753467 0.658884
772 1 0.535254 0.77262 0.580214
809 1 0.68277 0.659963 0.660412
775 1 0.753853 0.668545 0.562969
776 1 0.679058 0.747672 0.575388
810 1 0.766885 0.741714 0.641772
780 1 0.842171 0.747873 0.569165
813 1 0.859461 0.674448 0.656392
814 1 0.935764 0.751236 0.648904
817 1 0.519443 0.851002 0.66266
783 1 0.601513 0.863908 0.581205
784 1 0.525655 0.941409 0.585035
818 1 0.600935 0.94733 0.66297
821 1 0.681538 0.862062 0.651665
787 1 0.772199 0.840923 0.58162
788 1 0.696268 0.932055 0.570779
822 1 0.773528 0.932426 0.661372
763 1 0.777981 0.501571 0.573597
791 1 0.926013 0.841634 0.566721
792 1 0.860723 0.923627 0.581655
825 1 0.865743 0.833139 0.652585
830 1 0.616665 0.599629 0.841792
796 1 0.536268 0.60329 0.747067
862 1 0.935117 0.92505 0.819722
807 1 0.619482 0.679494 0.748028
829 1 0.530333 0.522432 0.819042
665 1 0.705687 0.678581 0.997394
793 1 0.515699 0.503739 0.673581
800 1 0.698937 0.582182 0.746813
834 1 0.76966 0.596472 0.837285
677 1 0.685155 0.849341 0.996179
799 1 0.780949 0.505997 0.74986
803 1 0.94018 0.524433 0.73435
678 1 0.780513 0.912363 0.983201
804 1 0.855484 0.599828 0.73142
838 1 0.940481 0.585851 0.820069
815 1 0.939539 0.676079 0.744401
808 1 0.520349 0.75183 0.742862
841 1 0.52875 0.678594 0.826313
842 1 0.599501 0.774093 0.823146
845 1 0.702282 0.686411 0.819391
811 1 0.76452 0.675335 0.736783
812 1 0.689201 0.765627 0.729612
846 1 0.779853 0.765085 0.814159
816 1 0.855883 0.754252 0.726211
849 1 0.862885 0.680162 0.814252
850 1 0.953451 0.759224 0.824969
861 1 0.860005 0.847898 0.819277
827 1 0.94415 0.819845 0.741775
820 1 0.520675 0.929631 0.737626
819 1 0.608643 0.842952 0.733031
853 1 0.510842 0.843607 0.803936
823 1 0.773482 0.831119 0.732677
857 1 0.687786 0.834777 0.813966
824 1 0.681388 0.921911 0.751565
826 1 0.936793 0.921824 0.667761
828 1 0.850696 0.924069 0.749541
832 1 0.521318 0.590957 0.913394
682 1 0.939453 0.923931 0.978351
653 1 0.692356 0.504445 0.981652
831 1 0.603235 0.526078 0.920839
654 1 0.793421 0.587037 0.987105
836 1 0.698626 0.601777 0.916869
835 1 0.78391 0.507446 0.907614
658 1 0.948776 0.591845 0.988461
657 1 0.866395 0.515779 0.985814
840 1 0.856048 0.593905 0.888318
795 1 0.603471 0.511274 0.741753
844 1 0.515951 0.765361 0.907644
843 1 0.608239 0.680779 0.917608
661 1 0.522336 0.670608 0.990441
847 1 0.772999 0.69404 0.909284
848 1 0.683058 0.75946 0.904639
681 1 0.866033 0.839642 0.994757
673 1 0.517604 0.833623 0.986306
669 1 0.858668 0.667925 0.969514
863 1 0.946935 0.845244 0.905055
851 1 0.957666 0.663164 0.916495
852 1 0.876996 0.76599 0.910017
670 1 0.952478 0.743299 0.984839
864 1 0.854526 0.912603 0.906808
856 1 0.530332 0.920278 0.907802
855 1 0.606736 0.83398 0.921715
674 1 0.599181 0.928073 0.987397
854 1 0.591052 0.898486 0.825828
858 1 0.764674 0.918982 0.849072
859 1 0.782035 0.827913 0.906467
860 1 0.67814 0.921608 0.908942
650 1 0.606645 0.603232 0.998946
623 1 0.957193 0.992531 0.902944
797 1 0.701741 0.50362 0.659672
613 1 0.511319 0.997903 0.826893
762 1 0.765085 0.578058 0.501543
759 1 0.61203 0.500836 0.601946
