ITEM: TIMESTEP
3500
ITEM: NUMBER OF ATOMS
864
ITEM: BOX BOUNDS pp pp pp
0.0000000000000000e+00 3.1559999999999999e+01
0.0000000000000000e+00 3.1559999999999999e+01
0.0000000000000000e+00 3.1559999999999999e+01
ITEM: ATOMS id type xs ys zs
27 1 0.085982 0.174659 0.0603968
97 1 0.0177626 0.174882 0.153813
8 1 0.161087 0.0851138 0.0788521
31 1 0.244659 0.157424 0.0533123
78 1 0.247329 0.0733191 0.158132
285 1 0.838008 0.331166 0.497674
12 1 0.332869 0.0735137 0.0575672
105 1 0.341557 0.168445 0.158678
82 1 0.419021 0.0623619 0.166963
16 1 0.502015 0.075543 0.0801359
39 1 0.569569 0.152612 0.0792999
89 1 0.668502 3.59453e-05 0.171266
20 1 0.662697 0.0750402 0.0781472
117 1 0.833309 0.169861 0.160642
90 1 0.752124 0.0806528 0.173575
4 1 0.988252 0.0775841 0.0812471
24 1 0.840018 0.0859068 0.0860507
47 1 0.912588 0.16894 0.0848054
661 1 0.504812 0.498548 0.496697
94 1 0.915639 0.0833114 0.162226
238 1 0.907877 0.0854896 0.485922
521 1 0.679175 0.481236 0.186673
98 1 0.0792753 0.251325 0.167493
121 1 0.0038095 0.333468 0.17291
101 1 0.169726 0.166122 0.14836
32 1 0.157962 0.250638 0.0836466
36 1 0.331661 0.250792 0.0776565
102 1 0.256555 0.238597 0.1386
591 1 0.590615 0.485564 0.407747
35 1 0.417647 0.159069 0.0746175
59 1 0.428638 0.339714 0.0755031
106 1 0.410054 0.256981 0.149766
113 1 0.666138 0.154147 0.154216
40 1 0.484895 0.249214 0.0769566
44 1 0.655115 0.24752 0.0840947
109 1 0.490937 0.164987 0.158513
42 1 0.750659 0.241071 0.00845067
43 1 0.745555 0.144413 0.087975
114 1 0.747077 0.23839 0.151958
48 1 0.83048 0.247063 0.0809099
266 1 0.0748702 0.428589 0.499339
28 1 0.00171571 0.256273 0.0744891
71 1 0.918928 0.33037 0.0897945
145 1 0.00965387 0.0102344 0.314143
125 1 0.180871 0.334835 0.160082
51 1 0.0727448 0.344825 0.0847229
122 1 0.074476 0.42439 0.180555
439 1 0.249058 0.499323 0.0869653
52 1 0.995862 0.422646 0.0883306
55 1 0.249527 0.354971 0.0803433
56 1 0.156338 0.426659 0.0986033
126 1 0.257442 0.429951 0.169308
2 1 0.0831983 0.070041 0.000689497
22 1 0.916131 0.0889214 0.0040171
60 1 0.330402 0.427799 0.067857
130 1 0.423021 0.421504 0.15717
64 1 0.52085 0.429963 0.0928181
226 1 0.417437 0.0901975 0.498125
133 1 0.501167 0.320199 0.186238
63 1 0.582449 0.337475 0.0814215
18 1 0.743253 0.0788327 0.00410053
68 1 0.657653 0.412013 0.0886655
67 1 0.748584 0.335677 0.0873319
230 1 0.591592 0.0720268 0.496716
155 1 0.416185 0.0115017 0.418769
250 1 0.421076 0.264942 0.4943
585 1 0.346131 0.490493 0.334437
229 1 0.505258 0.00454327 0.497467
72 1 0.840555 0.404379 0.0857989
142 1 0.911919 0.424548 0.173761
69 1 0.815801 0.327321 0.00713696
216 1 0.835295 0.410852 0.408029
217 1 0.00533344 0.000716129 0.494679
74 1 0.0702175 0.0759472 0.168009
146 1 0.0965417 0.0726232 0.329808
76 1 0.984646 0.0798664 0.245944
157 1 0.486899 0.00592967 0.341328
173 1 0.179467 0.164006 0.327759
80 1 0.158904 0.0779648 0.23586
150 1 0.259622 0.0869199 0.330054
237 1 0.842602 0.0030373 0.486019
84 1 0.337455 0.0877094 0.249676
88 1 0.497429 0.0764721 0.257843
177 1 0.339085 0.182132 0.321562
107 1 0.420402 0.157555 0.249746
57 1 0.317809 0.327764 0.0100188
154 1 0.421702 0.0910471 0.336358
161 1 0.66014 0.0053571 0.342231
86 1 0.562591 0.0705498 0.171923
158 1 0.569199 0.0753833 0.330533
653 1 0.161677 0.498412 0.495426
92 1 0.660015 0.084185 0.25132
185 1 0.661516 0.171131 0.315128
96 1 0.832944 0.0929657 0.246747
119 1 0.921678 0.171976 0.264756
189 1 0.834623 0.169828 0.333282
166 1 0.912144 0.084287 0.323722
99 1 0.0958748 0.171406 0.226897
123 1 0.0953003 0.338928 0.242584
100 1 0.0111895 0.252056 0.252137
193 1 0.00131012 0.338085 0.335106
103 1 0.250422 0.15909 0.235978
104 1 0.183489 0.254333 0.24088
201 1 0.343675 0.336709 0.329634
127 1 0.275936 0.354464 0.235613
174 1 0.261999 0.275655 0.314703
108 1 0.335445 0.252021 0.226909
129 1 0.340927 0.342445 0.140947
178 1 0.413535 0.266359 0.317215
181 1 0.492328 0.167542 0.3376
110 1 0.573046 0.247243 0.158546
111 1 0.577573 0.157555 0.245204
112 1 0.483459 0.24305 0.248213
116 1 0.657985 0.248238 0.236072
182 1 0.587451 0.249156 0.333367
137 1 0.663149 0.32715 0.16307
115 1 0.746633 0.154001 0.240636
209 1 0.666756 0.33053 0.331337
118 1 0.923976 0.246207 0.165664
120 1 0.843724 0.254282 0.238096
190 1 0.911918 0.258257 0.340308
143 1 0.928687 0.332495 0.249693
194 1 0.0948794 0.415579 0.334923
124 1 0.00642727 0.419728 0.267805
128 1 0.175846 0.427835 0.232271
153 1 0.335035 0.00816769 0.336133
197 1 0.183479 0.340335 0.336103
132 1 0.342486 0.430873 0.243008
131 1 0.41351 0.337041 0.235869
253 1 0.500475 0.172087 0.498041
449 1 0.672673 0.494096 0.0113066
202 1 0.429127 0.410529 0.327624
136 1 0.49385 0.421785 0.241528
205 1 0.498298 0.334087 0.325363
135 1 0.593577 0.333399 0.247652
134 1 0.584642 0.408205 0.176814
140 1 0.670778 0.413388 0.271879
206 1 0.574819 0.414227 0.313676
26 1 0.0843035 0.262922 0.00445955
138 1 0.754484 0.40542 0.181212
139 1 0.754426 0.313453 0.23569
144 1 0.82963 0.411843 0.253972
210 1 0.755698 0.417145 0.343278
25 1 0.996365 0.166421 0.000499935
141 1 0.840307 0.325783 0.162931
171 1 0.0837485 0.157614 0.41385
152 1 0.17304 0.077325 0.413131
169 1 0.0200672 0.150582 0.321254
151 1 0.253395 0.000229383 0.407877
175 1 0.26182 0.165637 0.413542
61 1 0.505627 0.33688 0.0020424
587 1 0.414803 0.496439 0.429874
156 1 0.339079 0.0893743 0.422881
160 1 0.5041 0.0951449 0.417027
595 1 0.75736 0.489559 0.416529
257 1 0.678171 0.160055 0.491657
81 1 0.330967 0.0107348 0.160485
19 1 0.754717 0.00949203 0.0882939
162 1 0.756973 0.0846078 0.323498
164 1 0.673735 0.0868488 0.417678
168 1 0.841458 0.0856006 0.400718
187 1 0.749237 0.180456 0.411307
163 1 0.747453 0.0027546 0.415298
148 1 0.998228 0.0832777 0.410158
191 1 0.919259 0.173122 0.416964
254 1 0.585814 0.236599 0.485242
172 1 0.997725 0.243739 0.425993
195 1 0.0722084 0.340438 0.418244
170 1 0.10091 0.246081 0.329021
214 1 0.913802 0.427854 0.341764
79 1 0.246457 0.00655594 0.255815
30 1 0.241073 0.261896 6.41647e-05
669 1 0.835562 0.478969 0.493989
176 1 0.168744 0.260775 0.418489
180 1 0.334365 0.255663 0.408997
179 1 0.409305 0.174138 0.421608
49 1 0.990504 0.338777 0.00371946
183 1 0.582555 0.156664 0.4163
184 1 0.486172 0.254369 0.409675
186 1 0.745309 0.24543 0.319976
258 1 0.742716 0.252137 0.497072
211 1 0.763447 0.330491 0.422813
188 1 0.66711 0.250384 0.41051
234 1 0.750203 0.0772045 0.497481
215 1 0.930106 0.33771 0.407238
192 1 0.835768 0.253546 0.426631
213 1 0.8347 0.322836 0.32408
196 1 0.00412098 0.433387 0.402977
200 1 0.176617 0.417547 0.403654
261 1 0.825648 0.158772 0.490992
212 1 0.663292 0.405853 0.416998
435 1 0.079935 0.49145 0.0881319
581 1 0.162545 0.49763 0.330404
204 1 0.327222 0.421029 0.415728
198 1 0.262101 0.421721 0.331252
199 1 0.248847 0.331518 0.42386
208 1 0.505978 0.416411 0.411354
203 1 0.4127 0.352156 0.425862
147 1 0.0715019 0.00594776 0.407604
451 1 0.741273 0.496134 0.0921076
15 1 0.581769 0.00197683 0.0962908
233 1 0.673663 0.00216677 0.495863
65 1 0.679747 0.336456 0.00255943
207 1 0.579041 0.324231 0.415407
245 1 0.171146 0.149786 0.49501
525 1 0.823572 0.481369 0.168125
273 1 0.321536 0.322874 0.499582
242 1 0.0871321 0.24092 0.498402
649 1 0.00695965 0.499981 0.499455
21 1 0.837657 0.00328462 0.996354
290 1 0.0863884 0.0831205 0.685092
224 1 0.139471 0.0678539 0.588607
228 1 0.342876 0.0758605 0.59486
247 1 0.241297 0.168173 0.59141
298 1 0.41912 0.0744291 0.66978
251 1 0.421793 0.170269 0.577202
286 1 0.921536 0.412787 0.507699
14 1 0.574876 0.075942 0.99556
232 1 0.488265 0.0924138 0.576352
236 1 0.667663 0.0880678 0.581498
302 1 0.589529 0.102083 0.665378
723 1 0.0758935 0.494 0.755903
262 1 0.918321 0.241408 0.503986
805 1 0.507788 0.494537 0.842835
282 1 0.74219 0.403567 0.500913
306 1 0.754589 0.0734527 0.674434
240 1 0.839977 0.0764556 0.577756
663 1 0.589091 0.495114 0.567897
220 1 0.0127126 0.083006 0.606535
333 1 0.82462 0.169614 0.676301
263 1 0.913302 0.154503 0.577634
313 1 0.99963 0.165957 0.677775
269 1 0.165808 0.33773 0.510093
813 1 0.831792 0.495218 0.831396
243 1 0.078324 0.153267 0.587819
267 1 0.0787935 0.329158 0.592154
248 1 0.165037 0.251922 0.591179
341 1 0.159261 0.328639 0.667105
809 1 0.662978 0.488291 0.830581
271 1 0.253797 0.327522 0.589213
252 1 0.327043 0.254516 0.594138
345 1 0.331482 0.341176 0.663358
321 1 0.351861 0.164765 0.659282
305 1 0.663747 0.00838459 0.660864
322 1 0.419642 0.256594 0.666933
275 1 0.417025 0.337443 0.582089
255 1 0.596948 0.160123 0.56937
256 1 0.501305 0.250875 0.581035
279 1 0.575483 0.327005 0.571597
326 1 0.582685 0.238803 0.66185
737 1 0.670762 0.48566 0.657305
259 1 0.74722 0.161885 0.573805
260 1 0.665857 0.240155 0.585424
329 1 0.678299 0.160919 0.668176
244 1 0.0103957 0.234094 0.580968
264 1 0.829219 0.227917 0.571706
287 1 0.909626 0.327172 0.583834
739 1 0.728834 0.486478 0.75131
428 1 0.662403 0.417234 0.917592
277 1 0.490885 0.340205 0.500617
268 1 0.997171 0.405938 0.58493
270 1 0.239359 0.415084 0.510745
412 1 0.00174664 0.411172 0.925341
671 1 0.912565 0.486942 0.589736
222 1 0.267871 0.0858317 0.511435
272 1 0.163614 0.40655 0.60295
276 1 0.331344 0.422645 0.583609
655 1 0.227216 0.495561 0.582396
346 1 0.414931 0.4166 0.661102
349 1 0.493861 0.340852 0.6695
426 1 0.757903 0.409807 0.828143
280 1 0.499698 0.413943 0.568423
284 1 0.661481 0.396785 0.580721
377 1 0.666814 0.00665403 0.836244
283 1 0.742751 0.311574 0.582732
354 1 0.750761 0.414869 0.678092
288 1 0.818823 0.41489 0.582618
735 1 0.57383 0.487722 0.746642
301 1 0.518473 0.0086391 0.661432
357 1 0.827978 0.327747 0.655554
337 1 0.992138 0.32563 0.666442
358 1 0.919095 0.412729 0.673522
743 1 0.910163 0.498261 0.751051
315 1 0.0871888 0.16582 0.745332
317 1 0.155725 0.166571 0.668279
385 1 0.999856 0.166282 0.843389
294 1 0.23486 0.0759544 0.672674
296 1 0.166037 0.0736487 0.757685
300 1 0.321134 0.0703596 0.738014
304 1 0.49183 0.0769219 0.744903
323 1 0.412694 0.162606 0.751253
370 1 0.424383 0.0816017 0.842543
325 1 0.492101 0.172203 0.663019
374 1 0.597734 0.0808477 0.830214
46 1 0.911136 0.24493 0.999726
308 1 0.669541 0.0834248 0.748827
378 1 0.742056 0.0906254 0.838222
312 1 0.831883 0.0898078 0.762402
310 1 0.908807 0.0825091 0.661209
292 1 0.995215 0.0781526 0.744179
314 1 0.0762187 0.238783 0.664127
386 1 0.0840846 0.250704 0.84715
320 1 0.16211 0.258433 0.734562
319 1 0.252077 0.158206 0.737313
318 1 0.242813 0.257491 0.659127
324 1 0.334426 0.242224 0.750144
394 1 0.408647 0.247178 0.835354
328 1 0.491654 0.245895 0.742578
347 1 0.398376 0.340785 0.756175
397 1 0.496369 0.161954 0.823408
327 1 0.587995 0.162032 0.763357
332 1 0.676522 0.243233 0.754399
401 1 0.667904 0.183636 0.839743
351 1 0.580389 0.340072 0.747808
398 1 0.571644 0.247596 0.820234
330 1 0.744515 0.241206 0.664137
331 1 0.749069 0.164963 0.755372
402 1 0.75643 0.257696 0.844708
336 1 0.818944 0.247694 0.746017
334 1 0.917538 0.248365 0.680431
335 1 0.919069 0.166447 0.765087
316 1 0.0112147 0.245136 0.755905
339 1 0.0781461 0.32116 0.757359
338 1 0.0741339 0.405514 0.660109
344 1 0.175751 0.402572 0.754371
342 1 0.255381 0.421861 0.659771
343 1 0.263412 0.331929 0.749925
414 1 0.262109 0.422274 0.833703
348 1 0.329549 0.427216 0.744722
418 1 0.423359 0.426107 0.839228
352 1 0.491247 0.410128 0.759573
417 1 0.326238 0.335672 0.850302
350 1 0.581638 0.422551 0.648764
422 1 0.58284 0.422096 0.834963
733 1 0.502747 0.490577 0.668838
421 1 0.483009 0.320489 0.827274
425 1 0.675005 0.327156 0.82548
811 1 0.747537 0.483253 0.910764
353 1 0.656155 0.332816 0.663432
62 1 0.585154 0.409155 0.99201
355 1 0.745844 0.339166 0.750478
356 1 0.657505 0.405205 0.738738
360 1 0.835712 0.40824 0.739868
340 1 0.995394 0.412244 0.749075
359 1 0.914362 0.327629 0.742477
409 1 0.998733 0.327279 0.840211
430 1 0.913641 0.412161 0.8247
651 1 0.0872521 0.49841 0.575758
362 1 0.0664325 0.0812947 0.823246
389 1 0.152189 0.161205 0.83166
387 1 0.0768361 0.164935 0.930654
364 1 0.99927 0.0910097 0.927166
424 1 0.499898 0.413161 0.921201
70 1 0.911027 0.416835 0.996367
366 1 0.252174 0.0739454 0.837693
368 1 0.155088 0.088212 0.897226
391 1 0.25787 0.161391 0.904707
432 1 0.841029 0.418615 0.917475
10 1 0.420437 0.078658 0.982964
34 1 0.418568 0.244344 0.994368
393 1 0.341179 0.161432 0.835402
372 1 0.327746 0.066303 0.918409
395 1 0.423373 0.169239 0.910976
376 1 0.506966 0.0856045 0.919674
246 1 0.227401 0.247179 0.507927
399 1 0.576089 0.158784 0.914312
37 1 0.493562 0.156306 0.999311
50 1 0.0726606 0.41763 0.999055
380 1 0.67094 0.0842033 0.925509
384 1 0.832332 0.0830369 0.916955
429 1 0.832892 0.328988 0.830557
278 1 0.576965 0.411484 0.500641
382 1 0.913198 0.0790009 0.838717
721 1 0.0124915 0.491767 0.651456
369 1 0.349284 0.00685214 0.819312
413 1 0.170359 0.332381 0.830982
411 1 0.0810286 0.333578 0.913785
741 1 0.827559 0.494092 0.66977
392 1 0.16084 0.262288 0.916308
390 1 0.231397 0.241353 0.831511
281 1 0.656105 0.315366 0.504203
58 1 0.425273 0.428023 0.994117
396 1 0.331501 0.243535 0.909119
727 1 0.232438 0.492242 0.74898
400 1 0.491242 0.258041 0.910399
423 1 0.582645 0.329274 0.898226
405 1 0.84126 0.177868 0.839223
403 1 0.749173 0.171751 0.920359
404 1 0.677537 0.265156 0.924571
731 1 0.414823 0.494176 0.738168
408 1 0.834048 0.251346 0.916164
406 1 0.919646 0.242155 0.844458
407 1 0.913606 0.15978 0.925913
307 1 0.753944 0.0155965 0.753205
388 1 0.998524 0.249764 0.923891
431 1 0.910262 0.342187 0.921574
45 1 0.826992 0.166388 0.997521
410 1 0.0841984 0.402821 0.830301
33 1 0.337903 0.160169 0.99104
427 1 0.765125 0.345987 0.914125
1 1 0.99369 0.00216676 0.996046
415 1 0.240471 0.344346 0.915321
416 1 0.156773 0.431453 0.911912
54 1 0.249385 0.446923 0.999327
420 1 0.336311 0.415778 0.932194
379 1 0.755732 0.0104128 0.916364
419 1 0.400262 0.326609 0.917073
793 1 0.995216 0.492417 0.848415
218 1 0.0764189 0.0888208 0.503359
375 1 0.573265 0.00479168 0.913452
815 1 0.911377 0.496653 0.912352
221 1 0.176767 0.0090439 0.507813
241 1 0.9933 0.159291 0.505148
274 1 0.40511 0.417051 0.503163
17 1 0.658958 0.0050489 0.999726
667 1 0.741525 0.487355 0.583355
249 1 0.33931 0.173151 0.500408
29 1 0.166761 0.167385 0.976296
6 1 0.226634 0.0731856 0.989098
41 1 0.653228 0.170874 0.991798
303 1 0.589419 0.0171541 0.742457
38 1 0.584765 0.248585 0.999626
725 1 0.147858 0.499598 0.671656
265 1 0.998119 0.327808 0.50167
239 1 0.919883 0.00613021 0.574853
807 1 0.580727 0.498849 0.916658
53 1 0.157066 0.354218 0.999245
665 1 0.675527 0.494498 0.503178
66 1 0.753515 0.424277 0.996178
440 1 0.175136 0.582831 0.0906978
459 1 0.0829328 0.675113 0.0881017
506 1 0.0774894 0.587651 0.161424
463 1 0.243644 0.659918 0.0853636
510 1 0.240393 0.588618 0.183844
533 1 0.161553 0.668164 0.177834
444 1 0.32413 0.579949 0.0813308
467 1 0.418242 0.669171 0.0795972
517 1 0.511579 0.503511 0.173981
514 1 0.41541 0.58717 0.164951
448 1 0.503786 0.58482 0.0834018
452 1 0.66351 0.586623 0.0901837
3 1 0.064496 0.995013 0.0808339
593 1 0.667922 0.502758 0.340897
456 1 0.832447 0.570718 0.0886052
453 1 0.819363 0.502767 0.00296542
5 1 0.167697 0.986088 0.0086998
436 1 0.00204443 0.573925 0.0904868
526 1 0.920064 0.571509 0.165659
529 1 0.992702 0.670757 0.1728
549 1 0.84603 0.651585 0.170848
479 1 0.922399 0.671242 0.0810421
454 1 0.917318 0.577746 0.0105629
478 1 0.905485 0.745119 0.0072677
460 1 0.00903509 0.757302 0.0868935
464 1 0.167793 0.745679 0.0799246
483 1 0.0680148 0.840339 0.0693158
487 1 0.244671 0.839747 0.0851706
468 1 0.316786 0.745023 0.0749208
491 1 0.421115 0.825996 0.0727942
471 1 0.588033 0.666026 0.0646532
472 1 0.503319 0.753201 0.065996
476 1 0.679155 0.750894 0.0741586
495 1 0.594877 0.833653 0.0788672
475 1 0.751863 0.668132 0.0893938
546 1 0.74669 0.764433 0.163026
499 1 0.747021 0.851281 0.0823148
644 1 0.674314 0.907863 0.416114
455 1 0.912244 0.501324 0.0849331
77 1 0.145862 0.986089 0.151248
657 1 0.316417 0.502225 0.486215
480 1 0.825631 0.755423 0.0894244
503 1 0.91306 0.827704 0.0975414
550 1 0.916447 0.748706 0.184814
501 1 0.841458 0.840333 0.00911885
553 1 0.991961 0.824372 0.172749
484 1 0.988679 0.916318 0.0821055
450 1 0.7498 0.594629 0.0109909
554 1 0.0757115 0.9023 0.16771
697 1 0.00639452 0.828639 0.497346
87 1 0.58028 0.988542 0.252134
457 1 0.0098763 0.677231 0.0146539
557 1 0.159632 0.839207 0.165451
488 1 0.163514 0.909235 0.0848805
492 1 0.341708 0.903759 0.0638898
509 1 0.161438 0.510037 0.18061
714 1 0.765359 0.907857 0.483794
562 1 0.418914 0.912032 0.16367
433 1 0.996906 0.502393 0.00341988
515 1 0.424558 0.503055 0.242048
496 1 0.49707 0.910441 0.082577
500 1 0.663213 0.927388 0.0816903
167 1 0.922217 0.99001 0.414781
73 1 0.995592 0.984862 0.174333
570 1 0.743874 0.922266 0.169656
504 1 0.824828 0.91345 0.0894135
85 1 0.499785 0.989991 0.162561
573 1 0.834496 0.827058 0.16705
23 1 0.909278 0.996783 0.0910007
497 1 0.684746 0.828535 0.00554782
642 1 0.740646 0.898564 0.32704
508 1 0.00680818 0.588779 0.244767
578 1 0.0828827 0.598245 0.329118
512 1 0.170306 0.582821 0.256772
531 1 0.0812113 0.669674 0.250064
601 1 0.00920927 0.686506 0.343305
646 1 0.919013 0.924021 0.327842
516 1 0.341589 0.57914 0.251699
605 1 0.163588 0.671869 0.328642
537 1 0.321557 0.661847 0.16594
535 1 0.245255 0.680214 0.257662
520 1 0.503428 0.602146 0.242348
539 1 0.423883 0.672192 0.232981
706 1 0.411191 0.910895 0.496255
541 1 0.500509 0.688249 0.157732
159 1 0.578719 0.990461 0.420159
518 1 0.578357 0.604183 0.164772
543 1 0.59144 0.675857 0.250303
438 1 0.25076 0.570959 0.00205778
522 1 0.75197 0.581508 0.172629
524 1 0.664008 0.590685 0.245965
547 1 0.746808 0.655561 0.258838
701 1 0.168368 0.848872 0.49302
528 1 0.839008 0.589652 0.270001
551 1 0.917402 0.663025 0.26213
678 1 0.25773 0.745627 0.49804
598 1 0.926716 0.579606 0.334872
530 1 0.0800605 0.758338 0.176701
555 1 0.0716606 0.823327 0.259111
536 1 0.162504 0.750484 0.261676
532 1 0.99081 0.750843 0.258472
534 1 0.24862 0.75198 0.168491
561 1 0.321354 0.848989 0.158013
559 1 0.247426 0.818025 0.250976
633 1 0.337178 0.820453 0.325955
606 1 0.240471 0.752446 0.342405
538 1 0.405118 0.750087 0.151455
565 1 0.504389 0.818213 0.16137
540 1 0.345631 0.75278 0.237297
544 1 0.50976 0.758207 0.25019
563 1 0.41214 0.831167 0.232358
609 1 0.337539 0.667101 0.32017
545 1 0.676999 0.675392 0.162681
617 1 0.678122 0.672822 0.338907
542 1 0.603751 0.749195 0.159429
548 1 0.671168 0.759422 0.257858
567 1 0.589887 0.828921 0.238616
569 1 0.667872 0.849429 0.160824
571 1 0.75282 0.831071 0.250045
618 1 0.748462 0.754397 0.333818
552 1 0.822696 0.741 0.250317
622 1 0.91347 0.750479 0.340307
645 1 0.825018 0.83359 0.342285
511 1 0.257249 0.510017 0.259799
625 1 0.993484 0.835322 0.337819
626 1 0.087913 0.919141 0.327258
556 1 0.997858 0.906407 0.24871
493 1 0.517277 0.848576 0.0026583
560 1 0.178395 0.92371 0.232909
558 1 0.254587 0.927747 0.152327
564 1 0.317712 0.929419 0.242077
445 1 0.498988 0.504011 0.0146306
83 1 0.411963 0.997686 0.260999
566 1 0.573566 0.91106 0.1658
638 1 0.584188 0.916415 0.327359
568 1 0.495133 0.895125 0.241092
572 1 0.658681 0.908834 0.251705
650 1 0.0852047 0.57966 0.490101
641 1 0.665233 0.830604 0.333229
575 1 0.919225 0.828681 0.263422
574 1 0.914816 0.905557 0.179437
576 1 0.840836 0.916019 0.251842
95 1 0.903299 0.998323 0.243581
673 1 0.000717292 0.660166 0.494129
603 1 0.0924024 0.661148 0.421075
580 1 0.00171238 0.586623 0.411799
149 1 0.173504 0.993171 0.329991
582 1 0.251829 0.594897 0.333184
584 1 0.16111 0.584506 0.416144
607 1 0.249625 0.674551 0.41977
588 1 0.332308 0.584522 0.407636
442 1 0.421715 0.592787 0.0100336
513 1 0.34414 0.50657 0.164693
586 1 0.417578 0.589145 0.34037
592 1 0.5129 0.589963 0.416559
611 1 0.415402 0.66862 0.433347
654 1 0.243551 0.582314 0.491041
590 1 0.584632 0.583025 0.328831
596 1 0.676751 0.584718 0.416693
615 1 0.595838 0.684956 0.414642
91 1 0.73795 0.991303 0.263921
594 1 0.753055 0.585622 0.336195
648 1 0.844861 0.91576 0.409567
621 1 0.82681 0.67378 0.33923
519 1 0.589805 0.504924 0.247164
600 1 0.835257 0.585591 0.413229
602 1 0.0919338 0.761538 0.342422
627 1 0.0877259 0.849949 0.413471
608 1 0.165954 0.76021 0.425714
613 1 0.498338 0.672668 0.322071
612 1 0.342964 0.747429 0.411419
610 1 0.419074 0.744321 0.313338
616 1 0.493726 0.748896 0.417903
682 1 0.430703 0.768686 0.495955
614 1 0.590819 0.744249 0.33279
639 1 0.586881 0.816478 0.414697
470 1 0.595416 0.757412 0.00383841
698 1 0.0895278 0.928918 0.492635
710 1 0.592791 0.908711 0.496444
619 1 0.753475 0.672888 0.428395
620 1 0.671939 0.746028 0.445915
643 1 0.748566 0.82463 0.4252
447 1 0.595477 0.505789 0.110672
498 1 0.739064 0.932983 0.0014509
623 1 0.915385 0.662068 0.423528
624 1 0.848006 0.753697 0.416509
647 1 0.929094 0.824987 0.425343
583 1 0.241998 0.506773 0.399431
604 1 0.0179546 0.762738 0.42254
461 1 0.16778 0.667317 0.00423709
628 1 0.99733 0.914153 0.432554
632 1 0.182337 0.924795 0.416431
599 1 0.915173 0.501244 0.428847
629 1 0.16041 0.834803 0.326837
630 1 0.256324 0.893752 0.32764
631 1 0.248553 0.82618 0.417227
658 1 0.408149 0.583164 0.497121
717 1 0.845133 0.845214 0.489212
634 1 0.407303 0.906744 0.324107
165 1 0.82698 0.992547 0.335933
635 1 0.410825 0.82939 0.404558
637 1 0.511859 0.833665 0.33048
636 1 0.34232 0.913827 0.41613
482 1 0.0833098 0.920575 0.000220736
702 1 0.252921 0.905734 0.497147
640 1 0.503852 0.912195 0.42875
662 1 0.592022 0.577342 0.499064
434 1 0.080381 0.573809 0.00429427
11 1 0.408641 0.993354 0.0772953
443 1 0.411784 0.504093 0.07385
523 1 0.763466 0.508019 0.257302
666 1 0.762084 0.576508 0.485392
75 1 0.0945871 0.992472 0.250234
597 1 0.836244 0.508027 0.345151
577 1 0.00862185 0.515243 0.337053
507 1 0.0857955 0.511229 0.261054
579 1 0.0854791 0.504822 0.413084
589 1 0.498256 0.500843 0.32705
473 1 0.673781 0.661944 0.00483493
437 1 0.155117 0.50009 0.0118853
505 1 0.00174355 0.50064 0.17245
477 1 0.830464 0.647915 0.000145973
677 1 0.169357 0.652201 0.495758
7 1 0.260656 0.998881 0.0683554
705 1 0.332711 0.827986 0.490946
93 1 0.824822 0.991936 0.163083
681 1 0.320814 0.661558 0.499733
527 1 0.913238 0.500135 0.256935
652 1 0.00166215 0.5837 0.579983
749 1 0.17453 0.65908 0.664378
722 1 0.0872382 0.581043 0.674672
656 1 0.160451 0.583278 0.58439
466 1 0.415834 0.752249 0.980478
660 1 0.329452 0.563346 0.576826
679 1 0.250575 0.652086 0.588768
852 1 0.337719 0.910807 0.918715
730 1 0.427606 0.574033 0.665421
683 1 0.418639 0.657253 0.578279
664 1 0.501234 0.575689 0.5938
685 1 0.506906 0.64504 0.505324
383 1 0.922899 0.993058 0.910692
309 1 0.832467 0.997024 0.669105
734 1 0.586488 0.563813 0.660053
757 1 0.51077 0.65407 0.668411
668 1 0.667957 0.574935 0.583355
311 1 0.90881 0.995452 0.741252
738 1 0.748452 0.567118 0.657115
672 1 0.837053 0.564523 0.577698
494 1 0.58177 0.92409 0.990473
441 1 0.338249 0.508519 0.994075
299 1 0.431337 0.99087 0.734031
742 1 0.928801 0.569457 0.670382
485 1 0.162673 0.827389 0.998343
675 1 0.0802285 0.650414 0.574391
746 1 0.0843656 0.729452 0.665928
465 1 0.350473 0.665991 0.993083
680 1 0.162192 0.754261 0.582813
864 1 0.843309 0.919137 0.904903
844 1 0.0165514 0.931268 0.918016
365 1 0.169836 0.982155 0.819815
684 1 0.342342 0.751375 0.567512
754 1 0.40749 0.745404 0.660646
688 1 0.49265 0.740919 0.590824
474 1 0.75961 0.754028 0.99174
363 1 0.1069 0.997187 0.910087
687 1 0.596236 0.659745 0.570482
692 1 0.669735 0.754137 0.58058
781 1 0.520031 0.81735 0.659041
761 1 0.664356 0.651032 0.660244
785 1 0.661052 0.829657 0.663044
765 1 0.847591 0.641685 0.671111
691 1 0.751795 0.658103 0.574703
715 1 0.759398 0.834318 0.581524
762 1 0.738546 0.752753 0.674592
695 1 0.912741 0.653804 0.590949
745 1 0.00409518 0.646436 0.671788
676 1 0.00646759 0.740388 0.584259
696 1 0.828497 0.757088 0.593114
769 1 0.997786 0.823643 0.663321
766 1 0.920904 0.730431 0.655138
699 1 0.0875422 0.829835 0.562961
700 1 0.00138199 0.910499 0.59321
795 1 0.0762875 0.510516 0.920165
219 1 0.0748506 0.982509 0.582457
703 1 0.255177 0.829992 0.581827
295 1 0.244615 0.9707 0.737212
704 1 0.168646 0.922462 0.589432
686 1 0.571484 0.753362 0.506665
446 1 0.590395 0.577916 0.999716
707 1 0.414637 0.827484 0.5881
708 1 0.332745 0.90756 0.578018
659 1 0.420842 0.50189 0.569055
711 1 0.588188 0.824668 0.580979
712 1 0.507179 0.905161 0.594135
782 1 0.595781 0.918237 0.672073
801 1 0.339076 0.509966 0.834128
716 1 0.671347 0.914963 0.59292
720 1 0.834755 0.911766 0.56984
786 1 0.749657 0.92236 0.665017
719 1 0.915861 0.83599 0.581322
789 1 0.820089 0.842206 0.66639
367 1 0.236618 0.990955 0.91479
9 1 0.334124 0.984663 0.992551
794 1 0.0763838 0.59809 0.852319
747 1 0.083088 0.653586 0.753755
481 1 0.991856 0.834877 0.988248
821 1 0.167049 0.667104 0.833958
227 1 0.435124 0.996082 0.592769
726 1 0.248399 0.572875 0.66793
728 1 0.169226 0.59367 0.750536
732 1 0.334404 0.576326 0.734355
490 1 0.415597 0.896262 0.988942
753 1 0.341211 0.653607 0.656494
802 1 0.405697 0.587201 0.830208
291 1 0.0787448 0.979947 0.750705
223 1 0.256752 0.994327 0.593592
736 1 0.491769 0.564419 0.762692
759 1 0.594307 0.652968 0.745367
740 1 0.663662 0.577269 0.756925
806 1 0.58394 0.58917 0.841111
837 1 0.830311 0.660035 0.837111
744 1 0.849158 0.584246 0.756738
810 1 0.747399 0.570614 0.83098
724 1 0.997686 0.569507 0.759148
767 1 0.927636 0.662861 0.745598
713 1 0.683995 0.844878 0.509479
817 1 0.99511 0.676261 0.828485
818 1 0.0895369 0.739279 0.858061
771 1 0.0987258 0.816394 0.749779
751 1 0.267019 0.672373 0.74369
752 1 0.170391 0.722082 0.744135
750 1 0.277456 0.749031 0.661695
775 1 0.251736 0.827404 0.755463
777 1 0.331018 0.833202 0.66325
755 1 0.433127 0.657962 0.735242
825 1 0.326649 0.663672 0.831438
756 1 0.344273 0.745827 0.744689
779 1 0.427917 0.826832 0.746687
849 1 0.347101 0.838508 0.820283
826 1 0.417897 0.735066 0.830033
758 1 0.592271 0.732528 0.66453
760 1 0.513575 0.725476 0.749164
764 1 0.662394 0.73982 0.762246
783 1 0.608437 0.833464 0.761735
763 1 0.759708 0.650334 0.737615
857 1 0.681423 0.847175 0.853197
834 1 0.761813 0.760526 0.837244
748 1 0.99623 0.747265 0.742256
768 1 0.833312 0.736173 0.72196
838 1 0.926166 0.746778 0.846461
791 1 0.914014 0.8157 0.745608
361 1 0.992523 0.997423 0.822391
799 1 0.256934 0.503511 0.914624
770 1 0.0888348 0.887273 0.658036
772 1 0.00601576 0.896133 0.743109
289 1 0.997271 0.990095 0.672287
773 1 0.175218 0.812783 0.666108
774 1 0.247303 0.902239 0.662362
489 1 0.325689 0.816588 0.993553
776 1 0.168435 0.901987 0.739949
846 1 0.25852 0.908743 0.83392
462 1 0.250971 0.741585 0.999296
718 1 0.918521 0.919336 0.505877
778 1 0.437849 0.891436 0.678813
780 1 0.336347 0.921045 0.749063
850 1 0.410254 0.92177 0.823825
502 1 0.916699 0.926904 0.99711
854 1 0.592624 0.918555 0.837154
853 1 0.511418 0.81725 0.827635
784 1 0.521461 0.901443 0.751299
694 1 0.908414 0.751376 0.518025
13 1 0.49364 0.993932 0.997722
486 1 0.239748 0.903214 0.998467
787 1 0.736163 0.833885 0.753773
788 1 0.68246 0.925313 0.753479
458 1 0.0914324 0.751039 0.98648
858 1 0.760259 0.920472 0.834157
790 1 0.910098 0.908723 0.653608
792 1 0.832867 0.900009 0.751108
862 1 0.921972 0.911104 0.82066
729 1 0.336461 0.503811 0.661752
235 1 0.743198 0.995368 0.574867
819 1 0.0906646 0.658931 0.932557
693 1 0.842933 0.670777 0.504993
798 1 0.252529 0.57433 0.825571
842 1 0.0775058 0.897167 0.82187
800 1 0.172569 0.57373 0.923953
803 1 0.410834 0.515283 0.932899
690 1 0.76046 0.746225 0.506864
848 1 0.17001 0.90429 0.918106
297 1 0.33506 0.984606 0.662951
804 1 0.333927 0.58812 0.920026
808 1 0.504632 0.574983 0.930258
831 1 0.593038 0.682109 0.924824
709 1 0.50422 0.833128 0.503006
381 1 0.841421 0.99049 0.827952
833 1 0.678548 0.658901 0.843855
225 1 0.329642 0.989442 0.502475
812 1 0.675146 0.567632 0.922923
816 1 0.828556 0.567172 0.914132
835 1 0.746073 0.666266 0.924569
796 1 0.994754 0.581371 0.923633
839 1 0.909211 0.655882 0.918926
814 1 0.916584 0.577235 0.840164
860 1 0.674543 0.930243 0.912569
851 1 0.425595 0.83357 0.899126
371 1 0.421593 0.992271 0.912484
843 1 0.0893055 0.830684 0.908926
824 1 0.180261 0.74319 0.918137
822 1 0.249064 0.748753 0.838303
823 1 0.249386 0.660973 0.920073
847 1 0.240765 0.825689 0.921967
797 1 0.144333 0.5122 0.830041
845 1 0.164027 0.819171 0.831934
856 1 0.506487 0.904446 0.897215
231 1 0.588749 0.998902 0.582898
827 1 0.430139 0.650172 0.920684
828 1 0.334456 0.740422 0.912836
830 1 0.584125 0.741984 0.83565
829 1 0.50737 0.656059 0.840513
832 1 0.508837 0.758213 0.917833
469 1 0.507829 0.666528 0.992197
855 1 0.599983 0.829426 0.921354
861 1 0.83952 0.821741 0.827286
836 1 0.678225 0.746021 0.917962
859 1 0.76649 0.83951 0.924292
840 1 0.833328 0.755754 0.908824
841 1 0.00481436 0.816577 0.837403
293 1 0.163221 0.995512 0.660951
863 1 0.922441 0.837217 0.909812
820 1 0.991661 0.736222 0.921696
689 1 0.676014 0.655956 0.501777
674 1 0.0842945 0.735687 0.500166
670 1 0.92911 0.568371 0.506356
373 1 0.491896 0.998816 0.825118
