ITEM: TIMESTEP
7250
ITEM: NUMBER OF ATOMS
864
ITEM: BOX BOUNDS pp pp pp
0.0000000000000000e+00 3.1559999999999999e+01
0.0000000000000000e+00 3.1559999999999999e+01
0.0000000000000000e+00 3.1559999999999999e+01
ITEM: ATOMS id type xs ys zs
8 1 0.162742 0.0785201 0.0866529
74 1 0.0948559 0.0797338 0.174828
4 1 0.00137221 0.077507 0.0785354
53 1 0.170573 0.334961 0.00895132
31 1 0.240022 0.163759 0.0730338
77 1 0.174886 0.00133898 0.170022
242 1 0.0963101 0.257488 0.491224
78 1 0.247709 0.0738991 0.178697
12 1 0.347863 0.0760517 0.0684752
82 1 0.424865 0.0892757 0.169003
16 1 0.500709 0.0727571 0.0861096
105 1 0.326957 0.168748 0.160106
249 1 0.332946 0.180023 0.49393
10 1 0.427755 0.0749574 0.00162308
20 1 0.672693 0.0726086 0.0982879
595 1 0.750381 0.496015 0.410547
65 1 0.667427 0.336919 0.0139676
90 1 0.764651 0.0804473 0.174493
24 1 0.830046 0.0884659 0.0854537
43 1 0.763315 0.188442 0.0878111
207 1 0.581999 0.336222 0.412326
163 1 0.738191 0.0112692 0.422858
47 1 0.920047 0.169345 0.0815113
94 1 0.934955 0.101226 0.168364
511 1 0.260053 0.49764 0.255266
23 1 0.912906 0.00258908 0.0965251
27 1 0.0670078 0.166372 0.0774396
97 1 0.0173613 0.168758 0.173769
28 1 0.997639 0.259764 0.0862537
101 1 0.170852 0.171201 0.185284
32 1 0.152436 0.238088 0.0677366
36 1 0.339325 0.236759 0.0808963
35 1 0.429113 0.165769 0.0719881
40 1 0.49597 0.254739 0.0733763
39 1 0.588102 0.162233 0.0976179
44 1 0.679262 0.266408 0.099147
250 1 0.419387 0.262608 0.491566
234 1 0.737451 0.084564 0.499499
114 1 0.747183 0.245004 0.186777
215 1 0.918137 0.328926 0.423354
48 1 0.834716 0.259855 0.124095
73 1 0.00281536 0.0138127 0.163935
51 1 0.0754168 0.330005 0.0783666
56 1 0.16452 0.431776 0.0816471
206 1 0.571666 0.418823 0.345434
129 1 0.350926 0.313933 0.15719
55 1 0.245066 0.332751 0.0839081
60 1 0.331343 0.404408 0.0801629
54 1 0.238249 0.427738 0.00397985
3 1 0.0798488 0.00460745 0.0727715
59 1 0.417311 0.334944 0.0732109
64 1 0.497529 0.407673 0.0918814
130 1 0.41018 0.413221 0.159341
593 1 0.656844 0.494964 0.331697
63 1 0.58158 0.335994 0.0855826
134 1 0.575877 0.412652 0.172257
218 1 0.0892769 0.0807957 0.495119
89 1 0.673365 0.00196646 0.174207
67 1 0.755359 0.340744 0.0930269
68 1 0.654398 0.428543 0.0929062
6 1 0.255447 0.0852799 0.00478298
72 1 0.828514 0.430558 0.105406
71 1 0.899483 0.342763 0.0990012
52 1 0.0106621 0.418945 0.085067
142 1 0.923952 0.414976 0.179865
75 1 0.0759469 0.00421534 0.256667
173 1 0.169482 0.16367 0.349952
80 1 0.167769 0.0716639 0.253078
99 1 0.0854206 0.162541 0.263261
150 1 0.25067 0.0852663 0.328137
449 1 0.670144 0.493569 0.00619329
157 1 0.502055 0.00144521 0.324657
599 1 0.909504 0.493082 0.424363
84 1 0.336607 0.0935949 0.239634
107 1 0.42035 0.164478 0.250938
222 1 0.260074 0.0871124 0.494771
86 1 0.585757 0.0846668 0.178996
88 1 0.502697 0.0871955 0.252281
109 1 0.504282 0.153212 0.174097
185 1 0.672799 0.168541 0.33425
181 1 0.495329 0.169442 0.347355
113 1 0.68297 0.155498 0.170582
117 1 0.84666 0.162238 0.157356
92 1 0.674386 0.0767259 0.238213
115 1 0.746647 0.154007 0.252775
96 1 0.841709 0.0847947 0.243974
76 1 0.00449428 0.090911 0.25414
119 1 0.926769 0.164433 0.263847
515 1 0.42189 0.497222 0.246268
95 1 0.927229 0.00254571 0.270007
98 1 0.0790721 0.25793 0.17415
123 1 0.0729429 0.354419 0.254894
121 1 0.99618 0.333211 0.173489
103 1 0.243523 0.171796 0.256641
104 1 0.171879 0.262788 0.251462
102 1 0.242242 0.248868 0.174246
108 1 0.335506 0.249591 0.259009
106 1 0.421203 0.23019 0.158736
131 1 0.405822 0.32694 0.25542
112 1 0.510685 0.245752 0.250241
201 1 0.334855 0.342835 0.338535
133 1 0.502604 0.333084 0.183984
178 1 0.419033 0.251499 0.337526
111 1 0.590713 0.167826 0.240868
110 1 0.585316 0.244996 0.165413
137 1 0.666987 0.347848 0.174842
116 1 0.664534 0.245865 0.249659
139 1 0.759981 0.339124 0.253915
141 1 0.841429 0.355335 0.182349
118 1 0.919893 0.242178 0.188051
120 1 0.840851 0.240405 0.253006
100 1 0.0053361 0.232581 0.2632
122 1 0.0892983 0.423784 0.167462
194 1 0.0895954 0.427162 0.33913
125 1 0.165415 0.336741 0.167946
126 1 0.244754 0.418092 0.169224
127 1 0.265549 0.336794 0.251333
128 1 0.160291 0.425081 0.255304
441 1 0.331351 0.498445 0.00556067
205 1 0.492761 0.328554 0.331913
132 1 0.342121 0.419623 0.245998
202 1 0.423165 0.42328 0.333221
136 1 0.512039 0.422194 0.258394
135 1 0.592209 0.340268 0.26281
140 1 0.654817 0.420926 0.247814
138 1 0.752757 0.428112 0.173285
257 1 0.658861 0.163794 0.490937
286 1 0.901629 0.412805 0.488095
210 1 0.760869 0.418027 0.332926
144 1 0.831412 0.419281 0.259314
143 1 0.914665 0.334143 0.256635
214 1 0.917238 0.421237 0.335074
124 1 0.00746544 0.428933 0.268381
146 1 0.0833931 0.0851236 0.34263
152 1 0.171049 0.0911926 0.417379
148 1 0.000180184 0.0810344 0.431071
212 1 0.670621 0.411834 0.399857
229 1 0.49984 0.000757983 0.498268
237 1 0.840764 0.00764587 0.492815
156 1 0.334205 0.0749558 0.41871
177 1 0.334422 0.154205 0.34099
154 1 0.419302 0.0843415 0.330616
179 1 0.408024 0.17653 0.410257
160 1 0.490666 0.0739691 0.415077
278 1 0.584026 0.413711 0.496723
269 1 0.16853 0.349868 0.493567
158 1 0.582978 0.0869331 0.343617
230 1 0.578921 0.0887475 0.497464
45 1 0.848604 0.172847 0.00179682
162 1 0.740134 0.0859819 0.336301
164 1 0.657151 0.0932174 0.419132
445 1 0.480083 0.488893 0.000592465
166 1 0.910831 0.0750411 0.349317
189 1 0.835059 0.156845 0.346235
168 1 0.828544 0.0764498 0.414703
517 1 0.492127 0.497226 0.154619
153 1 0.324453 0.0129848 0.319377
169 1 0.997152 0.172327 0.36168
191 1 0.90142 0.170219 0.439824
170 1 0.0823945 0.251758 0.346112
171 1 0.0913238 0.165022 0.42117
216 1 0.835694 0.39764 0.406878
41 1 0.673789 0.175797 0.00589896
197 1 0.160864 0.341435 0.32051
174 1 0.245347 0.257041 0.325907
175 1 0.255471 0.161068 0.417496
176 1 0.186617 0.252998 0.413077
147 1 0.0956177 0.00282878 0.417275
18 1 0.745421 0.0984483 0.0248107
277 1 0.503938 0.329607 0.490846
180 1 0.326259 0.247943 0.40634
184 1 0.497772 0.246024 0.418855
203 1 0.408299 0.337686 0.412406
42 1 0.754995 0.272633 0.0135839
182 1 0.586129 0.240999 0.343427
209 1 0.677094 0.321332 0.335695
183 1 0.57046 0.158459 0.420279
188 1 0.661264 0.248258 0.431439
161 1 0.657616 0.00871386 0.330566
186 1 0.762871 0.24768 0.320525
81 1 0.336365 0.0204228 0.159527
187 1 0.756478 0.186074 0.416496
193 1 0.998115 0.336151 0.336634
213 1 0.83795 0.326979 0.332164
192 1 0.829566 0.257219 0.425785
172 1 0.00427128 0.262475 0.441001
190 1 0.918862 0.248092 0.342743
282 1 0.743337 0.421392 0.494373
145 1 0.0154857 0.0107056 0.342679
70 1 0.908205 0.427393 0.0130593
195 1 0.0943066 0.337294 0.409799
196 1 0.00588825 0.421688 0.416968
7 1 0.245594 0.00512375 0.0803249
30 1 0.2486 0.252649 0.0012947
198 1 0.247537 0.423883 0.328653
199 1 0.255785 0.33501 0.404502
200 1 0.161725 0.435408 0.420563
66 1 0.743896 0.420328 0.00308012
204 1 0.33188 0.431798 0.411145
208 1 0.500433 0.427329 0.425062
211 1 0.746273 0.327371 0.414839
281 1 0.666167 0.33729 0.495022
49 1 0.987763 0.340003 0.00779754
46 1 0.90093 0.26826 0.00719039
19 1 0.757058 0.000143978 0.0887421
159 1 0.581899 0.00108348 0.418232
22 1 0.912781 0.09108 0.000461202
270 1 0.244574 0.437821 0.499951
669 1 0.816965 0.498901 0.497165
220 1 0.00766806 0.0774073 0.577137
290 1 0.103295 0.0921849 0.6621
299 1 0.403215 0.00476923 0.736961
303 1 0.596961 0.00237488 0.71681
224 1 0.173258 0.0871616 0.564436
294 1 0.235183 0.0811666 0.661202
247 1 0.258719 0.175567 0.578477
253 1 0.484195 0.163536 0.505226
432 1 0.830004 0.419509 0.927004
228 1 0.325327 0.0874978 0.575256
232 1 0.504359 0.0726636 0.57508
226 1 0.417069 0.0711663 0.500169
302 1 0.586312 0.0933127 0.658346
236 1 0.684869 0.0891296 0.586319
325 1 0.489357 0.166194 0.656607
231 1 0.596221 0.010753 0.589986
369 1 0.33842 0.00726197 0.826634
383 1 0.909968 0.00933115 0.895182
240 1 0.83131 0.0948517 0.582566
306 1 0.756707 0.0945789 0.660393
333 1 0.839975 0.174351 0.663016
412 1 0.989108 0.412991 0.934246
263 1 0.917824 0.161103 0.585849
310 1 0.927899 0.0882309 0.665697
289 1 0.00951636 0.0204399 0.665125
274 1 0.412576 0.412751 0.512147
243 1 0.0768326 0.158729 0.578861
314 1 0.0844642 0.235866 0.649081
248 1 0.176324 0.271857 0.586394
271 1 0.253075 0.352406 0.576454
252 1 0.328376 0.253511 0.589583
341 1 0.153438 0.337353 0.658838
251 1 0.41023 0.156135 0.581981
322 1 0.417044 0.241307 0.669903
256 1 0.486253 0.263395 0.587341
227 1 0.422907 0.00588949 0.578092
58 1 0.40658 0.412067 0.989997
255 1 0.577525 0.179809 0.58
260 1 0.657256 0.26174 0.586297
259 1 0.745442 0.179035 0.590609
815 1 0.913241 0.498378 0.921572
313 1 0.996335 0.164821 0.664715
264 1 0.826946 0.25854 0.595512
244 1 0.00463384 0.257607 0.5632
337 1 0.00454781 0.334011 0.661074
334 1 0.938549 0.256972 0.658536
61 1 0.491833 0.343111 0.999279
267 1 0.0911193 0.330807 0.581189
268 1 0.998967 0.417244 0.601468
69 1 0.830797 0.344195 0.998772
338 1 0.091379 0.409609 0.666149
297 1 0.321195 0.0126009 0.657517
272 1 0.163528 0.43053 0.582779
342 1 0.236311 0.416646 0.671544
811 1 0.747196 0.493191 0.918848
235 1 0.754954 0.00108457 0.569682
276 1 0.335771 0.415662 0.591763
275 1 0.411248 0.342363 0.587457
280 1 0.490084 0.426313 0.581549
377 1 0.654497 0.00276846 0.811837
279 1 0.571551 0.343727 0.578619
350 1 0.575196 0.442115 0.667554
284 1 0.646964 0.434496 0.585913
233 1 0.661758 0.00867948 0.507226
283 1 0.741892 0.343002 0.581578
354 1 0.742347 0.429638 0.66692
288 1 0.828833 0.427656 0.577451
381 1 0.826293 0.0144875 0.827055
287 1 0.903701 0.330553 0.591751
358 1 0.912552 0.42271 0.667594
671 1 0.90821 0.494306 0.586899
793 1 0.995277 0.495685 0.821365
296 1 0.174231 0.0795212 0.746156
315 1 0.0906824 0.163715 0.744491
365 1 0.159498 0.00584593 0.822444
366 1 0.245489 0.081677 0.840603
321 1 0.335331 0.156338 0.660656
298 1 0.411406 0.0824993 0.659684
300 1 0.344752 0.0951846 0.743747
370 1 0.429352 0.0756517 0.838008
323 1 0.428315 0.162855 0.745329
304 1 0.508481 0.0811446 0.736798
327 1 0.590846 0.169463 0.734239
295 1 0.249715 0.00158706 0.754881
329 1 0.659331 0.184191 0.660612
649 1 0.987621 0.486188 0.510837
308 1 0.663953 0.0985283 0.740354
312 1 0.840811 0.0894511 0.745893
378 1 0.729875 0.0767744 0.825435
307 1 0.758353 0.00373003 0.730682
292 1 0.0119277 0.0869834 0.747332
335 1 0.916838 0.169193 0.744488
311 1 0.927494 0.0059743 0.748909
317 1 0.18226 0.178229 0.671445
339 1 0.0831858 0.334645 0.745237
409 1 0.99229 0.336669 0.818721
320 1 0.16502 0.249093 0.75936
319 1 0.256744 0.171918 0.746736
318 1 0.261174 0.257605 0.677857
390 1 0.257713 0.251218 0.834303
393 1 0.355091 0.157131 0.83198
324 1 0.344257 0.247627 0.764717
328 1 0.511572 0.263308 0.741217
417 1 0.343166 0.332623 0.834933
394 1 0.4302 0.253747 0.835108
326 1 0.583437 0.259278 0.666017
332 1 0.669656 0.249518 0.741308
398 1 0.593628 0.239344 0.819925
331 1 0.752838 0.169384 0.752488
330 1 0.738709 0.269723 0.666866
336 1 0.837216 0.249292 0.743251
357 1 0.821179 0.345417 0.66616
316 1 0.00961113 0.247725 0.745054
359 1 0.92579 0.333222 0.734284
385 1 0.998049 0.170964 0.832709
410 1 0.0778788 0.417293 0.821576
413 1 0.165541 0.337264 0.836069
723 1 0.0875789 0.484823 0.743064
262 1 0.908039 0.260877 0.508011
345 1 0.345239 0.340706 0.677034
343 1 0.24476 0.326153 0.749794
344 1 0.168215 0.410247 0.743092
348 1 0.338584 0.408972 0.759007
346 1 0.411088 0.428324 0.68868
349 1 0.495257 0.34681 0.664369
347 1 0.424777 0.333242 0.761506
418 1 0.406953 0.423751 0.84907
353 1 0.642648 0.354453 0.668046
352 1 0.502629 0.414975 0.760614
351 1 0.577857 0.34097 0.765639
356 1 0.658858 0.438486 0.751354
422 1 0.587379 0.429851 0.837327
355 1 0.736107 0.357614 0.732412
360 1 0.842563 0.437411 0.748679
33 1 0.335037 0.154605 0.995066
340 1 0.992611 0.418535 0.736559
429 1 0.836727 0.342949 0.827653
430 1 0.928007 0.419717 0.833177
254 1 0.583441 0.25379 0.507121
17 1 0.676507 0.00341338 0.999889
265 1 0.993696 0.357054 0.510361
362 1 0.078173 0.0937424 0.835074
5 1 0.165205 0.00760975 0.99174
364 1 0.99735 0.0937016 0.909644
367 1 0.254535 0.00223036 0.91963
368 1 0.162015 0.0843124 0.909017
363 1 0.0825835 0.00553846 0.909024
2 1 0.0772869 0.0966772 0.99321
372 1 0.344482 0.0715894 0.907954
261 1 0.818639 0.180171 0.512031
375 1 0.584444 0.000176036 0.903105
397 1 0.503158 0.169205 0.846887
374 1 0.596324 0.0902124 0.841704
376 1 0.520411 0.0793669 0.918361
399 1 0.596188 0.166336 0.926334
14 1 0.5883 0.0614042 0.9963
797 1 0.160294 0.496791 0.833349
380 1 0.678547 0.100581 0.931031
384 1 0.826676 0.0809024 0.906177
266 1 0.0824875 0.421032 0.501414
382 1 0.913994 0.0924205 0.820107
285 1 0.830671 0.342866 0.510093
361 1 0.99226 0.0181882 0.833963
29 1 0.170123 0.157158 0.993253
389 1 0.167814 0.168824 0.842602
387 1 0.0947554 0.166422 0.916905
386 1 0.07539 0.247563 0.822526
388 1 0.987517 0.27099 0.904976
26 1 0.0756643 0.257387 0.972131
391 1 0.264402 0.148012 0.914485
13 1 0.502171 0.0031715 0.992962
392 1 0.164217 0.249862 0.911885
37 1 0.516486 0.157905 0.989939
34 1 0.416585 0.256303 0.993467
258 1 0.74869 0.262243 0.514157
395 1 0.414863 0.147019 0.919512
396 1 0.330565 0.244093 0.932946
400 1 0.52562 0.247265 0.913457
405 1 0.828858 0.167678 0.842326
401 1 0.683366 0.177453 0.84093
402 1 0.751693 0.2747 0.824314
404 1 0.672733 0.252057 0.932037
403 1 0.771383 0.172088 0.941535
57 1 0.324137 0.3391 0.995947
406 1 0.90802 0.261395 0.826322
408 1 0.82613 0.261937 0.90474
407 1 0.914532 0.184576 0.916079
795 1 0.0629534 0.485663 0.910094
416 1 0.169502 0.427223 0.916529
411 1 0.0773939 0.349999 0.921606
813 1 0.836926 0.485188 0.842375
414 1 0.249434 0.428032 0.831373
415 1 0.24863 0.332418 0.90773
420 1 0.326972 0.421075 0.92412
421 1 0.491754 0.342817 0.84138
424 1 0.498472 0.422544 0.913867
419 1 0.410291 0.332984 0.909934
1 1 0.000916054 0.0076069 0.994173
423 1 0.591734 0.327482 0.913009
21 1 0.811933 0.00962149 0.985117
426 1 0.751495 0.403377 0.823878
428 1 0.666742 0.41144 0.919603
425 1 0.663493 0.349244 0.82553
431 1 0.908821 0.352545 0.909457
427 1 0.749925 0.34202 0.921206
241 1 0.986987 0.167161 0.501038
38 1 0.591605 0.258563 0.998505
729 1 0.321413 0.494478 0.671761
246 1 0.250295 0.257079 0.502594
655 1 0.250395 0.493447 0.59833
223 1 0.245285 0.00973833 0.578489
721 1 0.993382 0.496541 0.662718
379 1 0.736753 0.00401788 0.9014
238 1 0.921042 0.0834096 0.50296
50 1 0.0952672 0.430147 0.997807
273 1 0.331743 0.342295 0.505816
25 1 0.990585 0.192495 0.996334
667 1 0.744191 0.498425 0.586839
62 1 0.585243 0.410901 0.998057
245 1 0.183537 0.174496 0.501207
459 1 0.0839323 0.664077 0.0805806
689 1 0.681205 0.676009 0.491444
509 1 0.159666 0.513514 0.176928
435 1 0.0857914 0.506342 0.0791511
666 1 0.755925 0.578147 0.486422
440 1 0.167408 0.585199 0.0874793
463 1 0.232812 0.669514 0.0855303
447 1 0.574777 0.504495 0.0828987
439 1 0.259872 0.501056 0.0940695
444 1 0.338691 0.600522 0.0703386
521 1 0.653141 0.503216 0.179272
523 1 0.745342 0.51339 0.271495
443 1 0.401996 0.519121 0.0827131
448 1 0.4949 0.587276 0.077986
462 1 0.229272 0.746774 0.00598211
452 1 0.658633 0.595008 0.086618
456 1 0.826946 0.58565 0.0731796
549 1 0.822361 0.676358 0.186069
525 1 0.824558 0.521041 0.164346
686 1 0.581641 0.73973 0.492138
436 1 0.987318 0.59077 0.0922121
455 1 0.911909 0.507695 0.0846993
460 1 0.00452363 0.739288 0.0753271
464 1 0.149034 0.750493 0.0872852
468 1 0.319039 0.758378 0.0912235
534 1 0.231628 0.748061 0.171067
587 1 0.412839 0.514077 0.413468
658 1 0.403735 0.590711 0.493183
467 1 0.400361 0.691134 0.078335
151 1 0.252966 0.996654 0.424621
491 1 0.415776 0.846632 0.085401
472 1 0.482822 0.757964 0.0750008
471 1 0.581149 0.680943 0.0920557
476 1 0.682367 0.760619 0.0773056
475 1 0.753926 0.660414 0.0799644
499 1 0.762322 0.853353 0.080951
478 1 0.918836 0.761889 0.00153244
479 1 0.910115 0.680391 0.0773935
480 1 0.818537 0.754252 0.0769573
591 1 0.59128 0.507699 0.426001
461 1 0.169488 0.653401 0.00304253
483 1 0.0647876 0.832531 0.0700961
557 1 0.147171 0.837937 0.144767
554 1 0.0764001 0.932033 0.167343
487 1 0.238328 0.84159 0.0744276
488 1 0.155969 0.922095 0.0658035
558 1 0.239349 0.908755 0.162524
492 1 0.317608 0.926163 0.0745788
657 1 0.333016 0.501151 0.492191
496 1 0.497652 0.914653 0.0673161
589 1 0.493857 0.520421 0.338962
495 1 0.577566 0.841484 0.0764115
500 1 0.670697 0.927102 0.0821494
446 1 0.589829 0.579131 0.00348204
570 1 0.751229 0.912106 0.167638
553 1 0.00965599 0.840883 0.187439
484 1 0.00233402 0.925371 0.0849894
503 1 0.933372 0.827184 0.093985
504 1 0.856772 0.904272 0.0904391
574 1 0.926966 0.903251 0.170894
506 1 0.0905527 0.589272 0.1644
512 1 0.162208 0.595538 0.254215
605 1 0.160822 0.672825 0.33732
505 1 0.995692 0.503783 0.163102
507 1 0.075582 0.519345 0.255287
533 1 0.161503 0.669275 0.172045
510 1 0.243967 0.59659 0.176006
582 1 0.244029 0.60066 0.332608
535 1 0.244308 0.678353 0.250008
654 1 0.245619 0.572877 0.499345
577 1 0.011894 0.503263 0.34003
513 1 0.333755 0.522613 0.170899
514 1 0.429385 0.60023 0.165762
516 1 0.325852 0.592012 0.256585
520 1 0.511961 0.592637 0.25888
585 1 0.324851 0.505395 0.334262
11 1 0.408083 0.989742 0.0628842
586 1 0.400102 0.584668 0.318205
518 1 0.57732 0.598229 0.159911
677 1 0.183607 0.662305 0.483289
221 1 0.176586 0.996605 0.498201
613 1 0.493277 0.672167 0.338944
522 1 0.742049 0.594681 0.165705
524 1 0.675675 0.591989 0.256657
528 1 0.830925 0.591915 0.255554
597 1 0.832788 0.502382 0.336548
508 1 0.982032 0.582633 0.245118
601 1 0.999175 0.664609 0.335035
526 1 0.890363 0.605353 0.154281
527 1 0.907157 0.504253 0.231475
530 1 0.0697146 0.75688 0.16853
529 1 0.989568 0.667724 0.16855
531 1 0.0664802 0.656634 0.246912
536 1 0.160398 0.747766 0.260576
602 1 0.0875169 0.763045 0.334172
561 1 0.316889 0.832485 0.161423
540 1 0.320927 0.752349 0.233653
606 1 0.251103 0.750663 0.319278
537 1 0.328924 0.665935 0.169212
538 1 0.410731 0.744355 0.177708
539 1 0.417913 0.667125 0.244215
609 1 0.330551 0.674518 0.321754
541 1 0.498112 0.673493 0.178032
544 1 0.500232 0.74649 0.260653
543 1 0.58178 0.682488 0.255261
542 1 0.581313 0.75743 0.156958
548 1 0.655527 0.760268 0.261493
569 1 0.659161 0.835694 0.185711
546 1 0.750701 0.754221 0.180349
545 1 0.653802 0.67756 0.161158
547 1 0.748638 0.6821 0.271871
552 1 0.828545 0.753225 0.269264
645 1 0.82953 0.853484 0.347038
550 1 0.909498 0.750278 0.171088
532 1 0.98759 0.747431 0.255879
551 1 0.912689 0.668164 0.25676
622 1 0.924309 0.750683 0.34238
625 1 0.99961 0.825835 0.335305
555 1 0.107191 0.831614 0.248798
560 1 0.163828 0.925532 0.245703
629 1 0.161851 0.8419 0.338291
559 1 0.239932 0.83132 0.249557
564 1 0.330994 0.909018 0.248777
633 1 0.317462 0.833113 0.326659
563 1 0.41098 0.822215 0.244521
562 1 0.401307 0.92801 0.159189
634 1 0.414559 0.935349 0.33562
565 1 0.504655 0.833938 0.159874
87 1 0.584243 0.993594 0.248817
566 1 0.583197 0.908424 0.162426
567 1 0.569004 0.830345 0.252714
568 1 0.470998 0.91365 0.243156
572 1 0.663992 0.922367 0.279181
571 1 0.739563 0.834478 0.276185
576 1 0.824143 0.908685 0.249228
91 1 0.747358 0.999885 0.254766
573 1 0.830067 0.824513 0.170612
575 1 0.907382 0.83602 0.247852
556 1 0.998402 0.932573 0.256473
646 1 0.923485 0.920701 0.339028
578 1 0.0807282 0.585562 0.342672
580 1 0.998645 0.576264 0.431044
584 1 0.166915 0.575161 0.418471
607 1 0.256799 0.668185 0.405885
588 1 0.335556 0.585937 0.407272
470 1 0.588412 0.745484 0.00120869
713 1 0.658332 0.828805 0.487138
592 1 0.502139 0.586198 0.432551
85 1 0.4783 0.999856 0.163101
611 1 0.421091 0.664498 0.417987
519 1 0.57886 0.512005 0.256284
590 1 0.57627 0.584873 0.342953
615 1 0.582698 0.663802 0.417234
581 1 0.166461 0.515252 0.324202
93 1 0.865351 0.99666 0.184619
594 1 0.764926 0.591213 0.34472
596 1 0.671091 0.581275 0.409883
600 1 0.844362 0.583061 0.413638
619 1 0.760323 0.662618 0.420039
598 1 0.924999 0.569142 0.335239
623 1 0.915153 0.666405 0.411865
603 1 0.0786034 0.661325 0.418422
608 1 0.16726 0.755255 0.410392
83 1 0.40125 0.999449 0.240617
648 1 0.836375 0.911198 0.429885
631 1 0.248167 0.841911 0.41001
610 1 0.412658 0.758816 0.338071
637 1 0.492939 0.838349 0.334665
612 1 0.328353 0.74481 0.414757
617 1 0.665174 0.667744 0.343653
614 1 0.573738 0.746792 0.345573
641 1 0.657908 0.825259 0.346644
639 1 0.571201 0.816696 0.416003
616 1 0.479207 0.744681 0.425996
618 1 0.750278 0.75601 0.343284
643 1 0.742226 0.837691 0.420119
620 1 0.658395 0.747287 0.415638
694 1 0.927068 0.743786 0.485411
628 1 0.992812 0.915202 0.407906
647 1 0.921456 0.831219 0.424137
621 1 0.841145 0.677309 0.334002
624 1 0.825965 0.75799 0.41654
604 1 0.00385081 0.74216 0.408852
632 1 0.170055 0.910641 0.421248
473 1 0.665671 0.67587 0.00427158
489 1 0.329961 0.827364 0.00369182
626 1 0.0760883 0.920568 0.321631
15 1 0.579221 0.993616 0.103415
627 1 0.0775216 0.834524 0.425692
583 1 0.249037 0.516438 0.409735
706 1 0.428239 0.917061 0.494208
630 1 0.249737 0.929399 0.334414
636 1 0.33167 0.912911 0.416289
635 1 0.41389 0.841316 0.413543
640 1 0.503212 0.919302 0.422149
167 1 0.925148 0.992019 0.426191
698 1 0.0933035 0.924015 0.49811
638 1 0.578295 0.913433 0.337821
650 1 0.0889564 0.596167 0.499829
678 1 0.235027 0.770153 0.484067
79 1 0.262837 0.986474 0.239917
644 1 0.657949 0.914054 0.417735
165 1 0.831883 0.996082 0.331433
451 1 0.751396 0.51111 0.089959
642 1 0.74576 0.926779 0.347178
155 1 0.4203 0.995466 0.426441
149 1 0.156867 0.997879 0.325249
469 1 0.491663 0.677741 0.00194973
434 1 0.0654867 0.587657 0.00402237
690 1 0.753548 0.760727 0.496323
579 1 0.0757354 0.50198 0.43953
722 1 0.0820478 0.599045 0.666821
749 1 0.157594 0.674952 0.667665
705 1 0.335 0.844894 0.503151
656 1 0.168973 0.585868 0.586743
726 1 0.241575 0.589172 0.670686
660 1 0.314581 0.581791 0.589995
702 1 0.250491 0.915775 0.50619
863 1 0.925261 0.849207 0.915825
664 1 0.497341 0.586587 0.57533
494 1 0.589505 0.935949 0.992959
465 1 0.333988 0.677419 0.991368
291 1 0.0767135 0.999149 0.756001
734 1 0.5872 0.585806 0.651107
668 1 0.682729 0.594482 0.572193
687 1 0.581653 0.66764 0.579599
761 1 0.655566 0.667973 0.661647
662 1 0.578762 0.599658 0.503789
737 1 0.66164 0.510299 0.666216
738 1 0.739657 0.586157 0.667345
691 1 0.7648 0.669782 0.582542
477 1 0.82573 0.672483 0.989931
665 1 0.671563 0.514368 0.505063
652 1 0.00543094 0.573588 0.57825
672 1 0.821139 0.580857 0.567419
695 1 0.917578 0.65102 0.575873
682 1 0.388504 0.742029 0.500112
765 1 0.824747 0.661432 0.661992
675 1 0.0738063 0.674267 0.587612
680 1 0.172206 0.767916 0.596276
699 1 0.0819062 0.861705 0.59579
697 1 0.00353638 0.828428 0.504273
497 1 0.656001 0.840206 0.987022
679 1 0.234935 0.672804 0.581263
684 1 0.333334 0.760003 0.590921
293 1 0.160729 0.995485 0.6872
683 1 0.419925 0.661086 0.590988
757 1 0.487168 0.665842 0.681913
739 1 0.761986 0.502841 0.759966
709 1 0.50568 0.817739 0.506654
844 1 0.00393138 0.920227 0.88742
688 1 0.492571 0.736924 0.583196
758 1 0.578769 0.745918 0.650671
692 1 0.671914 0.750907 0.580482
9 1 0.334775 0.988154 0.984832
857 1 0.674613 0.846664 0.809115
715 1 0.757439 0.843451 0.58987
663 1 0.584145 0.513479 0.58158
745 1 0.983163 0.665273 0.654815
676 1 0.978247 0.747946 0.587197
696 1 0.858236 0.743449 0.595301
766 1 0.92881 0.751194 0.67768
704 1 0.177308 0.927498 0.606109
239 1 0.912623 0.998526 0.584971
703 1 0.259629 0.837542 0.583436
774 1 0.259219 0.918788 0.664318
708 1 0.331579 0.923823 0.585112
681 1 0.303417 0.659171 0.500842
718 1 0.91982 0.916537 0.504584
707 1 0.420172 0.824443 0.590478
781 1 0.506631 0.817552 0.654152
778 1 0.405974 0.931709 0.659143
712 1 0.487341 0.911099 0.590892
659 1 0.410599 0.511634 0.577375
864 1 0.815056 0.930782 0.90865
711 1 0.586094 0.829948 0.574668
782 1 0.58067 0.912019 0.645473
219 1 0.0940567 0.99758 0.591478
789 1 0.854702 0.840395 0.659545
716 1 0.666406 0.912775 0.569025
786 1 0.758242 0.919582 0.663754
785 1 0.657729 0.826549 0.657695
799 1 0.257258 0.515304 0.915887
719 1 0.930208 0.843196 0.578895
720 1 0.840823 0.916584 0.577011
700 1 0.00812635 0.939384 0.590208
790 1 0.919932 0.93122 0.680429
693 1 0.843373 0.66742 0.500132
301 1 0.496435 0.999084 0.660456
458 1 0.0773145 0.750788 0.999767
728 1 0.144473 0.575949 0.752261
821 1 0.153153 0.666646 0.84445
794 1 0.0684306 0.577305 0.830985
653 1 0.16605 0.514559 0.510067
727 1 0.225173 0.501446 0.741816
732 1 0.31874 0.585933 0.746549
751 1 0.226444 0.663243 0.762277
730 1 0.391292 0.581 0.672244
731 1 0.400404 0.514625 0.753076
733 1 0.489978 0.516823 0.658737
736 1 0.490144 0.590059 0.77241
806 1 0.592599 0.584809 0.848244
759 1 0.581042 0.671238 0.737808
735 1 0.572881 0.521743 0.750968
740 1 0.653273 0.588618 0.740875
763 1 0.754566 0.670509 0.748458
742 1 0.914607 0.578629 0.651808
743 1 0.913266 0.519729 0.743146
744 1 0.835178 0.582995 0.751375
724 1 0.00286213 0.59013 0.741505
814 1 0.908653 0.586655 0.827931
817 1 0.984222 0.664287 0.841064
725 1 0.159422 0.519619 0.663732
746 1 0.0745123 0.753331 0.653531
747 1 0.0788396 0.673368 0.743838
748 1 0.00570382 0.757117 0.744894
771 1 0.0935054 0.813538 0.747833
818 1 0.0711927 0.757614 0.835543
845 1 0.173606 0.832291 0.832502
752 1 0.175126 0.751969 0.738933
753 1 0.325242 0.663021 0.656652
750 1 0.259113 0.751579 0.659458
756 1 0.334315 0.736759 0.749139
754 1 0.415375 0.741938 0.662749
755 1 0.414515 0.657575 0.762893
853 1 0.503132 0.827552 0.831857
760 1 0.50926 0.757155 0.745813
830 1 0.58844 0.758147 0.816696
762 1 0.754511 0.762225 0.656989
764 1 0.662769 0.747664 0.735752
834 1 0.729617 0.76049 0.81882
768 1 0.837209 0.743179 0.735919
837 1 0.842131 0.678573 0.821609
833 1 0.654651 0.665125 0.822267
767 1 0.918365 0.667453 0.73935
838 1 0.909476 0.759174 0.836542
791 1 0.91456 0.841457 0.755626
770 1 0.0835361 0.916547 0.687663
773 1 0.163208 0.846918 0.675926
842 1 0.0848791 0.89846 0.824246
776 1 0.173085 0.915225 0.758422
777 1 0.335259 0.833158 0.667675
775 1 0.258472 0.830607 0.742581
780 1 0.326142 0.916083 0.748385
846 1 0.25077 0.923253 0.835835
498 1 0.736626 0.915636 0.983795
779 1 0.420818 0.81888 0.74695
457 1 0.987844 0.656913 0.986584
849 1 0.327142 0.818971 0.829637
850 1 0.417476 0.926607 0.825747
481 1 0.993432 0.852307 0.98207
783 1 0.591758 0.838232 0.740085
784 1 0.490077 0.897197 0.722751
854 1 0.579386 0.916451 0.819894
701 1 0.165907 0.839419 0.518835
433 1 0.989865 0.50181 0.996914
788 1 0.66554 0.929189 0.736314
787 1 0.772488 0.830891 0.740888
858 1 0.744571 0.933761 0.818529
769 1 0.999668 0.843447 0.678306
772 1 0.999957 0.92115 0.760265
792 1 0.846155 0.924339 0.754443
862 1 0.91073 0.917741 0.837881
485 1 0.161149 0.842763 0.978201
819 1 0.0705286 0.6702 0.916067
670 1 0.915331 0.572055 0.50359
798 1 0.249371 0.573946 0.83053
825 1 0.320664 0.650776 0.828102
673 1 0.992501 0.652247 0.502556
800 1 0.144268 0.569625 0.913874
804 1 0.33822 0.581081 0.924494
823 1 0.236661 0.669937 0.905033
442 1 0.417507 0.595843 0.991695
802 1 0.420529 0.591988 0.84293
829 1 0.51688 0.677991 0.827108
803 1 0.412099 0.503214 0.918334
827 1 0.420482 0.668274 0.914108
805 1 0.498496 0.501816 0.839071
217 1 0.00384878 0.987609 0.500605
808 1 0.508654 0.597205 0.919339
812 1 0.677484 0.599703 0.91677
502 1 0.924959 0.940622 0.999162
831 1 0.588571 0.670173 0.919757
309 1 0.823706 0.999447 0.652861
453 1 0.832207 0.51094 0.991208
810 1 0.753876 0.590408 0.821146
450 1 0.743891 0.583111 0.99987
741 1 0.827762 0.502747 0.667861
809 1 0.666526 0.510904 0.834786
796 1 0.995247 0.574152 0.900829
816 1 0.808591 0.590934 0.914901
717 1 0.827874 0.829872 0.502583
454 1 0.915665 0.582655 0.990849
824 1 0.148695 0.753835 0.916299
651 1 0.0835569 0.503473 0.578383
820 1 0.994422 0.75667 0.914879
841 1 0.995548 0.837319 0.825205
843 1 0.072345 0.833543 0.911867
822 1 0.238712 0.742287 0.8351
847 1 0.252931 0.830349 0.915695
828 1 0.32985 0.750118 0.918799
466 1 0.418612 0.767636 0.982242
826 1 0.411023 0.739128 0.83066
438 1 0.255787 0.590272 0.999221
714 1 0.75064 0.91422 0.504581
832 1 0.51545 0.74711 0.916988
836 1 0.662058 0.751145 0.917695
674 1 0.0986578 0.739353 0.506124
835 1 0.753212 0.677811 0.886856
661 1 0.497013 0.504753 0.506914
710 1 0.591762 0.91379 0.502883
861 1 0.814633 0.841525 0.833402
839 1 0.900973 0.680102 0.921637
840 1 0.825943 0.75298 0.902226
482 1 0.0813355 0.92332 0.981199
305 1 0.682715 0.995495 0.651445
501 1 0.839628 0.834101 0.978888
848 1 0.173034 0.929455 0.908032
852 1 0.333864 0.910633 0.903505
486 1 0.255276 0.918078 0.991139
371 1 0.434207 0.994131 0.914496
225 1 0.328069 0.995063 0.503854
801 1 0.333655 0.50787 0.824647
493 1 0.509347 0.825209 0.982557
851 1 0.406539 0.824942 0.896134
490 1 0.416068 0.903612 0.998554
856 1 0.5002 0.91581 0.914617
855 1 0.590162 0.836326 0.90736
860 1 0.666497 0.924035 0.89633
859 1 0.73942 0.826643 0.916616
807 1 0.577871 0.505863 0.916626
474 1 0.757993 0.752753 0.996957
685 1 0.487893 0.671911 0.506593
373 1 0.510884 0.999785 0.817192
437 1 0.167 0.51436 0.999934
