ITEM: TIMESTEP
10000
ITEM: NUMBER OF ATOMS
864
ITEM: BOX BOUNDS pp pp pp
0.0000000000000000e+00 3.1559999999999999e+01
0.0000000000000000e+00 3.1559999999999999e+01
0.0000000000000000e+00 3.1559999999999999e+01
ITEM: ATOMS id type xs ys zs
4 1 0.0150317 0.0870273 0.0795461
73 1 0.00702636 0.0105802 0.160976
8 1 0.168966 0.0933866 0.0876474
7 1 0.23833 0.00663209 0.0789853
6 1 0.236778 0.088737 0.00863316
105 1 0.301554 0.15589 0.158061
10 1 0.412479 0.10145 0.0173617
12 1 0.34703 0.0821626 0.0972928
16 1 0.491566 0.097789 0.0907347
11 1 0.421083 0.00809272 0.0853968
13 1 0.498418 0.0139501 0.006711
86 1 0.584766 0.0872359 0.157497
41 1 0.6614 0.163933 0.00184264
14 1 0.586134 0.0659005 0.00414664
15 1 0.582683 0.000920976 0.0880232
85 1 0.501274 0.0102357 0.16587
20 1 0.668417 0.0811786 0.0829847
24 1 0.829282 0.0869951 0.100128
18 1 0.743117 0.0735595 0.00952067
43 1 0.760382 0.161243 0.0832006
19 1 0.758103 0.00810531 0.0860316
45 1 0.833467 0.162373 0.0119801
22 1 0.941891 0.0720554 0.00127568
23 1 0.917354 0.0118992 0.0904718
27 1 0.0921344 0.172779 0.0790823
32 1 0.161625 0.271993 0.0777742
28 1 0.0063723 0.258477 0.0878745
97 1 0.00168946 0.182561 0.160136
29 1 0.166187 0.185925 0.00541176
25 1 0.0111169 0.17345 0.0112992
31 1 0.232624 0.180673 0.0892786
36 1 0.326577 0.245961 0.0969141
33 1 0.322336 0.174568 0.0187259
30 1 0.25118 0.26036 0.00607166
35 1 0.412476 0.181944 0.0900187
37 1 0.498543 0.187763 0.0238885
57 1 0.337341 0.331137 0.0156771
34 1 0.417854 0.257215 0.00675923
40 1 0.501432 0.274032 0.0852867
39 1 0.590336 0.167655 0.0776934
110 1 0.588885 0.256793 0.155903
109 1 0.51386 0.18523 0.161864
38 1 0.599384 0.269159 0.0235498
44 1 0.676944 0.242661 0.0794449
42 1 0.752763 0.243789 0.00805216
67 1 0.761865 0.325797 0.0917532
137 1 0.681855 0.33213 0.166371
46 1 0.904805 0.254986 0.0058749
47 1 0.918832 0.166686 0.0840021
48 1 0.841014 0.248218 0.0932355
51 1 0.0803455 0.346989 0.0818139
122 1 0.0968337 0.424441 0.159582
55 1 0.241004 0.335949 0.0809216
56 1 0.17208 0.426382 0.0737248
60 1 0.328677 0.418326 0.0915921
59 1 0.408602 0.335112 0.0988934
64 1 0.498423 0.415096 0.0987909
58 1 0.433174 0.403313 0.00816529
443 1 0.410335 0.498733 0.0789553
63 1 0.582846 0.354344 0.104591
61 1 0.519448 0.349057 0.000987708
521 1 0.65688 0.499524 0.161292
62 1 0.584841 0.430372 0.0141981
65 1 0.689474 0.342649 0.0185362
69 1 0.832334 0.345097 0.000116356
68 1 0.668677 0.42364 0.0864678
49 1 0.986708 0.34255 0.00640405
52 1 0.986946 0.431232 0.0860285
71 1 0.906277 0.341598 0.0864218
72 1 0.839005 0.419833 0.0740033
455 1 0.911854 0.499373 0.0756859
74 1 0.0878469 0.0877605 0.174476
80 1 0.164083 0.087527 0.259935
76 1 0.0145119 0.0916141 0.25437
169 1 0.00443854 0.16148 0.332746
78 1 0.240705 0.0732688 0.168375
84 1 0.324863 0.0973008 0.238674
79 1 0.261361 0.00719263 0.259476
177 1 0.332636 0.166592 0.313322
77 1 0.17006 0.00215834 0.192181
81 1 0.346457 0.00536337 0.178721
82 1 0.42455 0.0901062 0.169685
107 1 0.426497 0.161503 0.252063
181 1 0.497356 0.162348 0.33118
83 1 0.433256 0.0283581 0.260376
87 1 0.568475 0.00346805 0.247332
88 1 0.51132 0.0917516 0.244697
92 1 0.662539 0.080645 0.254626
158 1 0.581765 0.0898027 0.332663
89 1 0.659778 0.00368404 0.178659
161 1 0.652482 0.000684787 0.331808
93 1 0.826461 0.00178454 0.174757
90 1 0.735924 0.0913033 0.172503
115 1 0.743376 0.163858 0.262479
91 1 0.745463 0.0206149 0.256688
95 1 0.926029 0.0173302 0.258519
96 1 0.840078 0.0882293 0.255763
117 1 0.839281 0.163893 0.169404
94 1 0.915855 0.0786307 0.174252
119 1 0.924027 0.152969 0.263438
165 1 0.851128 0.00307103 0.333044
98 1 0.0937098 0.26183 0.171577
99 1 0.0817347 0.178349 0.252822
101 1 0.16567 0.168397 0.185928
104 1 0.167931 0.260987 0.256256
103 1 0.251961 0.174138 0.250285
102 1 0.240296 0.250314 0.168242
108 1 0.327773 0.25772 0.248152
106 1 0.413106 0.244292 0.176685
112 1 0.480336 0.254613 0.251892
113 1 0.66137 0.175167 0.174365
111 1 0.578087 0.179025 0.244961
116 1 0.653733 0.250896 0.250228
205 1 0.501288 0.327812 0.332388
114 1 0.751963 0.246936 0.168004
120 1 0.818746 0.24014 0.256591
139 1 0.745799 0.331878 0.245595
186 1 0.736909 0.2487 0.329571
121 1 0.98838 0.330315 0.174162
118 1 0.911556 0.244012 0.172061
141 1 0.833985 0.319716 0.180783
100 1 0.996756 0.243473 0.27331
190 1 0.911186 0.25146 0.328372
123 1 0.0735629 0.344868 0.268722
124 1 0.00403642 0.416371 0.240671
194 1 0.0766406 0.439977 0.325886
129 1 0.326481 0.333971 0.16765
125 1 0.167973 0.343201 0.167185
127 1 0.246132 0.33995 0.250645
128 1 0.17064 0.430025 0.245226
126 1 0.255792 0.427847 0.182544
132 1 0.3253 0.408863 0.264604
517 1 0.486402 0.498477 0.181317
130 1 0.401406 0.424604 0.179337
131 1 0.402096 0.337392 0.244772
133 1 0.489524 0.343502 0.182756
136 1 0.485293 0.424352 0.261531
202 1 0.415426 0.392952 0.331991
593 1 0.652977 0.494793 0.326385
135 1 0.579846 0.339669 0.248619
134 1 0.566854 0.414745 0.18636
140 1 0.660562 0.419165 0.24695
206 1 0.581022 0.398154 0.332057
138 1 0.747021 0.417834 0.166737
144 1 0.833107 0.41704 0.247325
213 1 0.824512 0.333929 0.319044
210 1 0.762353 0.419932 0.325885
523 1 0.742229 0.498281 0.231734
142 1 0.915827 0.411159 0.178789
143 1 0.904412 0.333713 0.255268
214 1 0.909596 0.418826 0.320934
527 1 0.923224 0.496787 0.23399
525 1 0.839634 0.497367 0.168986
146 1 0.095736 0.0802213 0.342761
145 1 0.00598747 0.00677321 0.346739
152 1 0.163574 0.0789176 0.421122
147 1 0.0878697 0.00500817 0.432541
149 1 0.184328 0.00816505 0.340842
150 1 0.267909 0.0827504 0.338022
151 1 0.258417 0.00637893 0.412006
249 1 0.313939 0.149431 0.488433
154 1 0.42103 0.0906929 0.339736
226 1 0.410823 0.0988381 0.493713
156 1 0.351281 0.0647879 0.423197
160 1 0.492843 0.0898437 0.430225
179 1 0.408278 0.166417 0.411362
157 1 0.508684 0.0131267 0.346698
159 1 0.592457 0.0022042 0.422879
164 1 0.665418 0.0833643 0.424146
230 1 0.589807 0.0911929 0.499345
189 1 0.825391 0.166332 0.33546
162 1 0.751149 0.0903163 0.348281
185 1 0.682009 0.165245 0.345553
187 1 0.751957 0.164575 0.432503
163 1 0.758039 0.014359 0.433563
167 1 0.909987 0.0153775 0.432794
148 1 0.995347 0.0982185 0.413598
168 1 0.834292 0.0981709 0.421847
166 1 0.913166 0.0840398 0.341454
245 1 0.160491 0.173731 0.487992
171 1 0.0712536 0.17505 0.406087
173 1 0.146227 0.170268 0.333345
170 1 0.090609 0.261327 0.338344
195 1 0.0920555 0.331657 0.417598
273 1 0.329112 0.327972 0.488762
246 1 0.252049 0.245141 0.496767
176 1 0.180628 0.26683 0.409358
174 1 0.257095 0.253702 0.335827
175 1 0.243407 0.167586 0.408785
201 1 0.333819 0.324212 0.347647
180 1 0.3337 0.24065 0.420652
178 1 0.400019 0.241002 0.342224
184 1 0.498572 0.241389 0.419305
203 1 0.420489 0.307862 0.423042
209 1 0.661779 0.328928 0.336519
182 1 0.575472 0.254294 0.335152
183 1 0.588128 0.174217 0.405662
254 1 0.599897 0.253558 0.484162
277 1 0.506718 0.313794 0.49483
211 1 0.762846 0.332226 0.405642
188 1 0.682671 0.255232 0.42356
192 1 0.827033 0.242049 0.431811
191 1 0.910124 0.168059 0.421593
215 1 0.899531 0.323704 0.416001
172 1 0.983393 0.24808 0.421528
197 1 0.156406 0.349594 0.335956
200 1 0.147667 0.430411 0.418087
583 1 0.25673 0.497652 0.402712
199 1 0.243415 0.352012 0.422416
198 1 0.240917 0.408696 0.334516
204 1 0.335347 0.422782 0.422646
208 1 0.487292 0.428342 0.419701
591 1 0.57758 0.491439 0.411034
207 1 0.586399 0.338235 0.41776
281 1 0.675095 0.334908 0.491618
282 1 0.74523 0.426276 0.498139
212 1 0.672704 0.419508 0.406682
669 1 0.827082 0.498809 0.496639
216 1 0.847088 0.417208 0.413115
196 1 0.977391 0.416465 0.409032
193 1 0.99168 0.336281 0.335309
286 1 0.915844 0.428566 0.497442
224 1 0.154113 0.0774832 0.582915
220 1 0.00295277 0.092611 0.599626
218 1 0.0761174 0.0896269 0.500786
219 1 0.0798506 0.00517388 0.589329
294 1 0.242774 0.102092 0.649182
222 1 0.230801 0.0698803 0.50665
228 1 0.342956 0.0949169 0.581276
232 1 0.493433 0.077422 0.580893
227 1 0.418915 0.00313486 0.586356
231 1 0.586948 0.00636085 0.594574
233 1 0.659971 0.00789468 0.509409
229 1 0.517915 0.000170818 0.506257
236 1 0.669574 0.0896924 0.599802
240 1 0.830111 0.0939987 0.614017
234 1 0.746458 0.0863271 0.517893
235 1 0.746732 0.0111177 0.591441
217 1 0.986542 0.0110612 0.505159
238 1 0.889634 0.098729 0.516897
241 1 0.986141 0.165381 0.503831
239 1 0.90601 0.00715583 0.608533
237 1 0.83414 0.00241224 0.50326
243 1 0.0838354 0.175307 0.598995
248 1 0.162118 0.253776 0.590822
242 1 0.066498 0.25509 0.50874
247 1 0.236498 0.17679 0.576105
271 1 0.266008 0.331803 0.583764
252 1 0.331495 0.237719 0.570837
321 1 0.333318 0.186989 0.666297
269 1 0.168618 0.328649 0.500177
250 1 0.411246 0.239196 0.505277
251 1 0.431832 0.167605 0.581836
275 1 0.404736 0.323304 0.580354
256 1 0.488552 0.255254 0.584965
322 1 0.407073 0.258534 0.658071
349 1 0.48945 0.331562 0.665171
253 1 0.504863 0.185563 0.503165
255 1 0.579863 0.174101 0.594605
257 1 0.668338 0.178697 0.511676
260 1 0.680137 0.260363 0.597116
259 1 0.736626 0.172867 0.602581
264 1 0.825493 0.266422 0.590967
258 1 0.745181 0.260892 0.502851
261 1 0.816714 0.17504 0.515694
244 1 0.987547 0.273552 0.600957
263 1 0.905103 0.176485 0.595277
313 1 0.998225 0.186518 0.665977
262 1 0.910311 0.252489 0.506553
267 1 0.0917999 0.34511 0.598607
651 1 0.0767773 0.495897 0.581116
338 1 0.0678366 0.43161 0.665989
266 1 0.0764605 0.415775 0.506862
725 1 0.162389 0.490821 0.663336
655 1 0.255985 0.497464 0.578285
270 1 0.264236 0.409902 0.508837
272 1 0.166918 0.422047 0.573739
659 1 0.418135 0.495479 0.578633
276 1 0.341365 0.425318 0.583746
280 1 0.489181 0.414999 0.578027
274 1 0.411976 0.407214 0.500078
279 1 0.592186 0.335531 0.586803
284 1 0.65665 0.42747 0.561749
278 1 0.56536 0.414241 0.502259
283 1 0.734183 0.35162 0.583607
667 1 0.746902 0.495784 0.587532
288 1 0.831174 0.429023 0.595101
285 1 0.818345 0.342484 0.508615
287 1 0.900973 0.340929 0.580255
268 1 0.982807 0.421612 0.587866
265 1 0.991159 0.346113 0.508607
290 1 0.0821412 0.0693711 0.685811
292 1 0.000244719 0.0709488 0.754913
362 1 0.0884183 0.0808399 0.825243
296 1 0.184263 0.0997769 0.759813
300 1 0.320337 0.103553 0.759376
297 1 0.327804 0.0407725 0.671429
295 1 0.25384 0.00560804 0.741483
365 1 0.183174 0.0128115 0.833075
293 1 0.168054 0.0143512 0.677202
301 1 0.495125 0.019498 0.671168
299 1 0.416 0.00145723 0.752401
298 1 0.421719 0.0887668 0.699295
373 1 0.487953 0.00855645 0.833216
303 1 0.562501 0.0045644 0.754041
305 1 0.666149 0.00874781 0.684986
304 1 0.521505 0.097711 0.757183
302 1 0.586759 0.0877909 0.6668
308 1 0.662727 0.0877051 0.76687
329 1 0.673565 0.157519 0.687925
306 1 0.738651 0.0844347 0.687473
331 1 0.761423 0.166128 0.757864
311 1 0.919778 0.00176442 0.766155
381 1 0.839724 0.00982287 0.830851
312 1 0.838856 0.0784537 0.745567
310 1 0.922423 0.0829677 0.673306
335 1 0.931881 0.16163 0.759151
314 1 0.0787808 0.266456 0.678213
315 1 0.0840686 0.176018 0.754892
317 1 0.176779 0.184516 0.668872
320 1 0.179773 0.264809 0.741322
319 1 0.250927 0.187398 0.751111
318 1 0.258101 0.27057 0.668771
389 1 0.171063 0.194612 0.831103
323 1 0.408218 0.184617 0.754019
324 1 0.338619 0.269899 0.737398
347 1 0.431099 0.329204 0.754418
325 1 0.50491 0.177126 0.679552
326 1 0.575347 0.261925 0.669614
328 1 0.503634 0.256322 0.748159
327 1 0.59373 0.187776 0.773417
332 1 0.668619 0.250413 0.750401
330 1 0.746439 0.259763 0.682971
333 1 0.839498 0.177474 0.678283
334 1 0.905158 0.268519 0.678032
336 1 0.837112 0.255735 0.755118
316 1 0.990764 0.258724 0.75102
406 1 0.915519 0.241279 0.833305
723 1 0.0840681 0.489046 0.750621
339 1 0.0866694 0.345377 0.75648
341 1 0.169348 0.348317 0.674247
343 1 0.248761 0.343062 0.758897
344 1 0.166822 0.421971 0.751192
342 1 0.256435 0.411132 0.679524
727 1 0.240927 0.497981 0.767435
345 1 0.336459 0.350603 0.67562
348 1 0.338841 0.433974 0.754378
346 1 0.419622 0.413935 0.668419
418 1 0.411873 0.431161 0.828008
352 1 0.499811 0.416141 0.749364
350 1 0.57978 0.406616 0.667221
351 1 0.586642 0.339094 0.751863
735 1 0.583368 0.499061 0.736176
805 1 0.508188 0.493144 0.833078
353 1 0.678087 0.335107 0.676834
354 1 0.735287 0.424388 0.667958
355 1 0.745952 0.353973 0.75853
356 1 0.667979 0.433818 0.746372
357 1 0.824964 0.352116 0.678537
360 1 0.824974 0.42392 0.757494
337 1 0.999655 0.347793 0.673527
359 1 0.907593 0.349146 0.747897
340 1 0.99221 0.415824 0.753559
358 1 0.903583 0.426146 0.671828
409 1 0.997474 0.335804 0.829473
1 1 0.027279 0.00938489 0.989192
2 1 0.0911895 0.089029 0.99412
364 1 0.0110269 0.103855 0.928251
368 1 0.167013 0.0859957 0.921774
366 1 0.251631 0.0993771 0.843551
372 1 0.331191 0.0896237 0.921287
367 1 0.265041 0.00474539 0.929216
371 1 0.408578 0.010683 0.916418
370 1 0.412322 0.0903067 0.839323
376 1 0.478251 0.0893747 0.924475
374 1 0.585557 0.0794493 0.851738
399 1 0.572766 0.158081 0.934605
21 1 0.829145 0.00034576 0.999556
380 1 0.67279 0.0812627 0.918423
378 1 0.754662 0.0941237 0.838931
401 1 0.675022 0.164784 0.841412
403 1 0.742961 0.163291 0.925743
405 1 0.839337 0.164065 0.845324
383 1 0.915802 0.00262114 0.924655
384 1 0.847786 0.0800505 0.921033
382 1 0.939958 0.0765615 0.851978
26 1 0.0773635 0.255232 0.997103
53 1 0.161322 0.332445 0.98954
385 1 0.00330641 0.168119 0.846555
387 1 0.101589 0.166756 0.908552
386 1 0.0719594 0.266513 0.842904
393 1 0.32733 0.174328 0.83814
392 1 0.167458 0.270116 0.909551
390 1 0.259164 0.26623 0.833785
391 1 0.23359 0.17442 0.920141
396 1 0.323968 0.258964 0.927158
395 1 0.402889 0.171381 0.923939
397 1 0.493146 0.182083 0.837653
394 1 0.398132 0.256646 0.836951
400 1 0.49703 0.243404 0.925612
425 1 0.66021 0.328856 0.836518
421 1 0.514397 0.331222 0.844439
398 1 0.584643 0.247923 0.859049
402 1 0.750039 0.253314 0.837311
404 1 0.675416 0.254596 0.932105
408 1 0.827466 0.244101 0.932732
429 1 0.83893 0.317618 0.844759
407 1 0.920263 0.174871 0.92397
388 1 0.989703 0.250592 0.926978
50 1 0.0827516 0.437394 0.991064
411 1 0.0589612 0.339049 0.933977
410 1 0.077581 0.415002 0.84704
416 1 0.172983 0.419576 0.919352
414 1 0.256221 0.426134 0.852177
413 1 0.168478 0.343525 0.840484
54 1 0.252222 0.424606 0.998731
420 1 0.329 0.439573 0.920456
417 1 0.331681 0.340073 0.8351
415 1 0.25068 0.33863 0.918174
419 1 0.399335 0.358021 0.923183
422 1 0.592339 0.419186 0.837443
423 1 0.592526 0.347844 0.920343
424 1 0.511946 0.425044 0.923318
428 1 0.653475 0.443039 0.92639
427 1 0.749293 0.339706 0.922681
432 1 0.829437 0.425929 0.904185
426 1 0.731484 0.421172 0.840286
66 1 0.758343 0.432928 0.999822
70 1 0.906817 0.432832 0.990817
430 1 0.915185 0.424305 0.838686
431 1 0.899409 0.338092 0.92535
412 1 0.992298 0.434951 0.916467
440 1 0.149243 0.609039 0.0800773
506 1 0.0806929 0.586851 0.165378
435 1 0.0717103 0.513615 0.0693511
439 1 0.263014 0.502015 0.0740606
444 1 0.328547 0.585907 0.0818005
509 1 0.169808 0.516863 0.158936
438 1 0.238016 0.600421 0.00660062
513 1 0.328291 0.513878 0.164623
448 1 0.497257 0.598604 0.091423
442 1 0.418523 0.595787 0.0157201
445 1 0.499104 0.509802 0.00480317
452 1 0.652645 0.596982 0.108972
449 1 0.65302 0.518539 0.0178064
446 1 0.587684 0.603176 0.0162253
447 1 0.571564 0.501658 0.102288
450 1 0.739743 0.588482 0.00864416
522 1 0.760907 0.593605 0.162584
451 1 0.750644 0.515915 0.085069
456 1 0.841398 0.590153 0.0849808
436 1 0.994909 0.592425 0.0761924
526 1 0.922217 0.596623 0.158572
459 1 0.075507 0.677584 0.0910832
529 1 0.00191319 0.686315 0.166429
464 1 0.159332 0.762212 0.0917702
460 1 0.00276124 0.765924 0.0939488
458 1 0.0920911 0.755342 0.00574904
533 1 0.160697 0.682801 0.165824
461 1 0.160566 0.681512 0.000103792
463 1 0.233502 0.677896 0.079138
468 1 0.332403 0.763005 0.0849513
487 1 0.247687 0.825087 0.0886937
462 1 0.241589 0.759438 0.00337014
465 1 0.322483 0.670763 0.00862471
489 1 0.341265 0.831388 0.00352138
469 1 0.498032 0.67308 0.0138819
467 1 0.412738 0.668529 0.0950976
472 1 0.495289 0.760807 0.0886528
538 1 0.419975 0.75995 0.164418
466 1 0.418372 0.741736 0.00890487
470 1 0.585862 0.751202 0.010062
471 1 0.575583 0.678041 0.116536
476 1 0.659392 0.758111 0.0925606
495 1 0.582692 0.831421 0.0764695
475 1 0.737066 0.669956 0.086089
474 1 0.759433 0.7569 0.00858939
499 1 0.758784 0.831008 0.0904337
473 1 0.671865 0.678268 0.00193885
480 1 0.833936 0.756278 0.0895593
479 1 0.930388 0.68216 0.0768252
477 1 0.841 0.676617 0.0093115
549 1 0.835233 0.672342 0.156558
3 1 0.0948846 0.999003 0.081949
483 1 0.0843887 0.850248 0.0966692
484 1 0.00886184 0.924928 0.0690397
554 1 0.0878579 0.937658 0.166282
553 1 0.00817982 0.849158 0.165495
485 1 0.167696 0.83498 0.00288007
488 1 0.168658 0.912609 0.0861479
492 1 0.332083 0.919151 0.0890348
558 1 0.256783 0.929039 0.162951
486 1 0.256749 0.902832 0.0176351
491 1 0.430244 0.849341 0.0835335
9 1 0.347203 0.999919 0.0134603
562 1 0.420195 0.921638 0.15699
496 1 0.514183 0.913797 0.0823452
500 1 0.661724 0.927571 0.0940222
494 1 0.579983 0.929076 0.000347831
17 1 0.677493 0.978382 0.00435237
497 1 0.667746 0.846115 0.00340354
504 1 0.831939 0.93088 0.083437
498 1 0.753458 0.904698 0.0128797
570 1 0.738935 0.930321 0.163802
501 1 0.847514 0.836242 0.00459092
503 1 0.921066 0.843277 0.0876802
507 1 0.0814592 0.515205 0.247737
512 1 0.165652 0.58795 0.255115
505 1 0.00395771 0.500788 0.171347
511 1 0.245498 0.511633 0.252993
510 1 0.251584 0.592814 0.169907
585 1 0.32037 0.501636 0.326468
514 1 0.412525 0.589226 0.171062
589 1 0.484076 0.513536 0.331578
516 1 0.333848 0.590547 0.259876
520 1 0.477567 0.584416 0.253881
515 1 0.393609 0.504514 0.248078
518 1 0.563237 0.589939 0.181681
524 1 0.665164 0.582399 0.233342
590 1 0.58807 0.590378 0.316646
519 1 0.574117 0.50009 0.24437
547 1 0.760715 0.66175 0.239018
594 1 0.741279 0.573651 0.314888
621 1 0.825787 0.664983 0.320346
577 1 0.987152 0.505969 0.322556
508 1 0.999663 0.596513 0.245503
528 1 0.839444 0.586136 0.242264
597 1 0.844644 0.508553 0.324186
530 1 0.0895822 0.760608 0.181661
531 1 0.0779105 0.669717 0.2449
532 1 0.00107908 0.749919 0.254232
605 1 0.15911 0.669217 0.325503
602 1 0.0852257 0.759995 0.321751
534 1 0.252507 0.74753 0.170397
535 1 0.246075 0.676343 0.254978
537 1 0.327444 0.671499 0.170599
536 1 0.170149 0.767372 0.251005
540 1 0.322323 0.755887 0.256759
541 1 0.486886 0.675429 0.180588
539 1 0.39837 0.673149 0.261735
544 1 0.479615 0.746904 0.274304
545 1 0.665763 0.679802 0.18218
543 1 0.567544 0.686993 0.247531
542 1 0.576042 0.777697 0.178358
548 1 0.655074 0.766101 0.25263
617 1 0.658524 0.678165 0.324601
546 1 0.747565 0.7569 0.173563
571 1 0.75268 0.830149 0.262103
618 1 0.761008 0.751602 0.332254
550 1 0.912891 0.76697 0.175277
552 1 0.848962 0.765144 0.257411
551 1 0.908129 0.671431 0.246267
622 1 0.923611 0.771618 0.323816
75 1 0.0949144 0.99755 0.273716
555 1 0.0894844 0.844933 0.260579
557 1 0.156846 0.850849 0.176407
556 1 0.000300923 0.932658 0.249503
561 1 0.330216 0.845778 0.173875
559 1 0.254621 0.84882 0.246421
560 1 0.179858 0.922839 0.249357
630 1 0.254049 0.914068 0.333262
563 1 0.415668 0.834665 0.251716
564 1 0.341137 0.925687 0.252718
565 1 0.496184 0.840138 0.169673
568 1 0.49678 0.91598 0.244952
634 1 0.427265 0.922545 0.325427
566 1 0.584909 0.927016 0.170536
567 1 0.578605 0.838065 0.265295
641 1 0.662422 0.835844 0.330775
569 1 0.667235 0.843481 0.170201
573 1 0.827971 0.836748 0.184724
572 1 0.677453 0.927642 0.265465
576 1 0.800734 0.920992 0.248532
575 1 0.915199 0.854819 0.252795
574 1 0.914688 0.922723 0.172592
625 1 0.992756 0.853675 0.329612
579 1 0.0625327 0.508126 0.42186
653 1 0.153695 0.507093 0.497416
578 1 0.0851181 0.583491 0.339163
603 1 0.0876494 0.654554 0.417301
584 1 0.159785 0.585936 0.412136
581 1 0.165839 0.503572 0.335122
580 1 0.00238428 0.587623 0.406579
677 1 0.167472 0.658576 0.496241
582 1 0.2431 0.586071 0.333343
588 1 0.318581 0.596686 0.416876
658 1 0.428405 0.578869 0.496642
657 1 0.343422 0.508857 0.495397
587 1 0.411368 0.514357 0.407267
586 1 0.41149 0.605622 0.347891
665 1 0.662286 0.510447 0.481332
661 1 0.506804 0.50859 0.495885
592 1 0.508139 0.596048 0.419068
615 1 0.587633 0.659419 0.410909
689 1 0.663593 0.657781 0.477436
596 1 0.667056 0.5822 0.39741
600 1 0.820853 0.582944 0.399171
595 1 0.752257 0.501366 0.414123
666 1 0.744186 0.56935 0.498274
599 1 0.921626 0.516162 0.414982
670 1 0.910619 0.597508 0.489764
598 1 0.917533 0.583829 0.337432
601 1 0.00867559 0.680256 0.334704
607 1 0.249212 0.671565 0.426643
609 1 0.316227 0.672284 0.336855
606 1 0.247979 0.762462 0.336516
608 1 0.170294 0.750673 0.427302
612 1 0.323744 0.752986 0.428432
709 1 0.49784 0.827239 0.499183
682 1 0.414108 0.758731 0.495595
613 1 0.498421 0.674586 0.351286
610 1 0.397194 0.743084 0.340752
611 1 0.41853 0.67435 0.431598
616 1 0.489755 0.743762 0.418911
686 1 0.586607 0.740811 0.485651
614 1 0.569287 0.746657 0.337183
639 1 0.579733 0.831356 0.424601
619 1 0.754955 0.679901 0.424611
690 1 0.760552 0.760323 0.493518
620 1 0.676711 0.763068 0.406586
694 1 0.919069 0.752779 0.486551
693 1 0.839961 0.683718 0.483201
623 1 0.924244 0.677464 0.403155
624 1 0.842922 0.765361 0.402615
604 1 0.992988 0.764453 0.413423
697 1 0.988155 0.832738 0.497796
673 1 0.997666 0.669086 0.483778
626 1 0.0696025 0.924812 0.357336
629 1 0.164055 0.847592 0.343014
627 1 0.0854665 0.841256 0.417915
631 1 0.253427 0.841687 0.413818
632 1 0.169169 0.934335 0.415674
702 1 0.244104 0.933353 0.496736
701 1 0.169571 0.845521 0.488997
153 1 0.347628 0.999751 0.336443
637 1 0.488159 0.843036 0.33344
633 1 0.334767 0.848148 0.342018
636 1 0.335022 0.920518 0.432565
635 1 0.403412 0.841072 0.424975
155 1 0.435499 0.999293 0.41446
710 1 0.593689 0.916325 0.494679
638 1 0.583339 0.918134 0.344323
640 1 0.51242 0.919799 0.415927
642 1 0.741836 0.956932 0.349692
644 1 0.675767 0.92786 0.421665
643 1 0.763431 0.845387 0.420347
648 1 0.834391 0.925901 0.431786
646 1 0.92933 0.933632 0.342978
645 1 0.835942 0.858993 0.336483
628 1 0.997301 0.925876 0.434586
647 1 0.91215 0.847474 0.415867
722 1 0.0880428 0.573291 0.663801
650 1 0.077536 0.579943 0.509319
656 1 0.176593 0.576818 0.579823
679 1 0.262187 0.659095 0.577193
726 1 0.254907 0.580407 0.656194
749 1 0.173472 0.665657 0.658571
753 1 0.333006 0.649529 0.659233
654 1 0.248934 0.577694 0.504147
733 1 0.490376 0.505363 0.660793
660 1 0.340294 0.5722 0.588812
664 1 0.488763 0.590577 0.588821
681 1 0.334235 0.651811 0.506171
729 1 0.334007 0.501508 0.662879
663 1 0.574481 0.508427 0.581376
687 1 0.596202 0.660702 0.583287
662 1 0.59385 0.588646 0.503733
668 1 0.667965 0.574397 0.586889
738 1 0.759869 0.59412 0.665488
761 1 0.671692 0.665026 0.663887
671 1 0.901787 0.507553 0.57437
672 1 0.839653 0.603999 0.585677
652 1 0.995673 0.607735 0.580389
649 1 0.99372 0.510023 0.511867
741 1 0.837055 0.513731 0.656646
675 1 0.090447 0.670915 0.575151
699 1 0.086789 0.831107 0.582424
676 1 0.0109781 0.755939 0.58396
746 1 0.0865885 0.754925 0.657006
674 1 0.0892798 0.761719 0.500553
680 1 0.176652 0.760967 0.585267
678 1 0.246237 0.761261 0.514253
684 1 0.343102 0.75439 0.590247
683 1 0.417856 0.679864 0.592552
707 1 0.429354 0.828175 0.581702
754 1 0.423318 0.750486 0.665851
757 1 0.496773 0.668418 0.663059
685 1 0.489763 0.669492 0.516262
688 1 0.51115 0.752588 0.585051
692 1 0.665364 0.751439 0.589829
691 1 0.737233 0.672089 0.561548
696 1 0.827726 0.758889 0.576358
713 1 0.678803 0.824271 0.503831
765 1 0.829799 0.681866 0.666031
762 1 0.748512 0.771328 0.654994
695 1 0.91901 0.67545 0.570971
766 1 0.917965 0.754589 0.661431
770 1 0.0717081 0.918805 0.661277
698 1 0.0827585 0.919947 0.506868
221 1 0.159709 0.996172 0.513293
703 1 0.254393 0.846198 0.598818
705 1 0.328938 0.841757 0.515133
704 1 0.171609 0.917591 0.597736
223 1 0.242738 0.998832 0.595205
708 1 0.345433 0.929241 0.601271
777 1 0.347981 0.84232 0.657976
225 1 0.33845 0.996347 0.514033
706 1 0.414325 0.91548 0.515327
711 1 0.59234 0.833862 0.576064
712 1 0.522914 0.911408 0.57571
716 1 0.662644 0.922902 0.606898
715 1 0.74367 0.850472 0.579682
786 1 0.750693 0.915982 0.665735
714 1 0.755447 0.926218 0.506418
717 1 0.834535 0.850715 0.519846
718 1 0.913758 0.927266 0.512119
719 1 0.916681 0.834745 0.592884
720 1 0.836084 0.920944 0.600721
700 1 0.998516 0.928789 0.583855
793 1 0.00310255 0.500048 0.830619
728 1 0.161355 0.588692 0.750845
745 1 0.0276306 0.662594 0.679573
747 1 0.0931029 0.66031 0.764241
732 1 0.328351 0.564981 0.745214
731 1 0.42807 0.516379 0.748509
730 1 0.418951 0.588742 0.66754
736 1 0.498029 0.59924 0.755361
825 1 0.3491 0.656448 0.824685
734 1 0.587371 0.585284 0.667475
759 1 0.586171 0.66282 0.769914
740 1 0.666043 0.583661 0.750167
737 1 0.660583 0.508596 0.671438
739 1 0.745936 0.520427 0.748857
763 1 0.738091 0.659271 0.759813
744 1 0.830554 0.590015 0.75002
724 1 0.995664 0.596599 0.760328
742 1 0.914614 0.59417 0.673057
814 1 0.908932 0.60904 0.824297
743 1 0.897332 0.515863 0.766919
721 1 0.985685 0.512781 0.681183
752 1 0.144462 0.758189 0.748576
771 1 0.0728708 0.827484 0.757153
817 1 0.00117749 0.682484 0.822472
750 1 0.246084 0.748104 0.674739
751 1 0.24617 0.67427 0.755334
773 1 0.172941 0.822798 0.667403
775 1 0.254355 0.817135 0.76259
821 1 0.175712 0.690084 0.831754
755 1 0.425393 0.672368 0.740127
756 1 0.34378 0.731141 0.73314
760 1 0.496618 0.745077 0.760813
779 1 0.412778 0.83068 0.754379
758 1 0.587177 0.732452 0.672934
781 1 0.513621 0.828977 0.675686
785 1 0.64931 0.832195 0.667135
764 1 0.680803 0.743904 0.747961
768 1 0.824299 0.765062 0.754974
837 1 0.818852 0.678259 0.829589
767 1 0.910325 0.683924 0.741859
748 1 0.996787 0.758304 0.742065
841 1 0.988302 0.828002 0.830133
791 1 0.910023 0.82759 0.759207
838 1 0.908506 0.752482 0.831187
291 1 0.0830599 0.993773 0.753153
776 1 0.162471 0.916937 0.737471
774 1 0.253625 0.92459 0.672618
369 1 0.327138 0.989838 0.830017
845 1 0.170056 0.839182 0.826811
780 1 0.331108 0.909675 0.74876
846 1 0.243567 0.91647 0.807277
778 1 0.424483 0.930137 0.67513
850 1 0.404148 0.914475 0.830199
784 1 0.486481 0.908072 0.758922
377 1 0.664375 0.990547 0.827799
782 1 0.580327 0.913379 0.672842
783 1 0.576308 0.835926 0.761454
857 1 0.663626 0.843615 0.831725
858 1 0.755779 0.920416 0.831907
309 1 0.826001 0.996064 0.681502
789 1 0.83251 0.839731 0.673417
788 1 0.66719 0.909675 0.747572
787 1 0.752774 0.84168 0.757805
307 1 0.750426 0.997871 0.756708
769 1 0.991396 0.838507 0.67067
790 1 0.912044 0.909842 0.679195
772 1 0.99641 0.916837 0.758829
792 1 0.837898 0.91363 0.76304
289 1 0.998285 0.994016 0.667626
797 1 0.163135 0.512844 0.841462
795 1 0.079945 0.52116 0.921628
794 1 0.0726019 0.576848 0.833623
800 1 0.16038 0.590288 0.917694
433 1 0.00140664 0.502951 0.994986
434 1 0.0737966 0.59277 0.992935
819 1 0.0828006 0.661819 0.910525
437 1 0.161263 0.506826 0.998727
799 1 0.244742 0.520509 0.934865
441 1 0.333044 0.514651 0.997334
798 1 0.248775 0.602818 0.836775
804 1 0.330293 0.597754 0.915257
801 1 0.325897 0.51744 0.849538
803 1 0.431258 0.505346 0.908512
802 1 0.429232 0.579837 0.83508
808 1 0.499082 0.591397 0.914039
827 1 0.416721 0.655871 0.927555
829 1 0.512592 0.666529 0.844586
809 1 0.657898 0.506836 0.844045
806 1 0.580286 0.580752 0.836336
807 1 0.57564 0.508398 0.913595
812 1 0.648084 0.589183 0.93308
813 1 0.81935 0.524386 0.835197
811 1 0.739751 0.511093 0.917361
810 1 0.728787 0.582972 0.845149
816 1 0.831541 0.592859 0.927466
453 1 0.830322 0.515191 0.998064
815 1 0.915114 0.509396 0.912957
454 1 0.929351 0.600153 0.995298
796 1 0.982878 0.577815 0.90936
457 1 0.00294556 0.688315 0.996824
818 1 0.0770627 0.753735 0.84084
843 1 0.0841461 0.827085 0.911151
823 1 0.244257 0.675843 0.914423
824 1 0.16845 0.756949 0.924991
822 1 0.286042 0.742467 0.835274
828 1 0.338332 0.749417 0.94119
826 1 0.409361 0.748104 0.845796
832 1 0.497408 0.7579 0.925004
833 1 0.658858 0.67098 0.842774
853 1 0.500695 0.828525 0.851038
830 1 0.585305 0.762797 0.845019
831 1 0.577374 0.680908 0.923209
861 1 0.824418 0.824886 0.847822
835 1 0.75043 0.668537 0.927569
834 1 0.746672 0.758512 0.83716
840 1 0.828109 0.755618 0.925135
836 1 0.67403 0.754655 0.924687
481 1 0.995896 0.833078 0.998184
478 1 0.925292 0.760393 0.998657
839 1 0.907106 0.675704 0.904918
820 1 0.996538 0.755783 0.914189
863 1 0.913916 0.831171 0.918533
482 1 0.0874637 0.906363 0.995123
361 1 0.0141688 0.999983 0.836726
363 1 0.0965621 0.993639 0.910045
5 1 0.166486 0.993025 0.999497
842 1 0.093498 0.910402 0.833906
848 1 0.183392 0.927328 0.911223
847 1 0.248904 0.836965 0.930482
849 1 0.326144 0.837329 0.842038
852 1 0.326977 0.916229 0.919802
493 1 0.492935 0.849774 0.99444
490 1 0.415101 0.927209 0.991196
856 1 0.48322 0.91925 0.905916
851 1 0.398851 0.838448 0.910793
855 1 0.580996 0.837934 0.929632
375 1 0.587986 0.997904 0.919725
860 1 0.663411 0.921055 0.916934
854 1 0.579015 0.91632 0.840945
859 1 0.753156 0.844706 0.919063
864 1 0.828889 0.918976 0.918523
379 1 0.751916 0.990813 0.924371
862 1 0.917539 0.928829 0.842451
502 1 0.914889 0.90873 0.998653
844 1 0.998886 0.913671 0.912106
