ITEM: TIMESTEP
9750
ITEM: NUMBER OF ATOMS
864
ITEM: BOX BOUNDS pp pp pp
0.0000000000000000e+00 3.1559999999999999e+01
0.0000000000000000e+00 3.1559999999999999e+01
0.0000000000000000e+00 3.1559999999999999e+01
ITEM: ATOMS id type xs ys zs
8 1 0.168828 0.0900298 0.0733335
3 1 0.0697358 -0.000528451 0.0814431
2 1 0.0640132 0.0811849 1.01302
27 1 0.089037 0.15907 0.0961933
146 1 0.0821785 0.0848591 0.168773
149 1 0.153092 1.00004 0.163225
5 1 0.170661 0.00474657 0.983701
7 1 0.256247 0.0213012 0.0766784
6 1 0.251869 0.0898503 -0.00473307
31 1 0.268038 0.16287 0.0877776
9 1 0.33172 0.0104619 -0.00117061
12 1 0.342757 0.0854311 0.0770451
10 1 0.426852 0.0733288 1.00018
11 1 0.417561 0.99789 0.0689812
16 1 0.528007 0.0771108 0.0816782
39 1 0.594923 0.168629 0.0791233
158 1 0.581255 0.10414 0.164197
20 1 0.670113 0.0819479 0.0828007
162 1 0.756602 0.07716 0.158365
19 1 0.759156 1.00717 0.0910462
43 1 0.762821 0.164074 0.0850659
24 1 0.845916 0.0903881 0.0819277
21 1 0.820214 0.00888903 1.00654
4 1 0.984312 0.0974037 0.0832099
23 1 0.919773 1.00249 0.0668566
32 1 0.172704 0.234709 0.0775971
26 1 0.0846119 0.255883 0.996232
28 1 0.0155632 0.237522 0.0682782
29 1 0.158957 0.160824 0.995316
51 1 0.103676 0.316277 0.0889305
170 1 0.0948205 0.23863 0.162656
30 1 0.252868 0.236699 1.00138
36 1 0.334651 0.248586 0.0676304
55 1 0.24976 0.32968 0.0692339
57 1 0.333112 0.333989 1.00171
35 1 0.421333 0.158264 0.087782
40 1 0.506567 0.241477 0.0661249
59 1 0.409785 0.33361 0.0746757
181 1 0.486536 0.169769 0.167012
63 1 0.583935 0.333929 0.0833496
44 1 0.676257 0.235522 0.0774243
67 1 0.749271 0.332678 0.0750992
185 1 0.666892 0.164663 0.163377
47 1 0.917459 0.174969 0.0846604
48 1 0.833775 0.253596 0.0748953
71 1 0.922888 0.327393 0.0709485
56 1 0.179836 0.412945 0.0706651
52 1 0.00104157 0.397525 0.0838432
193 1 0.0161478 0.323983 0.16038
50 1 0.0850636 0.400935 0.021447
53 1 0.176958 0.339573 0.976406
198 1 0.245607 0.415776 0.158773
60 1 0.32742 0.422075 0.075516
77 1 0.178724 0.499886 0.993579
83 1 0.434393 0.511578 0.0853547
64 1 0.496377 0.419346 0.0881529
68 1 0.66714 0.423635 0.0864361
87 1 0.5834 0.508317 0.0936561
62 1 0.5883 0.425044 0.0205261
210 1 0.765541 0.399533 0.150247
91 1 0.743926 0.50217 0.0776871
233 1 0.683446 0.501704 0.171767
213 1 0.835523 0.317208 0.161759
72 1 0.843294 0.420771 0.0800848
214 1 0.922815 0.398865 0.168309
95 1 0.920763 0.502908 0.0926471
70 1 0.9199 0.424828 0.007137
69 1 0.81736 0.344934 0.988169
75 1 0.0999702 0.494779 0.0661689
80 1 0.181153 0.6017 0.0726249
76 1 1.00386 0.584124 0.0847079
218 1 0.107111 0.590642 0.152717
221 1 0.180643 0.495352 0.167121
73 1 0.00782905 0.480612 -0.00816659
79 1 0.241047 0.507752 0.0841763
103 1 0.258511 0.676224 0.0840534
222 1 0.258579 0.582633 0.161671
84 1 0.333468 0.579334 0.0710193
107 1 0.421561 0.66436 0.0786949
253 1 0.519763 0.669607 0.178063
82 1 0.418898 0.572751 0.988418
88 1 0.503429 0.602972 0.0811014
111 1 0.596234 0.682147 0.080958
257 1 0.665722 0.673369 0.160535
237 1 0.816654 0.494236 0.158228
92 1 0.672956 0.584391 0.0930289
234 1 0.752161 0.581004 0.166644
96 1 0.836559 0.576252 0.0856736
217 1 1.00755 0.500986 0.164719
238 1 0.918445 0.581205 0.175618
99 1 0.0825064 0.670803 0.0798382
242 1 0.0662153 0.757655 0.156498
100 1 0.997036 0.743653 0.0765915
241 1 0.00494727 0.671174 0.165631
104 1 0.164442 0.762959 0.0903285
246 1 0.254479 0.761272 0.156688
108 1 0.342126 0.749716 0.06583
245 1 0.162302 0.685242 0.169945
249 1 0.336825 0.668171 0.156716
277 1 0.518702 0.834955 0.162434
273 1 0.350615 0.832854 0.180882
250 1 0.430359 0.749455 0.166401
112 1 0.511198 0.758805 0.0843683
254 1 0.589794 0.755719 0.169206
115 1 0.756884 0.663354 0.0844768
261 1 0.835432 0.656031 0.173904
116 1 0.675301 0.741312 0.0737769
258 1 0.75909 0.750767 0.18042
139 1 0.768206 0.836693 0.0771965
281 1 0.682135 0.821228 0.163057
285 1 0.835455 0.833978 0.165695
119 1 0.916459 0.662275 0.0863347
120 1 0.839258 0.747777 0.103049
262 1 0.913087 0.735568 0.179693
143 1 0.918718 0.83618 0.0784899
123 1 0.0868578 0.842328 0.0751931
266 1 0.0844969 0.909854 0.164554
122 1 0.08718 0.921721 0.985309
127 1 0.258615 0.82881 0.0651181
128 1 0.156123 0.922806 0.0599678
132 1 0.352065 0.91095 0.0616903
269 1 0.17955 0.861946 0.147231
270 1 0.260682 0.926179 0.130562
131 1 0.426459 0.826959 0.0702594
274 1 0.420544 0.922944 0.160553
136 1 0.511938 0.898763 0.0789428
157 1 0.52142 0.992869 0.143826
15 1 0.587868 0.999211 0.0503522
135 1 0.601706 0.837898 0.0841886
278 1 0.607295 0.911186 0.166602
140 1 0.663338 0.927432 0.0836014
17 1 0.695354 0.00345501 0.990835
161 1 0.667035 -0.00318735 0.156634
144 1 0.836251 0.922759 0.0813564
165 1 0.835452 0.996413 0.177928
124 1 1.00088 0.9253 0.08525
286 1 0.913453 0.927007 0.169215
152 1 0.167184 0.0787733 0.240736
153 1 0.343225 0.00582626 0.155995
177 1 0.3397 0.161855 0.171351
150 1 0.250912 0.0862196 0.170056
294 1 0.261066 0.0732829 0.304681
151 1 0.245741 0.989541 0.222039
154 1 0.442474 0.0728878 0.148223
156 1 0.334665 0.0726645 0.237156
160 1 0.51179 0.0814252 0.241835
179 1 0.425597 0.163095 0.2555
298 1 0.43347 0.0810352 0.32931
159 1 0.589605 -0.00221058 0.242504
302 1 0.582749 0.0828815 0.322189
305 1 0.681633 0.999992 0.325838
183 1 0.581044 0.167095 0.249736
164 1 0.66512 0.0835093 0.250799
187 1 0.762665 0.178008 0.241347
166 1 0.91958 0.0714373 0.163739
189 1 0.850323 0.162696 0.162991
333 1 0.837231 0.162729 0.340697
148 1 0.000315528 0.073648 0.241796
168 1 0.844104 0.0745594 0.244306
310 1 0.929557 0.0817055 0.325691
171 1 0.0831318 0.151473 0.246039
172 1 0.010794 0.248792 0.235074
314 1 0.0800482 0.242526 0.328607
169 1 0.00141481 0.163421 0.159353
173 1 0.171932 0.16581 0.162916
174 1 0.249697 0.25831 0.158155
175 1 0.247887 0.173015 0.240841
176 1 0.182826 0.258004 0.244307
180 1 0.326397 0.264097 0.238995
178 1 0.420798 0.24361 0.178054
321 1 0.333171 0.146548 0.32327
184 1 0.498601 0.253062 0.25522
203 1 0.415957 0.318672 0.247018
182 1 0.563239 0.248154 0.160751
207 1 0.58953 0.32102 0.241653
326 1 0.586945 0.251496 0.32721
349 1 0.490238 0.326432 0.334281
186 1 0.748614 0.245095 0.157813
209 1 0.659616 0.330555 0.156904
353 1 0.689287 0.331491 0.321986
188 1 0.674946 0.248877 0.242054
192 1 0.845475 0.248404 0.246182
211 1 0.748505 0.339794 0.233938
329 1 0.665095 0.178456 0.324697
190 1 0.926503 0.263493 0.160742
191 1 0.922565 0.16096 0.245021
197 1 0.154968 0.348736 0.168712
194 1 0.0807728 0.433198 0.152563
195 1 0.0860749 0.33146 0.245167
200 1 0.164249 0.430194 0.253689
337 1 0.00302909 0.326235 0.33562
201 1 0.331263 0.327554 0.161425
199 1 0.244752 0.351662 0.240754
342 1 0.248561 0.412623 0.326739
202 1 0.417143 0.420067 0.159453
204 1 0.340484 0.426271 0.237491
227 1 0.439439 0.491627 0.257003
205 1 0.506278 0.335732 0.159796
206 1 0.585302 0.413257 0.170471
208 1 0.502466 0.393737 0.25299
350 1 0.583864 0.412009 0.334463
231 1 0.595899 0.498843 0.259245
212 1 0.675908 0.424993 0.251626
354 1 0.7549 0.419301 0.334404
216 1 0.827249 0.416645 0.242185
196 1 0.00546567 0.419422 0.254317
357 1 0.848352 0.336295 0.329315
215 1 0.936312 0.320728 0.252798
239 1 0.905097 0.496281 0.243754
219 1 0.0977952 0.516119 0.246198
224 1 0.170993 0.595864 0.243989
365 1 0.17167 0.506345 0.325691
362 1 0.0837202 0.585943 0.34203
223 1 0.248313 0.515181 0.245036
228 1 0.340085 0.586997 0.243011
225 1 0.326291 0.496283 0.151326
226 1 0.412261 0.574394 0.165422
369 1 0.342568 0.494828 0.338231
232 1 0.50253 0.578046 0.249239
251 1 0.427996 0.659399 0.237111
373 1 0.49557 0.488693 0.348767
230 1 0.587475 0.577972 0.172494
229 1 0.497572 0.482426 0.17076
236 1 0.654245 0.59106 0.257649
255 1 0.575779 0.661795 0.269073
374 1 0.588055 0.586045 0.346905
377 1 0.673512 0.509863 0.340692
235 1 0.759701 0.492175 0.246156
378 1 0.754439 0.582206 0.325361
240 1 0.832649 0.578187 0.242277
259 1 0.748622 0.659693 0.249627
220 1 0.00540566 0.593488 0.237798
263 1 0.914769 0.653752 0.26126
405 1 0.829598 0.653495 0.330409
361 1 1.00413 0.504725 0.322645
382 1 0.919514 0.567815 0.328262
243 1 0.0828287 0.662091 0.254278
248 1 0.168796 0.761971 0.243129
386 1 0.103399 0.742019 0.328633
247 1 0.245674 0.667723 0.245754
252 1 0.339024 0.736011 0.24389
390 1 0.256987 0.751613 0.31261
275 1 0.437948 0.838558 0.235318
421 1 0.494274 0.84304 0.333357
394 1 0.422256 0.739248 0.327105
256 1 0.504178 0.762402 0.255813
260 1 0.66515 0.737187 0.247566
401 1 0.668733 0.657563 0.333699
283 1 0.749608 0.829788 0.256728
402 1 0.745887 0.741074 0.333788
264 1 0.829215 0.737587 0.25135
429 1 0.836411 0.819664 0.313384
244 1 0.00970945 0.744445 0.245443
406 1 0.934922 0.737091 0.32244
287 1 0.923336 0.824138 0.255029
409 1 0.00439593 0.81191 0.328932
385 1 0.00870127 0.652024 0.341299
145 1 -0.00306955 1.00557 0.158229
267 1 0.0833949 0.827361 0.255855
147 1 0.0713071 0.99599 0.238911
272 1 0.152293 0.927502 0.245398
293 1 0.163269 0.00165049 0.311517
413 1 0.171135 0.833713 0.322793
410 1 0.0797776 0.920185 0.322879
297 1 0.350196 0.00925082 0.329639
417 1 0.337294 0.836597 0.31302
271 1 0.245118 0.84778 0.238432
414 1 0.249669 0.929839 0.316346
276 1 0.328664 0.918992 0.251066
155 1 0.419886 1.00267 0.250625
280 1 0.513614 0.928647 0.232164
301 1 0.508488 0.998757 0.324022
418 1 0.414282 0.920761 0.321604
279 1 0.601272 0.833592 0.242788
422 1 0.582111 0.917599 0.328278
284 1 0.687155 0.909524 0.267038
282 1 0.754959 0.924062 0.172262
163 1 0.75083 0.00200053 0.243128
425 1 0.670138 0.82693 0.339977
265 1 0.982248 0.830464 0.158379
309 1 0.823021 0.0153937 0.332213
268 1 0.997403 0.913125 0.254441
167 1 0.914185 0.998191 0.26529
288 1 0.837772 0.92357 0.251921
289 1 1.00443 0.99049 0.331087
290 1 0.0827061 0.0662099 0.324715
317 1 0.172408 0.156848 0.340754
292 1 -0.00450942 0.0762402 0.401139
296 1 0.171595 0.0698727 0.405094
315 1 0.0856278 0.158986 0.405434
438 1 0.246847 0.0884449 0.493746
319 1 0.254335 0.165613 0.400282
437 1 0.156159 -0.0118599 0.493275
300 1 0.332508 0.0757763 0.417437
323 1 0.421641 0.158508 0.406104
299 1 0.414136 1.00941 0.42076
465 1 0.350974 0.170746 0.487356
441 1 0.318658 1.00261 0.494076
304 1 0.501423 0.0764002 0.41087
303 1 0.584282 0.999334 0.419153
308 1 0.675658 0.0682921 0.416162
306 1 0.74011 0.108987 0.320587
331 1 0.74384 0.16509 0.420737
307 1 0.754506 0.982114 0.415743
453 1 0.842942 0.990676 0.492846
312 1 0.825631 0.0741336 0.420578
454 1 0.909721 0.0834069 0.490141
313 1 0.00609567 0.157451 0.317485
316 1 -0.00272215 0.244383 0.404672
458 1 0.0821462 0.244723 0.506118
318 1 0.245215 0.248282 0.340723
320 1 0.1489 0.263828 0.41792
343 1 0.239429 0.339184 0.42835
322 1 0.387764 0.243876 0.33222
324 1 0.32749 0.25686 0.41841
327 1 0.59631 0.173579 0.41801
325 1 0.507442 0.172134 0.342666
328 1 0.498779 0.246692 0.414629
332 1 0.668455 0.254888 0.402757
470 1 0.584812 0.251768 0.496472
330 1 0.755342 0.23702 0.341994
474 1 0.746009 0.249268 0.500257
336 1 0.847704 0.257466 0.395184
355 1 0.752065 0.339303 0.421146
334 1 0.926001 0.232485 0.324366
335 1 0.904792 0.165599 0.418582
478 1 0.90236 0.242639 0.504106
501 1 0.839948 0.323846 0.479791
339 1 0.0877868 0.350326 0.418393
338 1 0.0870147 0.423906 0.326285
340 1 1.00384 0.424715 0.400415
505 1 0.00467942 0.489583 0.504592
341 1 0.152732 0.335693 0.330679
345 1 0.342515 0.339263 0.327133
344 1 0.178485 0.427253 0.41818
486 1 0.256466 0.427233 0.502489
485 1 0.162056 0.332255 0.506798
348 1 0.323352 0.414205 0.417241
346 1 0.416661 0.412915 0.338166
347 1 0.403422 0.346753 0.425074
490 1 0.403426 0.41326 0.50453
352 1 0.499501 0.407857 0.434132
351 1 0.578247 0.327665 0.409376
356 1 0.652817 0.423042 0.41607
493 1 0.512584 0.333546 0.498847
494 1 0.588564 0.410791 0.4962
498 1 0.776407 0.418872 0.480977
360 1 0.845942 0.412988 0.404393
379 1 0.751075 0.49748 0.410575
497 1 0.663408 0.329157 0.50291
381 1 0.847675 0.486583 0.33173
358 1 0.923426 0.404941 0.327091
359 1 0.922496 0.331949 0.408503
502 1 0.921536 0.426854 0.487103
525 1 0.840873 0.500051 0.496014
363 1 0.08883 0.502084 0.42207
387 1 0.0902216 0.661493 0.424627
509 1 0.172557 0.509113 0.505656
368 1 0.16961 0.579813 0.418363
366 1 0.264506 0.595183 0.326489
393 1 0.350886 0.663375 0.322638
367 1 0.254514 0.509211 0.408331
510 1 0.256813 0.58666 0.501742
537 1 0.330912 0.682448 0.495843
513 1 0.324223 0.507808 0.487103
370 1 0.423638 0.568795 0.337148
371 1 0.416587 0.492136 0.427984
372 1 0.341737 0.582439 0.415054
514 1 0.425892 0.579495 0.505566
375 1 0.585076 0.500385 0.436822
376 1 0.509685 0.574035 0.419643
517 1 0.497262 0.500893 0.512812
518 1 0.581945 0.588501 0.513134
399 1 0.584679 0.661194 0.423415
521 1 0.679542 0.500846 0.506443
380 1 0.659446 0.572231 0.423826
403 1 0.740234 0.659637 0.407742
522 1 0.772059 0.59551 0.49503
383 1 0.92629 0.509716 0.41357
364 1 0.0069377 0.580174 0.423288
384 1 0.840016 0.5845 0.418161
407 1 0.930698 0.672211 0.41502
526 1 0.921088 0.586098 0.497827
389 1 0.18256 0.664166 0.329226
530 1 0.101284 0.753867 0.487378
391 1 0.270895 0.66013 0.411924
392 1 0.183437 0.743543 0.417205
396 1 0.338412 0.760826 0.411107
395 1 0.419166 0.659879 0.426411
419 1 0.419126 0.840344 0.418168
538 1 0.413541 0.749973 0.487897
398 1 0.587089 0.742395 0.340576
541 1 0.50512 0.661546 0.506081
397 1 0.493373 0.645553 0.342086
400 1 0.499483 0.747403 0.403434
542 1 0.591652 0.741135 0.502001
404 1 0.671573 0.751249 0.419672
546 1 0.763592 0.752691 0.488625
408 1 0.83978 0.744578 0.401277
549 1 0.848084 0.672147 0.488712
388 1 0.0184334 0.74221 0.412101
431 1 0.925696 0.815941 0.397468
550 1 0.925117 0.755576 0.488252
291 1 0.0789635 -0.0111993 0.39936
411 1 0.0819932 0.826759 0.399664
416 1 0.166692 0.916469 0.394181
554 1 0.0976436 0.900185 0.49046
295 1 0.260463 1.00055 0.399093
415 1 0.257361 0.839574 0.403245
420 1 0.35046 0.926377 0.404377
562 1 0.430996 0.919362 0.495238
561 1 0.342788 0.847093 0.482145
445 1 0.501345 0.0106837 0.500782
424 1 0.492145 0.927936 0.408788
423 1 0.584626 0.824552 0.412451
428 1 0.673564 0.915469 0.415914
566 1 0.568068 0.918697 0.485615
426 1 0.758602 0.907689 0.345857
427 1 0.754944 0.823406 0.410968
432 1 0.847421 0.895692 0.411009
430 1 0.914942 0.906189 0.330222
433 1 -0.000423269 0.993092 0.491496
412 1 -0.0046451 0.906077 0.408924
311 1 0.908374 0.999218 0.391135
574 1 0.927192 0.900595 0.496295
461 1 0.164372 0.15122 0.483327
434 1 0.071449 0.0773758 0.479844
436 1 0.00583755 0.0747199 0.572084
459 1 0.0907801 0.153825 0.55795
581 1 0.170806 0.0021967 0.657816
440 1 0.154197 0.0728796 0.568985
435 1 0.0788186 0.991168 0.567059
601 1 -0.000916233 0.158324 0.669728
577 1 -0.0032158 0.996544 0.661705
439 1 0.249511 0.0163507 0.581718
463 1 0.245553 0.154983 0.572164
469 1 0.507135 0.170998 0.496679
442 1 0.432239 0.0848579 0.498227
444 1 0.345354 0.0877869 0.565637
586 1 0.43063 0.0887853 0.655988
467 1 0.427975 0.176466 0.587917
613 1 0.504866 0.170995 0.668383
609 1 0.335835 0.160823 0.660568
446 1 0.592453 0.0894938 0.496881
448 1 0.509556 0.0793296 0.578303
590 1 0.586019 0.0990368 0.664508
471 1 0.578456 0.165462 0.571517
450 1 0.752068 0.0786576 0.49482
452 1 0.665146 0.0907181 0.582658
597 1 0.836835 -0.00647523 0.669942
456 1 0.832108 0.0773451 0.573776
598 1 0.920254 0.0818378 0.652181
605 1 0.14538 0.165413 0.656231
602 1 0.0831142 0.246663 0.640762
460 1 0.996146 0.260023 0.569955
462 1 0.236554 0.236564 0.499876
464 1 0.160695 0.237683 0.571361
487 1 0.241232 0.335545 0.573784
629 1 0.174126 0.324575 0.661045
606 1 0.257047 0.23965 0.635572
633 1 0.323605 0.327589 0.658141
489 1 0.321863 0.338119 0.50193
466 1 0.416193 0.252613 0.487307
468 1 0.346107 0.245512 0.569898
610 1 0.414803 0.23497 0.678021
473 1 0.66464 0.171034 0.491038
472 1 0.492827 0.264607 0.573382
476 1 0.665684 0.248804 0.578118
637 1 0.48485 0.340479 0.662337
475 1 0.744732 0.17528 0.570053
618 1 0.75379 0.248611 0.667442
641 1 0.672776 0.333643 0.641821
457 1 0.993497 0.164871 0.487516
477 1 0.826722 0.159531 0.498794
479 1 0.91896 0.152107 0.564163
625 1 1.00015 0.336087 0.653105
480 1 0.833081 0.251026 0.584489
503 1 0.906863 0.334638 0.582194
482 1 0.0919291 0.423279 0.50048
483 1 0.0837688 0.329516 0.581469
481 1 -0.0042415 0.348522 0.485044
484 1 0.989361 0.41314 0.581178
649 1 0.992751 0.488358 0.666498
488 1 0.165425 0.4302 0.57744
492 1 0.332362 0.414181 0.589304
630 1 0.243413 0.417202 0.656649
491 1 0.415875 0.334445 0.578526
634 1 0.404142 0.416639 0.666224
495 1 0.577197 0.341228 0.590453
496 1 0.486681 0.416925 0.582486
638 1 0.576087 0.428291 0.65255
500 1 0.672088 0.417861 0.567145
665 1 0.665965 0.503752 0.65218
499 1 0.757808 0.335489 0.55982
642 1 0.742362 0.414897 0.647327
523 1 0.757271 0.500289 0.581017
504 1 0.840083 0.412565 0.570671
527 1 0.910464 0.489978 0.576763
645 1 0.817737 0.338237 0.666696
506 1 0.0934968 0.565929 0.516234
529 1 0.0041215 0.656864 0.494924
507 1 0.0748551 0.48777 0.591905
531 1 0.102219 0.667585 0.579212
512 1 0.181643 0.593336 0.582991
511 1 0.271024 0.513295 0.584131
654 1 0.270819 0.587863 0.662157
535 1 0.261526 0.684068 0.578467
657 1 0.327523 0.50238 0.669487
516 1 0.336347 0.603 0.566615
515 1 0.409804 0.50851 0.580027
658 1 0.407111 0.578474 0.651909
519 1 0.576179 0.509784 0.58866
520 1 0.484653 0.600382 0.587496
662 1 0.580263 0.586304 0.663799
661 1 0.484372 0.490301 0.668333
545 1 0.675114 0.672993 0.498629
524 1 0.66602 0.584625 0.586275
528 1 0.840935 0.576897 0.573213
508 1 -0.0108427 0.571562 0.569575
551 1 0.915623 0.69318 0.576507
533 1 0.179725 0.657962 0.495274
553 1 0.00415843 0.825144 0.487752
532 1 0.017711 0.739992 0.559629
674 1 0.0796563 0.738817 0.65361
697 1 0.0163916 0.828764 0.668895
673 1 -0.00167389 0.663529 0.653956
536 1 0.176685 0.752709 0.574807
534 1 0.259047 0.763733 0.499238
681 1 0.335416 0.671282 0.656863
559 1 0.238043 0.845468 0.583814
565 1 0.513247 0.826178 0.486547
539 1 0.411857 0.676574 0.582252
540 1 0.348648 0.770932 0.572773
682 1 0.415288 0.755362 0.664478
543 1 0.583175 0.673428 0.585038
685 1 0.489692 0.683113 0.661612
544 1 0.484546 0.756893 0.562956
686 1 0.575508 0.747703 0.669759
548 1 0.660289 0.739903 0.591633
547 1 0.771608 0.666125 0.579632
690 1 0.742995 0.749827 0.663331
573 1 0.836601 0.83856 0.492885
552 1 0.831149 0.760467 0.57891
555 1 0.0744018 0.82194 0.569066
556 1 0.00275914 0.905109 0.564854
560 1 0.158669 0.909733 0.591312
557 1 0.177584 0.833075 0.487833
558 1 0.237512 0.924863 0.483492
564 1 0.318289 0.915424 0.572083
701 1 0.156428 0.826243 0.671773
443 1 0.410866 0.997729 0.57327
563 1 0.423912 0.847981 0.582384
568 1 0.501906 0.917371 0.580967
449 1 0.682371 0.990547 0.505733
569 1 0.665754 0.827215 0.500733
567 1 0.588391 0.833149 0.585085
447 1 0.588782 1.00072 0.5787
572 1 0.67634 0.918949 0.598071
451 1 0.74615 1.00641 0.589085
571 1 0.744269 0.836489 0.592101
570 1 0.7496 0.910606 0.50127
714 1 0.756486 0.930851 0.671292
575 1 0.918807 0.823522 0.574041
455 1 0.913026 1.00712 0.57472
576 1 0.831109 0.923235 0.577673
718 1 0.92424 0.916475 0.649653
578 1 0.0742431 0.0742304 0.667539
579 1 0.0861102 1.00411 0.752918
582 1 0.249301 0.0887545 0.657475
584 1 0.163888 0.0970094 0.740062
588 1 0.337835 0.0777295 0.745042
730 1 0.415349 0.0814516 0.835429
611 1 0.410362 0.163747 0.758171
587 1 0.416466 -0.00555191 0.744482
592 1 0.502714 0.079582 0.750398
591 1 0.595848 0.0229616 0.747703
615 1 0.589667 0.173556 0.738283
734 1 0.59413 0.0952286 0.835255
594 1 0.757321 0.102971 0.650412
596 1 0.663772 0.0934907 0.741822
617 1 0.670469 0.171325 0.665835
600 1 0.84531 0.101656 0.74464
580 1 -0.0157383 0.0755887 0.744436
599 1 0.919875 0.995617 0.73286
603 1 0.0805194 0.160992 0.750295
608 1 0.158964 0.245838 0.728644
604 1 1.0058 0.250196 0.731176
769 1 1.01556 0.344146 0.826465
746 1 0.0724929 0.255916 0.825423
607 1 0.249669 0.163032 0.744618
612 1 0.32619 0.242196 0.752702
750 1 0.253807 0.256108 0.839345
616 1 0.500055 0.24503 0.748725
754 1 0.425425 0.246087 0.829351
781 1 0.501426 0.322955 0.824587
761 1 0.664838 0.178892 0.816879
614 1 0.578328 0.251128 0.655654
758 1 0.586933 0.254163 0.829193
621 1 0.851606 0.169013 0.65199
620 1 0.670541 0.259743 0.744844
619 1 0.756129 0.16905 0.743484
624 1 0.840173 0.262625 0.735783
762 1 0.755132 0.267237 0.825932
622 1 0.918759 0.241651 0.661042
623 1 0.927857 0.17804 0.743521
626 1 0.0846991 0.401107 0.672319
627 1 0.0796674 0.317526 0.738519
628 1 0.996103 0.419927 0.749413
651 1 0.0919137 0.49689 0.725917
770 1 0.0950446 0.406074 0.814518
793 1 0.0167637 0.503662 0.821169
631 1 0.245579 0.327586 0.735975
632 1 0.169634 0.422193 0.737775
774 1 0.239559 0.406907 0.825717
655 1 0.254757 0.500129 0.752372
797 1 0.157351 0.506557 0.82234
636 1 0.334413 0.414389 0.745685
635 1 0.41608 0.333667 0.74211
778 1 0.430896 0.422108 0.828987
801 1 0.338852 0.483412 0.826399
785 1 0.65215 0.338036 0.830588
639 1 0.567596 0.336686 0.729958
640 1 0.503606 0.418331 0.742789
782 1 0.567978 0.425932 0.830198
644 1 0.658766 0.419839 0.726074
805 1 0.498243 0.510401 0.820887
663 1 0.58547 0.514762 0.734948
643 1 0.732117 0.346039 0.7435
789 1 0.828864 0.342539 0.82424
648 1 0.827142 0.413682 0.746665
809 1 0.664109 0.497466 0.820416
647 1 0.918276 0.342856 0.743264
646 1 0.897795 0.416696 0.663442
790 1 0.901026 0.430136 0.817973
813 1 0.823742 0.501049 0.82309
650 1 0.0881987 0.591806 0.664077
652 1 0.0135839 0.586119 0.737915
794 1 0.0902613 0.591497 0.824457
817 1 -0.00603528 0.667256 0.831518
675 1 0.0866079 0.669674 0.755052
653 1 0.179394 0.51264 0.656741
677 1 0.166917 0.668391 0.660765
656 1 0.166072 0.5785 0.73706
798 1 0.249845 0.59174 0.840464
679 1 0.255258 0.65479 0.750837
659 1 0.41058 0.494243 0.743864
660 1 0.330012 0.569989 0.757961
802 1 0.409226 0.576348 0.825687
825 1 0.327772 0.669599 0.83549
664 1 0.499008 0.582411 0.729246
806 1 0.595387 0.586852 0.831354
668 1 0.67129 0.581449 0.759226
833 1 0.663982 0.669954 0.835331
829 1 0.501764 0.662123 0.830934
666 1 0.752946 0.608468 0.663186
669 1 0.822296 0.516514 0.677312
667 1 0.7457 0.499095 0.749103
810 1 0.752489 0.571073 0.836775
672 1 0.8342 0.585925 0.753946
693 1 0.845619 0.664805 0.672429
670 1 0.911854 0.574433 0.656777
671 1 0.917837 0.509155 0.748598
837 1 0.834173 0.674007 0.827798
818 1 0.0945085 0.745277 0.837673
699 1 0.0784437 0.844658 0.769772
845 1 0.156647 0.83104 0.831061
680 1 0.172889 0.756392 0.748439
676 1 1.01644 0.747297 0.740175
678 1 0.258386 0.749199 0.649978
821 1 0.171779 0.664975 0.830908
822 1 0.260062 0.762673 0.836351
703 1 0.240563 0.834148 0.745539
705 1 0.327211 0.842836 0.654846
684 1 0.325391 0.760114 0.736506
683 1 0.404624 0.678137 0.755658
849 1 0.328159 0.838997 0.845735
707 1 0.410817 0.838738 0.733338
826 1 0.415652 0.748622 0.836412
853 1 0.499282 0.840493 0.816334
709 1 0.504486 0.836251 0.653125
689 1 0.658438 0.665252 0.666546
688 1 0.480431 0.761956 0.752971
687 1 0.59038 0.66119 0.751622
711 1 0.575803 0.836809 0.732045
830 1 0.57013 0.759524 0.820093
691 1 0.746354 0.661078 0.767145
692 1 0.662899 0.75009 0.747934
696 1 0.828048 0.750387 0.755391
694 1 0.915069 0.747366 0.669743
695 1 0.922144 0.670431 0.749625
838 1 0.926109 0.75302 0.831976
698 1 0.0743874 0.921063 0.652011
842 1 0.0718833 0.920813 0.836191
702 1 0.260106 0.928005 0.657205
725 1 0.165686 -0.00475732 0.820989
583 1 0.266279 0.00565216 0.745275
704 1 0.154425 0.907177 0.74456
846 1 0.233818 0.920521 0.80761
708 1 0.325808 0.907222 0.76262
706 1 0.437182 0.920929 0.664253
585 1 0.334945 -0.00343845 0.657243
850 1 0.408282 0.92195 0.838985
733 1 0.498287 1.00522 0.827766
589 1 0.513215 1.01029 0.672403
712 1 0.502462 0.922833 0.74745
710 1 0.582539 0.921672 0.665939
716 1 0.663736 0.935728 0.741285
854 1 0.589167 0.933029 0.817358
593 1 0.653733 0.0179413 0.659726
713 1 0.659586 0.841077 0.676476
595 1 0.749676 0.0203336 0.72537
857 1 0.667135 0.8551 0.833301
715 1 0.752461 0.832052 0.741541
858 1 0.744272 0.933118 0.806974
717 1 0.844666 0.846589 0.683321
700 1 1.00211 0.91064 0.746879
720 1 0.841946 0.914794 0.754418
719 1 0.920192 0.829409 0.751904
862 1 0.91879 0.912391 0.836708
861 1 0.8361 0.838965 0.827212
841 1 -0.0120471 0.839066 0.82677
722 1 0.0824152 0.0914572 0.838867
724 1 0.00393296 0.0846759 0.929184
747 1 0.0847956 0.186317 0.908084
728 1 0.164877 0.0851182 0.914275
749 1 0.168883 0.18455 0.828897
726 1 0.26096 0.0741493 0.825422
729 1 0.332999 -0.00551398 0.832579
732 1 0.333227 0.0815764 0.912975
755 1 0.423046 0.158373 0.922519
731 1 0.419839 1.01053 0.913831
37 1 0.503812 0.152208 1.00623
13 1 0.493297 0.982645 -0.00596449
14 1 0.595313 0.0723165 0.980122
736 1 0.504321 0.0804385 0.910688
740 1 0.679798 0.0810235 0.915447
759 1 0.600293 0.175042 0.927805
741 1 0.843254 0.00914055 0.818838
18 1 0.752254 0.084717 1.00742
738 1 0.768972 0.100667 0.833509
744 1 0.835976 0.0993153 0.929388
739 1 0.763943 1.00383 0.904924
1 1 1.00604 0.99616 0.99455
22 1 0.91953 0.0826356 0.994574
25 1 0.992852 0.170287 0.987447
721 1 0.985565 0.00184309 0.841192
742 1 0.911839 0.0973987 0.832121
767 1 0.907561 0.173147 0.912298
743 1 0.910192 1.0217 0.909396
745 1 1.00104 0.162289 0.8446
49 1 0.997959 0.348629 0.985942
748 1 0.00143049 0.261383 0.910965
33 1 0.332579 0.168007 0.989656
773 1 0.164835 0.31978 0.838477
753 1 0.330046 0.170965 0.834129
752 1 0.174307 0.247118 0.920827
751 1 0.237024 0.160927 0.905724
756 1 0.335187 0.249894 0.910681
34 1 0.416843 0.25119 0.993349
777 1 0.350503 0.32522 0.827433
779 1 0.420707 0.33313 0.916448
61 1 0.510688 0.318078 1.00037
41 1 0.677713 0.1563 1.00648
38 1 0.589967 0.247509 0.00217441
757 1 0.505365 0.165812 0.839032
760 1 0.514111 0.246404 0.921328
764 1 0.664237 0.255612 0.910949
42 1 0.747596 0.262755 1.0021
45 1 0.825937 0.185724 0.986961
765 1 0.84404 0.186639 0.829412
65 1 0.65785 0.336773 0.0102194
763 1 0.739781 0.174238 0.921179
787 1 0.727826 0.345362 0.91962
46 1 0.913084 0.258148 0.989524
766 1 0.938507 0.256177 0.818503
768 1 0.839818 0.264174 0.911857
771 1 0.0775958 0.341725 0.918927
772 1 0.00259661 0.424364 0.890145
795 1 0.0839347 0.487726 0.913029
776 1 0.170775 0.413181 0.899139
54 1 0.253553 0.429058 0.998162
775 1 0.25444 0.332412 0.909703
780 1 0.344672 0.408152 0.916963
799 1 0.255455 0.500611 0.901923
58 1 0.418034 0.421995 0.000925232
784 1 0.498446 0.408588 0.92571
783 1 0.588279 0.350716 0.922716
788 1 0.654433 0.429907 0.912631
807 1 0.57114 0.504356 0.925868
85 1 0.519087 0.505972 0.00927335
89 1 0.664337 0.505908 1.00482
786 1 0.747806 0.417653 0.817431
66 1 0.733985 0.423498 0.999949
792 1 0.821871 0.443104 0.923931
791 1 0.907918 0.348187 0.912257
93 1 0.827977 0.508659 0.0125453
815 1 0.913987 0.49105 0.907164
74 1 0.0766043 0.588134 0.00273769
796 1 1.01359 0.573926 0.92842
78 1 0.25055 0.582998 0.98343
800 1 0.162124 0.583151 0.91257
81 1 0.339489 0.495752 0.984579
101 1 0.154346 0.668825 0.988366
804 1 0.334584 0.577702 0.905997
803 1 0.437866 0.501078 0.912787
827 1 0.411798 0.667065 0.914475
105 1 0.321918 0.658312 0.000256401
109 1 0.511573 0.676968 0.992429
86 1 0.585111 0.584162 0.00925598
808 1 0.504149 0.58566 0.911606
831 1 0.580371 0.664896 0.90625
812 1 0.658822 0.580066 0.909894
811 1 0.739723 0.505651 0.920534
90 1 0.740413 0.592473 0.994336
113 1 0.665102 0.66862 -0.0079419
835 1 0.735101 0.670477 0.922477
816 1 0.827013 0.587867 0.924352
94 1 0.916017 0.577285 -0.0107779
814 1 0.918182 0.58946 0.826459
98 1 0.0750394 0.747194 0.995919
819 1 0.0765566 0.660526 0.922881
125 1 0.16198 0.832878 1.00227
824 1 0.180291 0.743829 0.915346
97 1 0.988959 0.672207 -0.00682618
820 1 1.01517 0.757522 0.906492
102 1 0.232643 0.745279 0.000715493
823 1 0.243994 0.672357 0.910405
129 1 0.335745 0.828799 0.993651
847 1 0.243956 0.824182 0.929952
828 1 0.332689 0.74468 0.927838
106 1 0.425484 0.741938 0.99325
832 1 0.500282 0.750181 0.915985
133 1 0.49919 0.832986 0.981625
851 1 0.415012 0.813089 0.918468
110 1 0.582741 0.755772 0.99118
137 1 0.678224 0.850531 0.997275
855 1 0.584856 0.832232 0.915542
141 1 0.832863 0.831768 0.989299
834 1 0.739449 0.763626 0.843592
114 1 0.755155 0.758498 0.991687
836 1 0.659061 0.763243 0.924984
117 1 0.818604 0.675914 -0.00958663
839 1 0.911347 0.674009 0.922292
840 1 0.830252 0.75845 0.904889
118 1 0.904865 0.758066 0.000126263
121 1 -0.00443039 0.832968 -0.00325603
723 1 0.0783816 0.00630595 0.901316
843 1 0.0757287 0.841743 0.910429
126 1 0.256787 0.936211 1.01783
727 1 0.239757 0.00444041 0.902718
848 1 0.167264 0.918248 0.903714
852 1 0.310833 0.920308 0.909785
130 1 0.414128 0.904944 0.974527
856 1 0.495481 0.914259 0.906578
134 1 0.58247 0.905831 0.996901
735 1 0.585787 0.984437 0.915706
737 1 0.683605 0.0126571 0.834574
859 1 0.747334 0.851197 0.916519
860 1 0.674992 0.933937 0.90894
138 1 0.759104 0.914189 0.00663719
864 1 0.840543 0.919294 0.913487
142 1 0.921535 0.915398 -0.00136157
844 1 0.99523 0.917329 0.916692
863 1 0.92199 0.826686 0.918081
