ITEM: TIMESTEP
2000
ITEM: NUMBER OF ATOMS
864
ITEM: BOX BOUNDS pp pp pp
0.0000000000000000e+00 3.1559999999999999e+01
0.0000000000000000e+00 3.1559999999999999e+01
0.0000000000000000e+00 3.1559999999999999e+01
ITEM: ATOMS id type xs ys zs
3 1 0.0903042 0.991163 0.0822295
8 1 0.156991 0.0894389 0.0780851
146 1 0.0966708 0.0766206 0.163594
173 1 0.171427 0.160623 0.161045
7 1 0.239688 0.00321626 0.086255
149 1 0.160836 0.987712 0.163445
10 1 0.416745 0.0943066 0.988003
11 1 0.397588 0.0153433 0.0822963
12 1 0.316586 0.0789477 0.0795532
13 1 0.490435 0.00165146 0.99616
14 1 0.590049 0.0880634 0.00187219
15 1 0.574849 0.00391579 0.0818118
16 1 0.482393 0.0765981 0.076895
37 1 0.495635 0.169839 -0.000938404
157 1 0.487315 0.995598 0.164108
158 1 0.587998 0.0767461 0.16478
19 1 0.744863 -0.00764754 0.084928
20 1 0.681672 0.0883197 0.0748137
161 1 0.681148 0.999419 0.171462
162 1 0.758698 0.0742938 0.166675
189 1 0.829712 0.163019 0.174772
4 1 0.00840274 0.0829745 0.0830098
24 1 0.842966 0.080743 0.0939492
45 1 0.819108 0.172076 0.00355101
47 1 0.911536 0.170167 0.0829625
27 1 0.0785185 0.162341 0.0776084
29 1 0.168543 0.173729 0.996531
51 1 0.0741982 0.329254 0.0708129
53 1 0.167455 0.343708 1.00678
193 1 0.987803 0.329785 0.16986
31 1 0.253614 0.164778 0.0808039
32 1 0.153172 0.248874 0.0938098
36 1 0.340667 0.239978 0.0788645
177 1 0.333207 0.164663 0.169687
34 1 0.413081 0.257479 0.992689
35 1 0.414977 0.170048 0.0702293
59 1 0.412538 0.330913 0.0701857
205 1 0.503639 0.337866 0.160756
38 1 0.578863 0.260675 0.998598
39 1 0.588228 0.16352 0.0974774
40 1 0.504517 0.244461 0.082147
41 1 0.679036 0.162155 0.00555055
182 1 0.59643 0.233942 0.167795
42 1 0.75317 0.25685 -0.00415534
43 1 0.757648 0.164802 0.0944607
44 1 0.677726 0.251409 0.0829349
48 1 0.836966 0.260998 0.0877241
67 1 0.760994 0.348271 0.0837614
28 1 0.989562 0.254091 0.0720231
71 1 0.900882 0.350743 0.067841
52 1 0.994877 0.397984 0.0898861
73 1 0.985759 0.49883 0.979804
75 1 0.0748232 0.505823 0.0870888
194 1 0.0811505 0.410749 0.148752
54 1 0.252048 0.419842 0.998307
55 1 0.24799 0.330803 0.0745381
56 1 0.166349 0.423827 0.0816195
79 1 0.247135 0.502185 0.0776699
197 1 0.172117 0.335437 0.156147
198 1 0.24823 0.414173 0.148976
60 1 0.337378 0.413406 0.0867693
64 1 0.504152 0.415222 0.0775509
83 1 0.411723 0.506305 0.0823142
85 1 0.501356 0.498589 1.00216
63 1 0.581165 0.332138 0.0876103
87 1 0.579467 0.50459 0.0770894
89 1 0.657558 0.515352 1.00514
206 1 0.594686 0.40424 0.174197
233 1 0.667381 0.490242 0.164363
65 1 0.671082 0.341835 -0.00722567
66 1 0.757751 0.424015 -0.0104807
68 1 0.677251 0.41861 0.085106
69 1 0.826287 0.342695 0.98769
70 1 0.923202 0.407433 0.978703
72 1 0.84118 0.431925 0.0729743
99 1 0.10324 0.664854 0.0890316
217 1 0.997098 0.49541 0.168466
80 1 0.178463 0.58092 0.0872565
81 1 0.33133 0.498473 0.00412386
82 1 0.398058 0.600942 1.00242
84 1 0.333664 0.577995 0.0940002
107 1 0.409121 0.658456 0.0881819
226 1 0.417486 0.578006 0.170662
229 1 0.50208 0.49254 0.150777
88 1 0.487813 0.581695 0.0709056
92 1 0.667154 0.59742 0.0828596
111 1 0.565921 0.667231 0.0859822
253 1 0.498135 0.677651 0.158958
91 1 0.742715 0.508874 0.0807526
96 1 0.827937 0.572609 0.0654778
115 1 0.758521 0.663275 0.0684643
76 1 1.00657 0.590615 0.0823256
94 1 0.917425 0.579657 1.00077
95 1 0.928295 0.507239 0.0802035
119 1 0.904547 0.657058 0.0716455
261 1 0.823061 0.665868 0.154483
98 1 0.0944903 0.758344 0.00968514
100 1 0.0137973 0.746637 0.0894318
242 1 0.0835123 0.758563 0.164913
101 1 0.174965 0.685304 -0.00471728
102 1 0.261463 0.76056 -0.00621874
103 1 0.253621 0.660747 0.066785
104 1 0.175944 0.753971 0.0876563
245 1 0.171419 0.671667 0.170254
246 1 0.256302 0.7585 0.176603
108 1 0.325094 0.750558 0.0892489
250 1 0.403721 0.746365 0.15648
112 1 0.499393 0.756994 0.0666147
113 1 0.666192 0.680405 1.00647
116 1 0.677833 0.74052 0.0887966
137 1 0.662345 0.829624 0.0223064
114 1 0.753517 0.765195 0.999848
117 1 0.848365 0.663651 0.974918
120 1 0.833828 0.742495 0.0733146
258 1 0.754843 0.760648 0.167465
97 1 0.990349 0.66605 0.01491
118 1 0.93545 0.772791 0.986169
262 1 0.920294 0.744028 0.146801
265 1 0.985408 0.850505 0.164707
122 1 0.0792383 0.925192 0.990418
123 1 0.0894506 0.833663 0.0906061
266 1 0.0733512 0.920354 0.169397
127 1 0.247247 0.848755 0.0686311
128 1 0.16985 0.91781 0.0744945
270 1 0.256738 0.908255 0.167292
129 1 0.333094 0.84887 0.00193136
131 1 0.411766 0.83308 0.0898399
132 1 0.334846 0.919497 0.0761926
134 1 0.576922 0.914876 0.00167606
135 1 0.570687 0.842306 0.0824575
136 1 0.484261 0.920387 0.0843225
140 1 0.647787 0.927573 0.0844738
139 1 0.75685 0.835694 0.0821814
144 1 0.84479 0.913939 0.0772245
282 1 0.751262 0.912319 0.152504
285 1 0.845578 0.830598 0.155157
23 1 0.929189 0.00875825 0.0838377
124 1 0.993302 0.925078 0.0734303
143 1 0.925767 0.841059 0.0700459
145 1 0.00907629 0.00622698 0.160574
165 1 0.834817 0.993086 0.144095
286 1 0.913696 0.927562 0.163378
148 1 0.00452822 0.0907025 0.250091
152 1 0.174529 0.0842861 0.233975
290 1 0.111179 0.0813424 0.323844
313 1 0.021298 0.147401 0.332856
150 1 0.255081 0.0886694 0.166308
151 1 0.255961 1.01989 0.244951
153 1 0.3372 -0.0110072 0.16707
154 1 0.419737 0.0958168 0.156016
155 1 0.399155 1.00069 0.251644
156 1 0.332436 0.0829004 0.251508
160 1 0.48456 0.0824497 0.237562
159 1 0.584138 0.00329952 0.242717
329 1 0.674254 0.160758 0.329431
164 1 0.668139 0.079232 0.234618
168 1 0.830015 0.0613532 0.246485
187 1 0.756119 0.148905 0.251756
306 1 0.757305 0.0817336 0.328039
333 1 0.843329 0.153504 0.335177
166 1 0.918506 0.0853328 0.170072
191 1 0.914224 0.156182 0.256503
310 1 0.913469 0.065631 0.323578
169 1 -0.0145965 0.169866 0.167972
170 1 0.0642564 0.246997 0.155089
171 1 0.0861759 0.171963 0.233171
172 1 -0.0118448 0.242863 0.254749
174 1 0.25877 0.248285 0.149985
175 1 0.250219 0.167851 0.249025
176 1 0.163075 0.246901 0.240227
180 1 0.337617 0.246998 0.238792
201 1 0.332793 0.325124 0.163858
178 1 0.420312 0.231321 0.155495
179 1 0.41765 0.161008 0.248638
203 1 0.421751 0.320691 0.232681
345 1 0.346013 0.328468 0.314958
181 1 0.502015 0.156082 0.158637
183 1 0.584445 0.151056 0.246937
184 1 0.50923 0.247741 0.239734
185 1 0.674193 0.159252 0.160406
188 1 0.675964 0.237026 0.228974
349 1 0.506316 0.319434 0.325445
186 1 0.755193 0.247113 0.163928
211 1 0.752917 0.315956 0.251213
190 1 0.912679 0.239531 0.177391
192 1 0.832163 0.247077 0.255872
213 1 0.844367 0.344818 0.165987
334 1 0.920135 0.230691 0.338236
195 1 0.0754857 0.330448 0.223994
196 1 1.0084 0.421532 0.260577
219 1 0.0858576 0.492378 0.240749
338 1 0.0789789 0.421148 0.337314
341 1 0.160147 0.328893 0.312861
199 1 0.2367 0.327804 0.234481
200 1 0.160933 0.411014 0.230172
225 1 0.319668 0.499479 0.18216
202 1 0.403217 0.425835 0.164292
204 1 0.313798 0.40812 0.234678
208 1 0.523282 0.40283 0.260377
227 1 0.425052 0.49524 0.248171
373 1 0.522457 0.503802 0.316259
207 1 0.586114 0.308947 0.255141
231 1 0.595001 0.500022 0.242811
209 1 0.669384 0.327488 0.178476
210 1 0.763332 0.427862 0.178276
212 1 0.68616 0.41759 0.244951
235 1 0.755117 0.497853 0.249593
214 1 0.918565 0.418005 0.180385
215 1 0.923012 0.328009 0.252385
216 1 0.843925 0.42315 0.262572
358 1 0.922103 0.421081 0.334423
381 1 0.847632 0.499765 0.332035
218 1 0.0904647 0.581209 0.175923
220 1 0.999144 0.587976 0.237506
362 1 0.0704789 0.582795 0.326011
221 1 0.170583 0.498731 0.154826
222 1 0.248074 0.567638 0.176006
223 1 0.229454 0.492404 0.243744
224 1 0.16996 0.579583 0.239307
366 1 0.251689 0.594259 0.322656
369 1 0.318589 0.49837 0.304227
228 1 0.339935 0.592271 0.261161
249 1 0.305134 0.662985 0.161837
251 1 0.419172 0.669692 0.257169
370 1 0.417091 0.58497 0.328727
397 1 0.502302 0.668603 0.325748
230 1 0.56959 0.585652 0.164304
232 1 0.498591 0.587295 0.251543
255 1 0.580945 0.679287 0.239952
257 1 0.65266 0.650244 0.177963
374 1 0.591618 0.594428 0.3114
234 1 0.742959 0.586956 0.160044
236 1 0.677034 0.563042 0.244008
237 1 0.83594 0.510742 0.156454
259 1 0.740272 0.664289 0.232923
378 1 0.750004 0.59622 0.313263
401 1 0.668982 0.677187 0.344163
238 1 0.906556 0.588215 0.158704
239 1 0.919086 0.505449 0.242971
240 1 0.842197 0.582688 0.242412
263 1 0.909506 0.667705 0.243723
382 1 0.929021 0.59189 0.322536
241 1 -0.00401845 0.678852 0.170108
243 1 0.0790216 0.66608 0.247181
244 1 0.983932 0.770933 0.235556
248 1 0.156802 0.750063 0.262906
385 1 1.00298 0.673063 0.325994
386 1 0.059302 0.761167 0.326232
389 1 0.157107 0.653733 0.323659
247 1 0.243039 0.693079 0.263103
252 1 0.336042 0.762366 0.266509
390 1 0.256236 0.759731 0.348759
256 1 0.504095 0.749253 0.241552
275 1 0.421393 0.833066 0.24649
394 1 0.417272 0.757772 0.330295
417 1 0.333947 0.843282 0.343864
254 1 0.588327 0.761793 0.147391
260 1 0.667132 0.747511 0.238652
279 1 0.591144 0.825586 0.241387
398 1 0.591986 0.75769 0.320619
421 1 0.503344 0.826884 0.335119
264 1 0.839176 0.766795 0.241553
402 1 0.74936 0.747004 0.301356
425 1 0.669627 0.830316 0.315805
405 1 0.834129 0.672111 0.325536
406 1 0.927383 0.757385 0.327317
409 1 1.01071 0.854682 0.331458
429 1 0.84017 0.832284 0.325882
147 1 0.0880639 0.00461292 0.257677
267 1 0.0923913 0.847825 0.250896
272 1 0.17722 0.918381 0.24894
289 1 0.000613824 0.0177255 0.328758
410 1 0.086895 0.929555 0.340586
413 1 0.157649 0.836495 0.348122
269 1 0.165835 0.828717 0.174879
271 1 0.248448 0.832891 0.268501
293 1 0.186464 1.00216 0.321759
414 1 0.26855 0.937163 0.330341
273 1 0.327048 0.826433 0.174763
274 1 0.414738 0.917385 0.169674
276 1 0.342517 0.9006 0.246769
277 1 0.482325 0.837102 0.158588
418 1 0.440374 0.919005 0.338542
278 1 0.583038 0.918515 0.178813
280 1 0.49845 0.918101 0.249503
281 1 0.672565 0.83038 0.156891
284 1 0.669349 0.912392 0.244237
422 1 0.576867 0.912439 0.318096
163 1 0.752245 0.988868 0.25022
283 1 0.755795 0.837789 0.24125
288 1 0.83626 0.926083 0.239174
426 1 0.750318 0.905885 0.318539
167 1 0.921142 -0.000715925 0.232662
268 1 -0.00572741 0.920913 0.254049
287 1 0.921308 0.853123 0.254398
291 1 0.0926954 0.0126957 0.414228
457 1 -0.012594 0.17386 0.495712
294 1 0.249169 0.0886485 0.319526
296 1 0.182017 0.101909 0.400819
317 1 0.178343 0.186658 0.326388
461 1 0.181587 0.178958 0.496753
297 1 0.324707 0.019311 0.351139
298 1 0.423113 0.0668677 0.326076
300 1 0.324436 0.0877512 0.428279
301 1 0.5105 1.01089 0.317207
304 1 0.499324 0.0893205 0.413943
442 1 0.425694 0.0822558 0.491713
469 1 0.498866 0.159277 0.501706
302 1 0.592498 0.0755564 0.328487
303 1 0.579293 0.999112 0.418551
308 1 0.66664 0.0731266 0.413698
449 1 0.658648 0.981799 0.495926
305 1 0.66695 0.00715789 0.314798
450 1 0.751872 0.0785192 0.507152
473 1 0.671084 0.149544 0.48827
292 1 0.000998836 0.0806122 0.42183
312 1 0.838594 0.073491 0.420988
314 1 0.0803648 0.23845 0.313336
315 1 0.10054 0.181283 0.41876
481 1 0.993859 0.31534 0.492001
318 1 0.260202 0.251746 0.317768
319 1 0.250281 0.188337 0.416302
320 1 0.162844 0.258161 0.413127
324 1 0.346976 0.252013 0.413773
321 1 0.33631 0.174678 0.329219
322 1 0.422182 0.246637 0.32838
323 1 0.411781 0.157164 0.415665
328 1 0.501508 0.244472 0.406852
466 1 0.42927 0.248713 0.486844
325 1 0.509046 0.158838 0.331978
326 1 0.585143 0.232651 0.321125
327 1 0.58869 0.168093 0.412236
351 1 0.592545 0.335891 0.400476
330 1 0.764909 0.230593 0.332008
331 1 0.747361 0.168296 0.41197
332 1 0.665872 0.244781 0.420975
474 1 0.758228 0.247045 0.496042
316 1 1.0092 0.234513 0.404156
335 1 0.920159 0.156015 0.414136
336 1 0.845774 0.240175 0.413907
357 1 0.835293 0.333433 0.330838
359 1 0.928148 0.330932 0.402238
337 1 0.0173094 0.32399 0.32835
339 1 0.0714861 0.33787 0.420427
363 1 0.0758576 0.503026 0.418907
342 1 0.225515 0.422663 0.329018
343 1 0.269536 0.326827 0.394001
344 1 0.161451 0.409248 0.410016
485 1 0.169648 0.34075 0.488718
489 1 0.335784 0.352471 0.494985
346 1 0.432296 0.405061 0.319125
347 1 0.429119 0.325061 0.409846
348 1 0.341994 0.412591 0.397794
352 1 0.521144 0.417538 0.409189
350 1 0.608306 0.422413 0.329011
356 1 0.672912 0.418474 0.421227
353 1 0.67073 0.327173 0.319998
354 1 0.759934 0.409058 0.328672
355 1 0.746573 0.331866 0.429682
377 1 0.689151 0.50119 0.338031
498 1 0.756204 0.412225 0.500413
340 1 0.995699 0.425381 0.409628
360 1 0.842498 0.412598 0.395449
383 1 0.907564 0.513348 0.420902
501 1 0.826885 0.330866 0.526604
361 1 1.00233 0.502826 0.331277
364 1 0.996672 0.580534 0.434083
365 1 0.148472 0.493819 0.331814
506 1 0.073314 0.576093 0.51145
529 1 0.0114385 0.66397 0.504764
367 1 0.241534 0.505394 0.403784
368 1 0.168914 0.584843 0.41165
372 1 0.337433 0.563041 0.39862
509 1 0.159629 0.499337 0.492991
510 1 0.242166 0.567779 0.494552
371 1 0.422992 0.485148 0.395747
376 1 0.511856 0.581382 0.395221
395 1 0.421845 0.66688 0.40484
514 1 0.427508 0.578181 0.468854
375 1 0.586542 0.500978 0.413661
380 1 0.664675 0.582434 0.398711
399 1 0.576746 0.67774 0.402157
518 1 0.598599 0.579746 0.490363
545 1 0.669855 0.670973 0.485394
379 1 0.766178 0.502222 0.418061
403 1 0.761293 0.671604 0.408123
521 1 0.66663 0.489716 0.505377
522 1 0.732538 0.585334 0.508519
384 1 0.827231 0.592627 0.402665
407 1 0.903512 0.672901 0.402517
526 1 0.924349 0.600568 0.512049
387 1 0.0706116 0.653738 0.419279
530 1 0.0909401 0.753522 0.505997
557 1 0.160428 0.827359 0.503914
391 1 0.227141 0.67307 0.420413
392 1 0.14404 0.73223 0.413581
396 1 0.33843 0.764912 0.425233
533 1 0.158406 0.666174 0.512881
534 1 0.23953 0.747429 0.505082
393 1 0.332898 0.662871 0.346712
400 1 0.506165 0.755049 0.419291
419 1 0.420905 0.846452 0.428261
404 1 0.673779 0.759983 0.416301
423 1 0.603634 0.8447 0.397051
542 1 0.596095 0.75623 0.488491
569 1 0.67626 0.827303 0.502238
408 1 0.814324 0.75729 0.400307
549 1 0.826855 0.646965 0.497295
388 1 -0.00381087 0.73834 0.425836
431 1 0.948683 0.831554 0.432715
550 1 0.913709 0.743531 0.498066
411 1 0.0663902 0.83067 0.430933
412 1 0.00785735 0.938291 0.415833
416 1 0.172305 0.919718 0.420474
433 1 1.01954 0.000550687 0.507506
553 1 0.0090051 0.839899 0.518611
554 1 0.0884762 0.915912 0.50591
295 1 0.232325 0.001263 0.416699
415 1 0.258754 0.842195 0.428179
437 1 0.17261 0.00530451 0.507529
441 1 0.337673 1.00949 0.491799
299 1 0.434812 -0.0131894 0.421447
420 1 0.329478 0.922704 0.419938
424 1 0.513458 0.910574 0.412136
445 1 0.493879 0.985838 0.503443
561 1 0.326938 0.837485 0.50067
562 1 0.413572 0.917267 0.50942
428 1 0.668624 0.924337 0.392224
565 1 0.497464 0.83625 0.505412
566 1 0.586153 0.900167 0.500437
307 1 0.754074 1.0054 0.416756
427 1 0.734952 0.845146 0.398377
453 1 0.829825 1.00117 0.508905
570 1 0.761327 0.913404 0.496762
573 1 0.845956 0.827362 0.483003
309 1 0.824147 1.00066 0.336896
311 1 0.923917 0.00640392 0.437383
430 1 0.913888 0.928736 0.338198
432 1 0.847322 0.922325 0.419384
434 1 0.104671 0.0945493 0.488832
435 1 0.0892381 1.00928 0.582181
440 1 0.167176 0.100759 0.579921
578 1 0.0820694 0.0850757 0.657074
601 1 0.00777529 0.175373 0.669661
438 1 0.243669 0.0939738 0.506171
439 1 0.252145 0.0084657 0.572356
463 1 0.252332 0.185758 0.569202
605 1 0.163517 0.177537 0.660767
444 1 0.334522 0.087697 0.564423
467 1 0.409508 0.158163 0.591107
585 1 0.33007 0.0126931 0.673592
586 1 0.414505 0.0833794 0.666573
446 1 0.585616 0.0775998 0.500549
447 1 0.574873 0.979458 0.597193
448 1 0.498898 0.0785107 0.578582
452 1 0.658121 0.072952 0.57963
471 1 0.586835 0.16062 0.57926
456 1 0.835016 0.0796557 0.583566
475 1 0.741211 0.169772 0.577569
594 1 0.738599 0.0817065 0.670135
436 1 0.00132342 0.081179 0.578275
454 1 0.914767 0.0896325 0.505235
477 1 0.82183 0.160043 0.509218
479 1 0.926265 0.169091 0.586556
577 1 1.0058 -0.00430207 0.666304
621 1 0.821188 0.16416 0.684847
458 1 0.0833179 0.255694 0.491969
459 1 0.0756668 0.16874 0.572381
464 1 0.162012 0.250637 0.583628
483 1 0.0807721 0.336693 0.572676
462 1 0.253334 0.267241 0.493559
465 1 0.340026 0.177371 0.493701
468 1 0.343241 0.264988 0.560004
487 1 0.248998 0.345013 0.567483
633 1 0.341343 0.339085 0.667202
472 1 0.495725 0.247444 0.576434
610 1 0.40874 0.245513 0.648629
470 1 0.584489 0.239935 0.504397
495 1 0.577385 0.329668 0.574477
476 1 0.652793 0.251284 0.58333
460 1 0.995622 0.256092 0.594409
478 1 0.896748 0.239273 0.503882
480 1 0.823816 0.237299 0.590489
503 1 0.905991 0.33187 0.600423
482 1 0.0714938 0.416113 0.508915
484 1 0.990581 0.411265 0.581821
488 1 0.167545 0.423252 0.578603
505 1 0.9791 0.486227 0.513562
486 1 0.250878 0.423487 0.498844
492 1 0.348929 0.409584 0.58291
653 1 0.155367 0.517829 0.666061
657 1 0.325776 0.513101 0.674833
490 1 0.431683 0.417336 0.49395
491 1 0.426856 0.32666 0.576829
634 1 0.432931 0.410747 0.66256
661 1 0.5048 0.513237 0.660877
493 1 0.52098 0.325932 0.47962
494 1 0.591977 0.412671 0.506443
496 1 0.50338 0.420135 0.576458
500 1 0.658082 0.419179 0.586354
637 1 0.507947 0.330581 0.667471
638 1 0.568622 0.431555 0.659865
665 1 0.669019 0.488667 0.671939
497 1 0.666099 0.329999 0.514424
499 1 0.745343 0.332434 0.610224
504 1 0.819541 0.41557 0.596106
502 1 0.898622 0.411721 0.488656
645 1 0.823504 0.319974 0.676592
646 1 0.909962 0.418138 0.673489
507 1 0.0923702 0.506199 0.58264
508 1 -0.0061429 0.590506 0.592708
531 1 0.0795282 0.678568 0.591839
650 1 0.0731618 0.599342 0.664093
511 1 0.222056 0.508593 0.588058
512 1 0.158519 0.600355 0.591169
513 1 0.343237 0.489475 0.483032
535 1 0.243431 0.665433 0.576876
654 1 0.246196 0.589291 0.670381
515 1 0.435989 0.502784 0.562027
516 1 0.329944 0.573818 0.589823
517 1 0.5046 0.503501 0.484761
658 1 0.417295 0.569163 0.680574
685 1 0.483273 0.655299 0.671889
519 1 0.591711 0.502263 0.579158
520 1 0.501432 0.588924 0.561163
523 1 0.741761 0.497112 0.593601
524 1 0.658415 0.580508 0.576243
528 1 0.829749 0.587596 0.605152
666 1 0.722018 0.586461 0.662647
693 1 0.827807 0.686524 0.660635
525 1 0.822934 0.511932 0.501241
527 1 0.89576 0.508145 0.577172
551 1 0.925216 0.681263 0.584731
649 1 0.990523 0.496171 0.662295
669 1 0.818013 0.496469 0.659015
532 1 0.999753 0.747729 0.573367
536 1 0.171248 0.747584 0.583366
674 1 0.090877 0.751332 0.666572
540 1 0.327048 0.727595 0.572587
677 1 0.160249 0.671924 0.680703
537 1 0.324437 0.65564 0.483719
538 1 0.418727 0.731485 0.490851
539 1 0.407958 0.648597 0.560951
541 1 0.516921 0.656772 0.484302
681 1 0.323921 0.657164 0.656414
543 1 0.586978 0.661573 0.571565
544 1 0.494126 0.729442 0.588163
548 1 0.661334 0.749598 0.580772
567 1 0.581484 0.832979 0.600526
546 1 0.753173 0.747407 0.491429
547 1 0.746782 0.663704 0.57449
552 1 0.834233 0.748013 0.572536
689 1 0.672907 0.681321 0.65934
690 1 0.744857 0.753598 0.65494
575 1 0.918255 0.827245 0.587466
697 1 1.00728 0.824487 0.653283
555 1 0.0979292 0.82838 0.590311
556 1 0.991665 0.924597 0.573418
698 1 0.0838795 0.916592 0.653373
701 1 0.180229 0.824362 0.662011
558 1 0.25086 0.926966 0.510344
559 1 0.254255 0.822517 0.57379
560 1 0.178671 0.900368 0.589434
443 1 0.402764 0.00133562 0.588676
563 1 0.40932 0.811264 0.584295
564 1 0.32657 0.917838 0.588771
705 1 0.329732 0.826222 0.676695
568 1 0.497765 0.911618 0.58903
572 1 0.67173 0.914244 0.570539
589 1 0.482375 0.993284 0.666756
593 1 0.667187 0.974061 0.669174
713 1 0.683555 0.835532 0.666185
451 1 0.752951 0.00219029 0.58826
571 1 0.75955 0.831491 0.570545
714 1 0.761308 0.915745 0.64787
455 1 0.930534 0.00423932 0.581116
574 1 0.908966 0.90505 0.494794
576 1 0.853429 0.925886 0.580826
597 1 0.845502 -0.00250651 0.65691
718 1 0.921073 0.91159 0.659774
579 1 0.0906343 0.99489 0.743361
584 1 0.159291 0.084978 0.744983
603 1 0.0954345 0.168783 0.741157
749 1 0.167293 0.175339 0.823269
582 1 0.259159 0.0938838 0.649358
583 1 0.243394 1.02205 0.741153
607 1 0.233855 0.162167 0.747802
609 1 0.320445 0.171766 0.664293
726 1 0.250916 0.0890472 0.828268
588 1 0.330975 0.0967513 0.742402
592 1 0.490184 0.0792507 0.736985
753 1 0.332418 0.165656 0.82823
590 1 0.577143 0.0704932 0.651487
591 1 0.5675 0.00101333 0.74425
615 1 0.580244 0.171087 0.746698
595 1 0.76239 0.999355 0.751856
596 1 0.652613 0.0695247 0.744241
619 1 0.739234 0.160731 0.761276
737 1 0.650528 0.00268309 0.840591
738 1 0.73503 0.0809922 0.827334
761 1 0.66573 0.172331 0.836647
580 1 0.0103273 0.079509 0.74593
598 1 0.914467 0.100131 0.668407
600 1 0.839911 0.0789982 0.746205
741 1 0.838802 0.00264959 0.83605
742 1 0.936982 0.079535 0.839343
602 1 0.080479 0.259172 0.650258
608 1 0.17747 0.262912 0.736581
606 1 0.253475 0.258082 0.658866
612 1 0.341834 0.267251 0.7354
631 1 0.256789 0.341504 0.735881
777 1 0.330535 0.341718 0.830557
611 1 0.413376 0.167659 0.737647
616 1 0.497761 0.251526 0.728816
754 1 0.418894 0.251199 0.827228
781 1 0.496299 0.328959 0.831962
613 1 0.502278 0.153013 0.659497
614 1 0.585236 0.241773 0.66573
617 1 0.661934 0.166717 0.659894
758 1 0.576476 0.245601 0.833123
618 1 0.746357 0.242018 0.672566
620 1 0.664165 0.244217 0.754724
604 1 0.0136801 0.254333 0.746874
622 1 0.911306 0.245889 0.686747
623 1 0.928349 0.165083 0.75456
624 1 0.829064 0.241485 0.768108
765 1 0.833467 0.143182 0.832932
625 1 0.990294 0.333587 0.665544
626 1 0.0688099 0.41186 0.670048
627 1 0.0924689 0.335319 0.731415
628 1 0.990876 0.414305 0.752416
629 1 0.171286 0.342715 0.645933
630 1 0.25795 0.414493 0.648573
632 1 0.168193 0.418543 0.725711
636 1 0.334053 0.419804 0.744458
635 1 0.429523 0.346779 0.740062
640 1 0.519539 0.429283 0.759016
659 1 0.436099 0.480543 0.741845
639 1 0.580017 0.331607 0.748227
782 1 0.586854 0.411803 0.850524
641 1 0.647585 0.334313 0.663161
642 1 0.749002 0.423041 0.686502
643 1 0.743606 0.33226 0.746782
644 1 0.642292 0.416588 0.757548
648 1 0.842997 0.406896 0.765601
667 1 0.740058 0.518588 0.764015
785 1 0.647199 0.328239 0.829168
647 1 0.913874 0.330674 0.755703
671 1 0.917548 0.499016 0.743294
789 1 0.831412 0.323077 0.825366
790 1 0.912884 0.424682 0.841054
651 1 0.0685202 0.500998 0.740443
655 1 0.242045 0.502031 0.757959
656 1 0.160657 0.581584 0.753438
660 1 0.322095 0.588389 0.761475
798 1 0.251869 0.586301 0.837687
664 1 0.513662 0.593427 0.761603
802 1 0.412415 0.591978 0.842697
829 1 0.503602 0.680873 0.835143
662 1 0.587486 0.593058 0.65624
663 1 0.587377 0.511052 0.738313
687 1 0.590667 0.672798 0.746162
668 1 0.669675 0.600703 0.759326
672 1 0.832947 0.58975 0.737805
652 1 1.00034 0.594281 0.747773
670 1 0.918122 0.582194 0.673899
793 1 0.995722 0.496811 0.819621
673 1 -0.0111231 0.67624 0.674795
675 1 0.0848469 0.660845 0.755225
676 1 0.00148347 0.759886 0.7453
678 1 0.252007 0.750964 0.656114
679 1 0.247903 0.660586 0.745724
680 1 0.172835 0.760515 0.758667
684 1 0.327075 0.744465 0.752007
821 1 0.174334 0.663529 0.829984
822 1 0.254622 0.745454 0.839125
682 1 0.410717 0.745183 0.665907
683 1 0.405924 0.66587 0.746939
688 1 0.489687 0.733504 0.748773
707 1 0.418281 0.826726 0.757263
709 1 0.489924 0.81785 0.667617
826 1 0.409571 0.740115 0.82302
849 1 0.336087 0.837832 0.838617
853 1 0.498557 0.828247 0.831992
686 1 0.580223 0.726085 0.658806
692 1 0.686133 0.758944 0.753462
711 1 0.586958 0.796449 0.736917
691 1 0.752106 0.672361 0.753826
696 1 0.827648 0.756492 0.737605
715 1 0.752003 0.858813 0.75413
717 1 0.827643 0.822878 0.649839
861 1 0.850155 0.865556 0.834259
694 1 0.906452 0.753081 0.660761
695 1 0.9009 0.664053 0.745323
719 1 0.925602 0.831369 0.740042
838 1 0.916864 0.746299 0.829226
581 1 0.168712 0.00724341 0.663345
699 1 0.089189 0.847312 0.747057
704 1 0.171096 0.924723 0.751876
721 1 0.0151335 0.00458537 0.816048
702 1 0.258584 0.918885 0.672877
703 1 0.254542 0.823853 0.763639
725 1 0.17344 0.00556708 0.833828
587 1 0.406765 1.00698 0.749544
706 1 0.401743 0.907059 0.663232
708 1 0.343464 0.924048 0.763978
850 1 0.429186 0.928457 0.830209
710 1 0.57172 0.908473 0.692581
712 1 0.494658 0.910012 0.759145
854 1 0.576659 0.901138 0.828023
857 1 0.666055 0.847809 0.846576
716 1 0.66378 0.929675 0.763508
720 1 0.850682 0.917938 0.740669
858 1 0.751776 0.925121 0.835457
599 1 0.920575 0.00654882 0.743062
700 1 1.0058 0.907351 0.732261
862 1 0.930505 0.93164 0.831032
2 1 0.0822098 0.0870768 0.993843
25 1 0.00299262 0.175302 1.00869
722 1 0.0911754 0.0921276 0.824778
747 1 0.0888219 0.167332 0.929846
5 1 0.177401 0.00932238 1.00058
6 1 0.254879 0.0890416 0.998083
9 1 0.338871 0.0184945 0.990781
727 1 0.247261 0.00742317 0.915358
728 1 0.166984 0.0850339 0.913589
751 1 0.244534 0.169 0.900775
729 1 0.320775 0.00670177 0.843476
730 1 0.411558 0.0835516 0.820966
731 1 0.419067 1.00877 0.909433
732 1 0.324144 0.091119 0.908393
733 1 0.505098 1.00029 0.825458
734 1 0.58217 0.0930435 0.843313
735 1 0.57535 0.996389 0.919514
736 1 0.504721 0.0830857 0.915911
17 1 0.648937 0.999471 0.000164767
18 1 0.753344 0.0809139 -0.000292883
740 1 0.665887 0.0869477 0.916147
744 1 0.833792 0.0846641 0.924345
22 1 0.90226 0.095908 1.00713
724 1 1.00296 0.0911219 0.925386
767 1 0.922493 0.162251 0.915982
26 1 0.0854732 0.273542 0.991528
746 1 0.0941062 0.254194 0.818342
752 1 0.163966 0.25558 0.910158
769 1 0.983913 0.340666 0.836717
771 1 0.0842968 0.329773 0.897606
30 1 0.255915 0.246738 0.980723
33 1 0.330538 0.171228 0.995431
57 1 0.333757 0.327643 0.998463
750 1 0.251625 0.258667 0.820006
756 1 0.328126 0.247823 0.900956
775 1 0.255949 0.328694 0.912857
61 1 0.508488 0.33136 1.00179
755 1 0.422384 0.179769 0.915343
779 1 0.407909 0.322848 0.90503
757 1 0.486277 0.154124 0.82686
759 1 0.584835 0.171805 0.919348
760 1 0.499645 0.252078 0.918191
783 1 0.576773 0.322894 0.908604
762 1 0.736095 0.249013 0.832535
763 1 0.749102 0.162185 0.916923
764 1 0.662541 0.258551 0.917111
768 1 0.831975 0.243774 0.905661
46 1 0.921988 0.270971 0.994876
745 1 0.0110749 0.165757 0.814609
748 1 0.0121962 0.240623 0.904224
766 1 0.929811 0.247749 0.833765
49 1 0.00253105 0.33465 0.99146
50 1 0.0764088 0.42474 0.00913113
77 1 0.16008 0.480679 0.990639
770 1 0.0731202 0.402761 0.81751
772 1 0.0149745 0.415648 0.907725
773 1 0.176981 0.345023 0.818335
774 1 0.260336 0.416947 0.830619
776 1 0.159056 0.407114 0.907277
780 1 0.328041 0.416886 0.916679
58 1 0.41429 0.417279 0.00445082
778 1 0.429254 0.415873 0.833296
784 1 0.496267 0.427348 0.915547
803 1 0.412028 0.501377 0.939581
805 1 0.489641 0.515292 0.838378
62 1 0.586882 0.418204 0.997876
788 1 0.658032 0.435702 0.924551
807 1 0.577147 0.513346 0.924596
786 1 0.749832 0.431577 0.812206
787 1 0.747923 0.328719 0.908351
809 1 0.649371 0.498194 0.832562
811 1 0.75575 0.507351 0.889898
813 1 0.836599 0.498621 0.818514
93 1 0.849182 0.49833 0.986153
791 1 0.899994 0.329559 0.903542
792 1 0.816727 0.427611 0.908412
815 1 0.914441 0.515817 0.898409
74 1 0.0818726 0.581596 0.00388376
794 1 0.0839781 0.580454 0.824922
795 1 0.0954413 0.490059 0.90541
796 1 1.01576 0.593953 0.898538
800 1 0.149056 0.593478 0.919708
78 1 0.240159 0.579575 0.996604
797 1 0.158611 0.469179 0.822197
799 1 0.234528 0.50339 0.917558
801 1 0.340871 0.504636 0.846144
804 1 0.322879 0.576338 0.923409
808 1 0.497927 0.592658 0.935267
827 1 0.419963 0.67598 0.905063
86 1 0.579431 0.589585 0.0102062
109 1 0.494187 0.669885 0.002278
806 1 0.580522 0.589161 0.850474
812 1 0.663482 0.606108 0.92353
831 1 0.5757 0.669737 0.921347
833 1 0.671323 0.675125 0.833444
90 1 0.756026 0.574229 0.979514
810 1 0.751772 0.607442 0.833559
816 1 0.833432 0.592131 0.90758
814 1 0.92453 0.592049 0.814998
839 1 0.930083 0.652225 0.913267
818 1 0.0861869 0.763316 0.827304
819 1 0.0745109 0.678953 0.927443
820 1 0.00505848 0.75217 0.898144
823 1 0.249528 0.665573 0.921042
824 1 0.169 0.744869 0.909439
825 1 0.33684 0.659972 0.857321
847 1 0.253675 0.836151 0.919158
105 1 0.341062 0.681472 0.981835
106 1 0.408288 0.758176 0.0083956
828 1 0.33848 0.775259 0.926625
832 1 0.50418 0.747847 0.928913
110 1 0.579373 0.766853 1.00095
830 1 0.581966 0.761067 0.838039
836 1 0.657378 0.75648 0.907652
834 1 0.777899 0.789097 0.829591
835 1 0.745575 0.689564 0.919802
837 1 0.842297 0.6712 0.841979
859 1 0.749118 0.840814 0.92741
817 1 -0.00524181 0.668749 0.824808
840 1 0.833725 0.750829 0.906408
863 1 0.928974 0.833294 0.897506
121 1 0.0197992 0.826754 1.01023
723 1 0.0821764 0.00637242 0.902651
842 1 0.0928803 0.921944 0.835818
843 1 0.0908373 0.848701 0.914268
125 1 0.172416 0.83788 0.992759
126 1 0.256495 0.921715 0.992535
845 1 0.177531 0.835998 0.840068
846 1 0.250266 0.928204 0.825098
848 1 0.169459 0.930108 0.913375
130 1 0.408656 0.934448 -0.00910108
851 1 0.419457 0.842854 0.915531
852 1 0.335488 0.929319 0.913673
133 1 0.491377 0.839497 0.00222174
855 1 0.579875 0.834274 0.921573
856 1 0.494644 0.90896 0.911006
860 1 0.665585 0.91555 0.928715
21 1 0.836033 0.00726689 -0.00215125
138 1 0.745318 0.920817 0.00207719
141 1 0.832363 0.832126 0.997976
739 1 0.736327 0.00685475 0.904892
864 1 0.824186 0.925596 0.93384
1 1 1.00097 0.00398962 -0.00995177
142 1 0.925481 0.907157 0.971307
743 1 0.921609 -0.00171564 0.914465
841 1 0.00780618 0.843239 0.822045
844 1 1.01432 0.929492 0.900468
