ITEM: TIMESTEP
17500
ITEM: NUMBER OF ATOMS
864
ITEM: BOX BOUNDS pp pp pp
0.0000000000000000e+00 3.1559999999999999e+01
0.0000000000000000e+00 3.1559999999999999e+01
0.0000000000000000e+00 3.1559999999999999e+01
ITEM: ATOMS id type xs ys zs
4 1 0.0247911 0.0937163 0.0651957
38 1 0.123181 0.102597 0.147272
3 1 0.111338 0.0182378 0.0659731
77 1 0.213334 0.00589901 0.314555
8 1 0.213197 0.081634 0.0712052
42 1 0.2928 0.109032 0.15566
53 1 0.207947 0.173705 0.164308
75 1 0.123161 0.00657632 0.393543
41 1 0.176072 0.00418103 0.145737
12 1 0.344407 0.0979763 0.059194
46 1 0.440824 0.107542 0.147354
104 1 0.205537 0.429343 0.408989
45 1 0.363917 0.0285102 0.142248
15 1 0.134731 0.188636 0.0714885
16 1 0.0592088 0.264763 0.0565749
50 1 0.1291 0.268867 0.154339
49 1 0.0536311 0.181684 0.146205
61 1 0.0364818 0.333265 0.149131
19 1 0.264231 0.175967 0.0642864
20 1 0.21282 0.270464 0.0630275
54 1 0.279245 0.261042 0.147418
57 1 0.361039 0.186827 0.149127
24 1 0.359615 0.256508 0.069177
23 1 0.445151 0.180674 0.0686476
58 1 0.44829 0.269306 0.145475
107 1 0.45856 0.338781 0.391427
27 1 0.116567 0.353534 0.0761001
28 1 0.0277362 0.420079 0.0707623
32 1 0.213825 0.422919 0.0668092
31 1 0.29134 0.344202 0.0678958
66 1 0.282864 0.425458 0.153609
69 1 0.367424 0.335802 0.152752
36 1 0.365872 0.41764 0.0753054
35 1 0.443419 0.338217 0.0575829
70 1 0.447497 0.416507 0.144884
134 1 0.109182 0.435774 0.476801
40 1 0.0329107 0.0900232 0.222101
51 1 0.124875 0.170688 0.239655
85 1 0.0328279 0.155723 0.323971
74 1 0.119461 0.0857037 0.312181
109 1 0.0367842 0.006494 0.493845
44 1 0.194999 0.09052 0.238526
78 1 0.297258 0.0914302 0.320886
47 1 0.436607 0.0163974 0.219993
106 1 0.435108 0.419132 0.322424
48 1 0.372053 0.0999802 0.236087
82 1 0.448187 0.0972818 0.310603
79 1 0.277367 0.00988013 0.401094
86 1 0.0985758 0.251048 0.31191
52 1 0.0294876 0.252675 0.227466
55 1 0.292196 0.172512 0.251108
89 1 0.200287 0.16621 0.319417
56 1 0.202199 0.250579 0.23616
90 1 0.289447 0.257846 0.322931
59 1 0.449504 0.189907 0.226926
60 1 0.35373 0.260734 0.231786
94 1 0.443604 0.255284 0.316578
93 1 0.369067 0.175096 0.324401
62 1 0.130353 0.44112 0.148203
63 1 0.105901 0.335108 0.236596
64 1 0.047658 0.42905 0.221796
98 1 0.129697 0.430574 0.334288
97 1 0.0427829 0.342166 0.325577
65 1 0.213116 0.345409 0.152734
101 1 0.189543 0.342601 0.317942
67 1 0.279723 0.343403 0.237063
68 1 0.1965 0.43011 0.23682
71 1 0.431455 0.347655 0.233478
105 1 0.363933 0.33348 0.333815
72 1 0.359802 0.424855 0.246334
76 1 0.0383365 0.0773283 0.408591
110 1 0.125376 0.0819531 0.48297
138 1 0.287434 0.412729 0.482269
11 1 0.440618 0.011023 0.0687095
114 1 0.282748 0.0829997 0.48232
80 1 0.199369 0.0959407 0.394071
142 1 0.45704 0.408043 0.477155
118 1 0.45824 0.0869628 0.480429
84 1 0.365466 0.0957656 0.410831
108 1 0.357516 0.426643 0.396202
83 1 0.454035 0.00570417 0.412126
121 1 0.0428733 0.17504 0.4784
122 1 0.111744 0.261123 0.47147
87 1 0.120862 0.167916 0.400379
88 1 0.030385 0.258243 0.394097
99 1 0.121954 0.35337 0.406836
133 1 0.0378045 0.345828 0.47468
125 1 0.19572 0.17077 0.478868
126 1 0.287638 0.258992 0.485381
91 1 0.280024 0.18019 0.392132
92 1 0.191825 0.258304 0.394079
130 1 0.454896 0.253931 0.478602
95 1 0.456369 0.170434 0.393882
96 1 0.362688 0.249348 0.407182
129 1 0.361897 0.171829 0.479936
100 1 0.036314 0.447573 0.393185
73 1 0.031037 0.0170209 0.31998
113 1 0.203934 0.00513243 0.474304
137 1 0.200155 0.344675 0.481316
102 1 0.271073 0.420993 0.324759
141 1 0.36891 0.329858 0.461893
103 1 0.276264 0.338929 0.396137
81 1 0.382498 0.00653687 0.331522
39 1 0.11011 0.00892299 0.237639
43 1 0.292445 0.0229516 0.243392
37 1 0.0368188 0.00550382 0.140935
263 1 0.457386 0.494062 0.240459
117 1 0.36529 0.0157999 0.47929
7 1 0.281514 0.00210535 0.0559817
146 1 0.125204 0.0907346 0.654914
145 1 0.0451825 0.0231068 0.651032
112 1 0.0374953 0.0889604 0.563358
116 1 0.194651 0.0816553 0.567821
150 1 0.287527 0.0993314 0.64857
181 1 0.0257523 0.0110504 0.816175
153 1 0.357942 0.0184928 0.656859
120 1 0.364345 0.0805328 0.56243
154 1 0.452987 0.10329 0.655461
119 1 0.453958 0.0192137 0.568332
124 1 0.0411215 0.244576 0.559605
123 1 0.126039 0.166897 0.559547
158 1 0.117751 0.257049 0.647486
157 1 0.0363731 0.178199 0.644517
161 1 0.20796 0.180477 0.645621
127 1 0.271464 0.178446 0.553646
128 1 0.18778 0.260939 0.564448
162 1 0.27726 0.260754 0.632174
131 1 0.450018 0.167161 0.558455
165 1 0.367678 0.179434 0.635703
132 1 0.370643 0.257628 0.556163
166 1 0.464204 0.255928 0.645526
169 1 0.0373252 0.37079 0.627343
135 1 0.113272 0.336151 0.549035
170 1 0.123766 0.442042 0.641725
136 1 0.0256865 0.431382 0.540755
173 1 0.208517 0.346081 0.644373
139 1 0.295145 0.335803 0.564603
140 1 0.194853 0.422702 0.555932
174 1 0.284569 0.446869 0.642019
143 1 0.465049 0.344715 0.561047
177 1 0.370895 0.346391 0.653226
144 1 0.366541 0.413179 0.557871
178 1 0.459194 0.425844 0.660493
148 1 0.0350766 0.102942 0.741463
182 1 0.109567 0.0978086 0.817666
225 1 0.367154 0.491787 0.993519
185 1 0.200536 0.0132806 0.821249
152 1 0.203448 0.0892096 0.729401
186 1 0.288323 0.10443 0.809955
151 1 0.281948 0.0185079 0.735435
9 1 0.355286 0.0281876 0.978703
189 1 0.365772 0.0153075 0.811978
156 1 0.355176 0.101215 0.730149
190 1 0.440741 0.107648 0.79536
167 1 0.441272 0.194534 0.731903
155 1 0.446683 0.0154195 0.735601
193 1 0.0306542 0.181332 0.80933
159 1 0.11756 0.182463 0.739888
194 1 0.102963 0.266141 0.815992
160 1 0.0359707 0.265736 0.726348
197 1 0.197152 0.185965 0.81854
163 1 0.277268 0.183008 0.741988
164 1 0.193014 0.261144 0.721475
198 1 0.259017 0.272462 0.806241
168 1 0.356003 0.255787 0.735601
201 1 0.368498 0.189402 0.814788
202 1 0.439009 0.270534 0.816007
205 1 0.0272352 0.350778 0.819086
172 1 0.0433119 0.444333 0.708372
171 1 0.117333 0.342401 0.717587
206 1 0.105649 0.443883 0.816763
175 1 0.277075 0.343334 0.726383
209 1 0.194661 0.358193 0.799594
210 1 0.279303 0.433439 0.805221
176 1 0.189526 0.446548 0.727758
179 1 0.45361 0.343952 0.724401
214 1 0.443451 0.427654 0.811444
180 1 0.35738 0.430096 0.725372
213 1 0.369711 0.346189 0.803843
1 1 0.0404625 0.0158171 0.976682
2 1 0.110995 0.101836 0.981125
183 1 0.118195 0.00694694 0.893122
184 1 0.0292963 0.0903097 0.893627
115 1 0.275333 0.0084853 0.559518
111 1 0.115384 0.0119642 0.574861
188 1 0.180447 0.101895 0.893364
6 1 0.275301 0.113431 0.95993
5 1 0.200645 0.0201051 0.984188
199 1 0.277383 0.195414 0.891355
191 1 0.44511 0.0180771 0.897807
10 1 0.448084 0.0916521 0.996561
192 1 0.361011 0.105212 0.901445
21 1 0.374238 0.193789 0.984437
26 1 0.132591 0.42953 0.988955
13 1 0.0404725 0.191744 0.980083
14 1 0.131141 0.270297 0.980521
195 1 0.107144 0.182622 0.890536
196 1 0.0249098 0.265787 0.885718
18 1 0.274192 0.266887 0.970892
200 1 0.197556 0.27239 0.898271
17 1 0.197032 0.178244 0.972544
203 1 0.436595 0.184897 0.896672
204 1 0.36188 0.265602 0.901646
22 1 0.465719 0.260769 0.96361
25 1 0.0473736 0.344237 0.967093
208 1 0.0289947 0.430435 0.898733
207 1 0.113355 0.349012 0.878227
211 1 0.29249 0.354894 0.900465
212 1 0.207277 0.427843 0.890503
29 1 0.203084 0.348873 0.977255
221 1 0.219859 0.491236 0.98429
34 1 0.449425 0.413751 0.975229
215 1 0.461622 0.348472 0.885138
216 1 0.369204 0.423518 0.883104
33 1 0.368234 0.338796 0.977491
147 1 0.110155 0.0231951 0.741786
30 1 0.287235 0.410261 0.994187
149 1 0.203702 0.0104772 0.647919
331 1 0.295881 0.494764 0.547139
217 1 0.0422438 0.497797 0.999716
220 1 0.0452099 0.584505 0.0711367
325 1 0.0353095 0.518607 0.476487
253 1 0.0435434 0.502393 0.147487
224 1 0.2027 0.586796 0.0740164
258 1 0.295262 0.574208 0.154463
299 1 0.459312 0.514937 0.403014
257 1 0.201634 0.513474 0.157035
228 1 0.360097 0.593993 0.0695434
262 1 0.457822 0.579006 0.156915
342 1 0.286072 0.765861 0.498964
289 1 0.0363214 0.523035 0.307187
231 1 0.109418 0.687135 0.0774397
232 1 0.0244388 0.764877 0.0720572
266 1 0.113566 0.768877 0.149822
265 1 0.0261513 0.679856 0.148742
269 1 0.210997 0.67721 0.143845
236 1 0.192688 0.766223 0.0758773
235 1 0.281436 0.681057 0.0449385
270 1 0.27965 0.755503 0.141776
240 1 0.373361 0.770103 0.0548674
273 1 0.3616 0.681068 0.132677
239 1 0.455562 0.674365 0.053466
274 1 0.464744 0.753576 0.153169
338 1 0.124644 0.756955 0.481793
244 1 0.0272328 0.92456 0.0538927
243 1 0.109141 0.840041 0.0582665
278 1 0.102738 0.918958 0.142501
247 1 0.282688 0.847647 0.0587797
248 1 0.183749 0.940573 0.0568136
282 1 0.290771 0.947775 0.148323
281 1 0.205415 0.857567 0.143798
323 1 0.458442 0.848127 0.404554
251 1 0.450925 0.840471 0.0763937
285 1 0.366004 0.831403 0.143343
252 1 0.357111 0.928599 0.0616923
286 1 0.432967 0.91807 0.149892
254 1 0.121342 0.595384 0.150029
227 1 0.442494 0.513261 0.0652637
290 1 0.120817 0.604609 0.320899
256 1 0.0397123 0.601234 0.232227
333 1 0.371187 0.508096 0.472433
260 1 0.196599 0.6029 0.221787
294 1 0.287199 0.602239 0.291082
219 1 0.134554 0.50727 0.0621028
319 1 0.293945 0.836414 0.408595
277 1 0.00587127 0.855313 0.141853
264 1 0.377505 0.586102 0.224379
298 1 0.44784 0.595745 0.316275
267 1 0.127768 0.694428 0.2251
268 1 0.029467 0.760858 0.222667
302 1 0.105506 0.752876 0.316452
301 1 0.0332442 0.675678 0.321191
305 1 0.210771 0.68009 0.323314
272 1 0.216116 0.772499 0.222231
306 1 0.284949 0.761072 0.306373
271 1 0.288598 0.671069 0.214874
275 1 0.470278 0.673947 0.233019
276 1 0.371738 0.750318 0.216781
310 1 0.448531 0.752906 0.31579
309 1 0.35833 0.679326 0.327492
313 1 0.0327105 0.832732 0.316122
279 1 0.102352 0.848467 0.233198
280 1 0.0250105 0.926126 0.220453
314 1 0.108085 0.923892 0.30652
318 1 0.290505 0.924673 0.326603
283 1 0.285787 0.859899 0.219828
284 1 0.197432 0.938669 0.234929
317 1 0.185956 0.833954 0.305312
321 1 0.371894 0.829882 0.291875
287 1 0.447789 0.847946 0.224962
322 1 0.440705 0.919015 0.316204
288 1 0.361093 0.938927 0.228812
350 1 0.122461 0.93074 0.479462
292 1 0.0356596 0.604411 0.409269
326 1 0.12141 0.593696 0.486308
293 1 0.199565 0.511367 0.325231
353 1 0.201171 0.843817 0.479173
223 1 0.277866 0.509987 0.0615259
296 1 0.210393 0.604639 0.398031
295 1 0.276735 0.520141 0.40657
297 1 0.38004 0.511296 0.313263
320 1 0.206099 0.920706 0.397274
291 1 0.104411 0.525075 0.400495
334 1 0.44443 0.595697 0.481808
300 1 0.370472 0.594273 0.40096
337 1 0.0352431 0.685132 0.473559
304 1 0.0294254 0.764817 0.401637
303 1 0.118241 0.6814 0.404942
324 1 0.378932 0.915037 0.413389
330 1 0.278838 0.596758 0.48912
341 1 0.208339 0.682193 0.483032
308 1 0.194738 0.769741 0.378588
307 1 0.284209 0.697965 0.411615
345 1 0.362518 0.677253 0.479608
311 1 0.455605 0.667445 0.405985
312 1 0.381553 0.766821 0.399458
346 1 0.45622 0.756469 0.485871
358 1 0.452935 0.917463 0.487401
316 1 0.0422278 0.930554 0.406716
315 1 0.102333 0.846342 0.395837
349 1 0.0417088 0.838099 0.476085
354 1 0.289766 0.928381 0.475631
357 1 0.367951 0.835128 0.492134
329 1 0.202339 0.515246 0.483657
261 1 0.376311 0.501771 0.15132
229 1 0.0301369 0.670032 0.00404597
255 1 0.121726 0.506461 0.246988
259 1 0.28255 0.500148 0.239839
362 1 0.102956 0.595739 0.63843
328 1 0.0310886 0.592582 0.556415
327 1 0.118195 0.506545 0.558566
361 1 0.031317 0.514544 0.636178
332 1 0.194587 0.605768 0.564269
366 1 0.282203 0.581725 0.643457
369 1 0.374867 0.507299 0.642597
365 1 0.186483 0.523522 0.632424
336 1 0.351376 0.593427 0.558902
407 1 0.439728 0.504111 0.901085
370 1 0.455338 0.602286 0.644435
405 1 0.367144 0.507208 0.817128
373 1 0.0285878 0.691371 0.647841
339 1 0.102529 0.680119 0.565445
340 1 0.0421439 0.77275 0.565712
374 1 0.117362 0.762034 0.647568
343 1 0.278532 0.670799 0.561856
377 1 0.182729 0.675284 0.642259
344 1 0.199629 0.759949 0.562268
378 1 0.288065 0.762583 0.645745
381 1 0.364424 0.667409 0.656459
347 1 0.453818 0.686051 0.558713
348 1 0.363987 0.756496 0.567106
382 1 0.450633 0.749888 0.659057
385 1 0.0398659 0.840797 0.649238
351 1 0.125165 0.838976 0.553436
386 1 0.124757 0.940369 0.660518
352 1 0.0422987 0.931105 0.572472
250 1 0.444109 0.935762 0.98635
355 1 0.288998 0.837565 0.574205
389 1 0.191777 0.849182 0.642668
356 1 0.200676 0.931291 0.557116
390 1 0.299317 0.929142 0.648747
249 1 0.358355 0.847989 0.983323
359 1 0.456841 0.847904 0.56592
393 1 0.385498 0.830326 0.640623
360 1 0.359116 0.927801 0.554476
394 1 0.445189 0.921579 0.648494
364 1 0.0242314 0.578059 0.735465
398 1 0.118127 0.601557 0.816922
397 1 0.0342531 0.52015 0.823139
335 1 0.438551 0.506744 0.549679
363 1 0.116774 0.523924 0.735269
368 1 0.191664 0.5992 0.726817
402 1 0.265874 0.595302 0.828856
401 1 0.189314 0.522004 0.826199
371 1 0.446063 0.511415 0.733427
372 1 0.364843 0.592849 0.736011
406 1 0.434831 0.599003 0.810459
375 1 0.110176 0.669411 0.733171
376 1 0.0384165 0.763108 0.736491
410 1 0.127587 0.775239 0.816529
409 1 0.035243 0.677101 0.819554
379 1 0.273778 0.671029 0.710743
413 1 0.206091 0.686185 0.817547
380 1 0.200963 0.765007 0.737523
414 1 0.285449 0.762005 0.808375
417 1 0.36124 0.677992 0.823449
383 1 0.448623 0.666581 0.728473
384 1 0.367483 0.759793 0.73479
418 1 0.438578 0.775546 0.820726
421 1 0.0329274 0.834239 0.816347
388 1 0.0314932 0.939612 0.729001
387 1 0.119223 0.838227 0.726286
422 1 0.127052 0.925092 0.796466
425 1 0.209495 0.846727 0.810081
391 1 0.282327 0.847139 0.722158
392 1 0.204736 0.920824 0.725507
426 1 0.282144 0.923047 0.800932
395 1 0.459847 0.841365 0.724707
429 1 0.373561 0.852228 0.798603
396 1 0.366627 0.935597 0.723181
430 1 0.445089 0.928536 0.812582
400 1 0.021914 0.596698 0.907488
218 1 0.119355 0.605923 0.994996
399 1 0.126072 0.526441 0.917215
428 1 0.19568 0.927531 0.917866
237 1 0.371656 0.679461 0.976093
404 1 0.203775 0.604517 0.922136
222 1 0.301064 0.582027 0.982844
233 1 0.198632 0.689321 0.983452
187 1 0.281745 0.996225 0.897584
408 1 0.366243 0.603355 0.899409
226 1 0.451957 0.584225 0.978593
432 1 0.360852 0.919621 0.888071
230 1 0.117378 0.771712 0.981328
403 1 0.288501 0.50819 0.896139
412 1 0.0346999 0.751023 0.904698
411 1 0.120237 0.681155 0.894969
431 1 0.439841 0.84558 0.898056
415 1 0.278729 0.676996 0.90533
416 1 0.209979 0.771648 0.900098
245 1 0.196189 0.84268 0.990782
238 1 0.452373 0.766362 0.972824
367 1 0.268337 0.528683 0.740366
419 1 0.44213 0.67532 0.895732
420 1 0.3609 0.764692 0.900367
241 1 0.0374002 0.843656 0.969751
423 1 0.120883 0.846841 0.891102
242 1 0.114901 0.920138 0.97831
424 1 0.0298147 0.92917 0.889037
246 1 0.273971 0.927571 0.981102
427 1 0.275869 0.861958 0.895635
234 1 0.2823 0.767007 0.98157
470 1 0.608467 0.0961993 0.162975
436 1 0.537718 0.110071 0.0633626
469 1 0.521754 0.0211676 0.14398
435 1 0.605878 0.00652792 0.0769474
440 1 0.714428 0.0958944 0.0692822
474 1 0.781181 0.105671 0.148014
439 1 0.772764 0.00661003 0.0627261
574 1 0.953467 0.421702 0.46531
444 1 0.855289 0.0918972 0.0808392
478 1 0.949845 0.0844703 0.143228
573 1 0.875401 0.34119 0.467356
443 1 0.961037 0.0102011 0.050349
689 1 0.704757 0.498684 0.152073
447 1 0.614658 0.188592 0.0575465
482 1 0.620848 0.268847 0.140842
448 1 0.532006 0.249491 0.0532185
481 1 0.521951 0.189088 0.145932
451 1 0.78559 0.184943 0.0661341
485 1 0.705047 0.191445 0.157829
452 1 0.710939 0.262124 0.0611927
486 1 0.790199 0.271648 0.145661
489 1 0.865753 0.178536 0.141268
456 1 0.870742 0.270102 0.0743277
455 1 0.947703 0.184962 0.0539952
490 1 0.959377 0.238448 0.137584
459 1 0.618601 0.347577 0.0656981
460 1 0.528692 0.433891 0.0623948
493 1 0.531448 0.333979 0.126227
494 1 0.630163 0.426487 0.144453
497 1 0.70519 0.349435 0.144624
463 1 0.796065 0.343827 0.0702538
464 1 0.701796 0.435906 0.0652678
498 1 0.794023 0.428379 0.138276
467 1 0.947313 0.342683 0.0730059
468 1 0.872552 0.439615 0.0739065
501 1 0.864864 0.34989 0.170866
502 1 0.948857 0.421781 0.144294
511 1 0.764284 0.0092723 0.394296
506 1 0.617932 0.105434 0.320745
472 1 0.514289 0.112527 0.22841
509 1 0.67435 0.00879074 0.290996
505 1 0.527967 0.00949454 0.313596
476 1 0.696884 0.0966971 0.222001
510 1 0.772479 0.0819226 0.311906
475 1 0.76737 0.0156691 0.216648
570 1 0.796431 0.426756 0.480086
480 1 0.857638 0.0897707 0.235523
514 1 0.943513 0.0912232 0.321498
515 1 0.943666 0.00798039 0.398569
491 1 0.947297 0.158124 0.235419
479 1 0.94963 0.00423978 0.246865
484 1 0.5443 0.271429 0.224552
517 1 0.543079 0.178691 0.316438
483 1 0.617084 0.181879 0.237309
518 1 0.625713 0.269495 0.32091
521 1 0.702908 0.183602 0.315335
487 1 0.779958 0.19711 0.234965
488 1 0.690069 0.267086 0.230102
522 1 0.786269 0.270915 0.321077
525 1 0.86125 0.177873 0.323615
492 1 0.883809 0.251179 0.21196
526 1 0.960235 0.251785 0.307871
495 1 0.610448 0.352697 0.232991
496 1 0.51753 0.403308 0.23415
529 1 0.533264 0.33371 0.313807
530 1 0.612536 0.417582 0.310271
499 1 0.77532 0.338489 0.238498
533 1 0.701164 0.349435 0.32121
534 1 0.775311 0.425883 0.312108
500 1 0.689199 0.426233 0.234277
537 1 0.861754 0.344295 0.313222
503 1 0.951513 0.339259 0.232452
538 1 0.948321 0.435123 0.31727
504 1 0.870855 0.434735 0.233184
507 1 0.602951 0.028648 0.395092
508 1 0.526255 0.0951475 0.391074
542 1 0.616426 0.0937787 0.491097
512 1 0.700258 0.0980214 0.383916
546 1 0.771423 0.087085 0.480088
539 1 0.950397 0.345877 0.384078
473 1 0.689299 0.0159127 0.13932
550 1 0.948698 0.0915859 0.486787
540 1 0.868343 0.425424 0.397099
516 1 0.852469 0.091865 0.40467
513 1 0.860278 0.0129054 0.333865
553 1 0.53209 0.176884 0.47274
519 1 0.619005 0.17784 0.398011
520 1 0.530061 0.262816 0.392047
554 1 0.620253 0.25997 0.475524
557 1 0.69745 0.177067 0.474792
523 1 0.783781 0.171298 0.400411
558 1 0.784639 0.254365 0.484437
524 1 0.718931 0.261738 0.404482
562 1 0.963455 0.260335 0.483884
561 1 0.865245 0.173651 0.489282
527 1 0.955984 0.167529 0.410034
528 1 0.88102 0.250749 0.413904
565 1 0.539264 0.331718 0.48449
531 1 0.632455 0.33808 0.404207
532 1 0.541406 0.41483 0.395558
566 1 0.623121 0.416072 0.481333
535 1 0.794688 0.343357 0.406754
569 1 0.716036 0.34243 0.484489
536 1 0.68654 0.433175 0.394696
477 1 0.856238 0.00451538 0.156735
549 1 0.863769 0.00195118 0.473454
695 1 0.961356 0.493462 0.220804
462 1 0.788768 0.443602 0.00266568
721 1 0.540643 0.496235 0.319973
545 1 0.700204 0.00169284 0.485086
544 1 0.545018 0.0845148 0.567489
578 1 0.626101 0.0839878 0.65304
577 1 0.52726 0.00976294 0.652286
621 1 0.862014 0.00232706 0.806155
548 1 0.712165 0.0774424 0.572988
582 1 0.79143 0.0856466 0.648365
623 1 0.937943 0.0142417 0.898044
442 1 0.946867 0.0966778 0.984521
552 1 0.854217 0.0784709 0.565137
586 1 0.961955 0.0936503 0.642538
563 1 0.947366 0.175342 0.559991
648 1 0.879847 0.425053 0.872589
619 1 0.785935 0.00741467 0.915177
555 1 0.628583 0.171308 0.563489
556 1 0.551091 0.251517 0.552124
590 1 0.629432 0.262898 0.640955
589 1 0.543864 0.181106 0.639423
567 1 0.61639 0.346685 0.560925
559 1 0.775639 0.168887 0.56899
593 1 0.703532 0.16233 0.658696
560 1 0.703055 0.25844 0.558892
594 1 0.797569 0.259529 0.62639
571 1 0.785603 0.353072 0.565697
597 1 0.86667 0.17212 0.628141
564 1 0.878736 0.259841 0.554455
598 1 0.957507 0.26632 0.653624
602 1 0.614147 0.417774 0.652693
568 1 0.533878 0.425733 0.566771
601 1 0.53738 0.345503 0.637578
605 1 0.703724 0.346637 0.633179
572 1 0.711491 0.438544 0.561131
606 1 0.799218 0.43509 0.640906
575 1 0.952153 0.347853 0.55268
609 1 0.874597 0.33428 0.641083
576 1 0.864012 0.42733 0.553328
610 1 0.949441 0.431292 0.63691
580 1 0.539678 0.0935811 0.72741
614 1 0.60473 0.0927402 0.817319
625 1 0.528934 0.173865 0.799755
613 1 0.520052 0.00994763 0.811468
579 1 0.625673 0.00609546 0.737657
584 1 0.697015 0.0819302 0.73549
618 1 0.779771 0.0817402 0.826084
583 1 0.778076 0.0110142 0.738528
588 1 0.862359 0.0842413 0.731763
622 1 0.946659 0.0995935 0.823044
441 1 0.872768 0.0281093 0.99391
587 1 0.946371 0.0215078 0.748232
591 1 0.616122 0.176388 0.738514
592 1 0.549886 0.261951 0.721945
626 1 0.622472 0.254214 0.820071
629 1 0.686859 0.165313 0.81672
596 1 0.70234 0.247246 0.734145
595 1 0.775486 0.168586 0.743365
630 1 0.77526 0.251085 0.822922
599 1 0.952825 0.177088 0.728677
600 1 0.860316 0.237329 0.723394
634 1 0.953788 0.255653 0.805018
633 1 0.868099 0.185306 0.820425
637 1 0.535288 0.337524 0.804961
603 1 0.625431 0.341258 0.729032
638 1 0.619526 0.433751 0.790571
604 1 0.537113 0.431875 0.727725
641 1 0.703604 0.34716 0.805117
607 1 0.79736 0.33139 0.718399
608 1 0.714026 0.434991 0.730608
642 1 0.782997 0.440012 0.812564
646 1 0.962896 0.444817 0.80364
645 1 0.858703 0.328735 0.805944
611 1 0.956669 0.360329 0.721401
612 1 0.874474 0.436518 0.743603
433 1 0.529756 0.00737719 0.996095
616 1 0.525046 0.0934639 0.889627
615 1 0.603039 0.0139407 0.921306
437 1 0.68366 0.0129683 0.991636
627 1 0.608089 0.171 0.896179
551 1 0.944598 0.0158632 0.573988
581 1 0.712134 0.00349121 0.648901
620 1 0.696961 0.0849559 0.911535
466 1 0.951724 0.424316 0.986791
617 1 0.689044 0.0126878 0.825729
624 1 0.869828 0.0985069 0.894793
434 1 0.618513 0.110013 0.981236
465 1 0.859888 0.359311 0.994634
628 1 0.523841 0.250221 0.874079
446 1 0.606384 0.273719 0.968318
445 1 0.531508 0.175394 0.968788
450 1 0.785116 0.266128 0.980374
449 1 0.702859 0.175819 0.983801
631 1 0.785221 0.169183 0.891009
632 1 0.704851 0.255784 0.911081
454 1 0.965874 0.281645 0.983192
635 1 0.956056 0.189585 0.905506
636 1 0.875945 0.260059 0.908744
453 1 0.86671 0.176567 0.972761
639 1 0.621494 0.348229 0.880647
640 1 0.547253 0.414384 0.886508
457 1 0.53381 0.353581 0.987988
458 1 0.628015 0.432285 0.984573
438 1 0.774482 0.0936755 0.979855
643 1 0.79084 0.36226 0.88747
461 1 0.710416 0.364194 0.977955
644 1 0.692002 0.429882 0.891087
647 1 0.938855 0.345183 0.884425
759 1 0.621644 0.498861 0.571799
649 1 0.530264 0.496391 0.977329
686 1 0.623199 0.597826 0.133313
652 1 0.534343 0.574944 0.0766951
651 1 0.62759 0.517702 0.0477799
755 1 0.949975 0.835101 0.395458
656 1 0.722868 0.602663 0.0772778
690 1 0.779354 0.591411 0.172037
655 1 0.789347 0.518386 0.0785262
659 1 0.956625 0.517593 0.065579
660 1 0.880912 0.600891 0.0494552
694 1 0.956737 0.600218 0.141395
671 1 0.947517 0.675629 0.0712727
693 1 0.885853 0.529861 0.146816
758 1 0.610522 0.587458 0.492528
663 1 0.614827 0.688969 0.0739941
698 1 0.605094 0.767497 0.1513
664 1 0.523151 0.760385 0.0626128
697 1 0.545388 0.669998 0.154189
667 1 0.794408 0.689689 0.0661063
701 1 0.693274 0.680102 0.149306
668 1 0.719021 0.767576 0.0680529
702 1 0.784987 0.761481 0.150004
705 1 0.86617 0.656568 0.143121
672 1 0.881889 0.761087 0.0690862
706 1 0.938732 0.738662 0.151953
717 1 0.871947 0.846475 0.151661
675 1 0.596019 0.839436 0.0567466
710 1 0.606468 0.911464 0.135577
709 1 0.522583 0.838174 0.151109
676 1 0.526087 0.923329 0.0662881
679 1 0.780264 0.854696 0.0732905
713 1 0.689687 0.834233 0.149567
680 1 0.699362 0.921624 0.0703686
714 1 0.773292 0.921137 0.152529
683 1 0.960454 0.84863 0.0451784
684 1 0.862818 0.938164 0.0666471
718 1 0.941957 0.942297 0.143967
722 1 0.614569 0.589282 0.32037
688 1 0.528895 0.582251 0.23449
723 1 0.618441 0.509526 0.410506
687 1 0.616176 0.520916 0.216585
731 1 0.94736 0.515886 0.387953
692 1 0.688452 0.605641 0.236989
726 1 0.781647 0.585144 0.302422
541 1 0.539769 0.997185 0.483616
696 1 0.87206 0.599492 0.229976
730 1 0.95492 0.602392 0.314599
756 1 0.869275 0.926294 0.396424
729 1 0.876118 0.519224 0.295103
733 1 0.536818 0.683406 0.320893
699 1 0.620654 0.680982 0.243506
734 1 0.614399 0.759555 0.329483
700 1 0.536985 0.764801 0.238039
703 1 0.790868 0.679697 0.242313
704 1 0.718432 0.763123 0.228181
738 1 0.784772 0.767356 0.311938
737 1 0.701719 0.692309 0.309022
741 1 0.875607 0.671706 0.314007
707 1 0.946804 0.679201 0.237095
708 1 0.861554 0.770433 0.23217
742 1 0.938412 0.763368 0.305896
719 1 0.954232 0.837857 0.237566
745 1 0.52784 0.837434 0.318446
711 1 0.618473 0.847526 0.236778
746 1 0.598215 0.92322 0.313018
712 1 0.518206 0.931438 0.233213
715 1 0.774644 0.857148 0.243204
749 1 0.689446 0.845209 0.314201
716 1 0.683086 0.933105 0.225379
750 1 0.773497 0.933032 0.319323
753 1 0.855405 0.851078 0.309599
720 1 0.877521 0.922265 0.23408
754 1 0.964879 0.920898 0.324582
724 1 0.543423 0.586408 0.394674
773 1 0.71209 0.676232 0.48065
789 1 0.871917 0.849826 0.474627
785 1 0.695952 0.840636 0.479515
761 1 0.7153 0.50642 0.46747
762 1 0.776333 0.594182 0.484492
728 1 0.705648 0.583203 0.38247
757 1 0.539998 0.51524 0.491687
765 1 0.870619 0.519398 0.463827
732 1 0.864328 0.597229 0.393897
766 1 0.946584 0.599953 0.474652
782 1 0.61957 0.923543 0.468888
770 1 0.620339 0.771162 0.472586
769 1 0.548103 0.675412 0.471955
735 1 0.632062 0.665435 0.398538
736 1 0.531554 0.762456 0.398573
781 1 0.539171 0.833156 0.483916
739 1 0.791218 0.678248 0.385227
691 1 0.778683 0.50312 0.230429
740 1 0.695775 0.767795 0.393434
778 1 0.957144 0.751962 0.473318
743 1 0.9596 0.672091 0.39421
744 1 0.866011 0.755536 0.404824
777 1 0.848295 0.675039 0.482898
790 1 0.951411 0.919103 0.478673
748 1 0.534338 0.923671 0.404394
747 1 0.613715 0.842176 0.398378
774 1 0.777525 0.756884 0.485924
786 1 0.7817 0.931252 0.475456
752 1 0.679845 0.930114 0.382688
751 1 0.791494 0.839137 0.399784
727 1 0.789022 0.514435 0.38245
471 1 0.603929 0.998774 0.213137
685 1 0.528541 0.501613 0.152394
725 1 0.690351 0.501215 0.309196
794 1 0.615432 0.595449 0.639302
760 1 0.534068 0.617405 0.55756
839 1 0.952371 0.519185 0.893664
650 1 0.597734 0.597027 0.975998
764 1 0.698917 0.591677 0.583036
798 1 0.790482 0.598684 0.645598
653 1 0.703248 0.534272 0.97455
682 1 0.949254 0.930699 0.963877
768 1 0.869697 0.603931 0.570173
802 1 0.948051 0.602507 0.649296
767 1 0.94267 0.517821 0.564552
801 1 0.866014 0.51715 0.644993
805 1 0.535353 0.682059 0.663109
771 1 0.614748 0.685253 0.571803
806 1 0.612582 0.769716 0.666014
772 1 0.546746 0.758335 0.567033
817 1 0.528532 0.838133 0.649876
809 1 0.697429 0.673799 0.6601
775 1 0.780511 0.676909 0.569236
776 1 0.693571 0.758699 0.556863
810 1 0.794026 0.767895 0.646801
779 1 0.959233 0.682235 0.554656
780 1 0.867128 0.76541 0.561033
813 1 0.868704 0.684118 0.643029
814 1 0.959507 0.760292 0.633962
783 1 0.617281 0.840144 0.56125
784 1 0.531471 0.922926 0.562379
818 1 0.629014 0.926479 0.659319
863 1 0.958129 0.840467 0.898104
821 1 0.695255 0.838846 0.652594
787 1 0.782613 0.835944 0.551627
788 1 0.698211 0.915215 0.567545
822 1 0.778522 0.912599 0.648134
791 1 0.950293 0.841518 0.570757
792 1 0.862535 0.923713 0.55883
825 1 0.869536 0.851353 0.637838
826 1 0.954463 0.926207 0.642744
830 1 0.608278 0.585363 0.81548
796 1 0.52577 0.591841 0.723924
543 1 0.621809 0.997969 0.561891
795 1 0.624412 0.512241 0.718124
800 1 0.721231 0.600866 0.737494
834 1 0.795672 0.595896 0.824346
799 1 0.788645 0.524463 0.728267
681 1 0.875273 0.845478 0.978384
803 1 0.938829 0.51037 0.727913
804 1 0.870985 0.602161 0.731044
838 1 0.946164 0.604037 0.824961
815 1 0.957837 0.6846 0.729706
837 1 0.870442 0.515722 0.818074
807 1 0.623047 0.671753 0.742466
808 1 0.516756 0.757587 0.749736
841 1 0.536485 0.677227 0.825316
845 1 0.695392 0.672882 0.818356
811 1 0.792163 0.695336 0.736158
812 1 0.704228 0.757884 0.728556
846 1 0.767359 0.769059 0.815395
849 1 0.862738 0.696151 0.816452
816 1 0.870158 0.773941 0.723203
850 1 0.952124 0.758901 0.818241
820 1 0.531123 0.937099 0.71873
819 1 0.629571 0.851519 0.744628
853 1 0.531616 0.848554 0.823182
854 1 0.608366 0.934148 0.834407
823 1 0.77889 0.845082 0.740191
857 1 0.695374 0.852893 0.832235
824 1 0.705634 0.92794 0.733136
858 1 0.775692 0.929493 0.827013
861 1 0.869504 0.841962 0.829886
827 1 0.960345 0.840089 0.720017
862 1 0.945831 0.908687 0.805332
828 1 0.867126 0.924279 0.72688
833 1 0.693464 0.522946 0.81567
832 1 0.510466 0.59006 0.887608
657 1 0.869411 0.517822 0.973701
547 1 0.782971 0.98796 0.55643
654 1 0.79536 0.609211 0.978518
836 1 0.700506 0.601058 0.88944
793 1 0.518413 0.511912 0.62964
797 1 0.704863 0.511065 0.652459
840 1 0.876494 0.597935 0.903439
658 1 0.963573 0.579739 0.987023
851 1 0.951504 0.682334 0.905574
831 1 0.611515 0.506976 0.890677
842 1 0.623743 0.76513 0.815092
661 1 0.529599 0.678978 0.975898
662 1 0.614253 0.763645 0.985263
844 1 0.541264 0.764057 0.893398
843 1 0.624152 0.694016 0.899751
673 1 0.520078 0.851395 0.986098
666 1 0.795076 0.777581 0.991065
665 1 0.699193 0.682081 0.995105
847 1 0.780172 0.689607 0.898888
848 1 0.699575 0.773965 0.902471
669 1 0.870205 0.684118 0.980682
852 1 0.882262 0.762377 0.90446
670 1 0.962175 0.756636 0.989689
856 1 0.521734 0.936864 0.900674
855 1 0.615081 0.843194 0.905244
674 1 0.612004 0.925475 0.982118
677 1 0.694552 0.840525 0.987435
678 1 0.789508 0.918251 0.979632
859 1 0.788448 0.836344 0.903916
860 1 0.698386 0.931393 0.906832
864 1 0.86384 0.935086 0.895663
835 1 0.789335 0.505057 0.903375
763 1 0.796679 0.514822 0.552014
585 1 0.857498 0.998781 0.647011
829 1 0.53628 0.501027 0.810238
