ITEM: TIMESTEP
4500
ITEM: NUMBER OF ATOMS
864
ITEM: BOX BOUNDS pp pp pp
0.0000000000000000e+00 3.1559999999999999e+01
0.0000000000000000e+00 3.1559999999999999e+01
0.0000000000000000e+00 3.1559999999999999e+01
ITEM: ATOMS id type xs ys zs
173 1 0.157864 0.168953 0.169183
3 1 0.0824916 0.994727 0.105996
146 1 0.0909738 0.0895763 0.1779
145 1 1.01115 0.00441244 0.183969
8 1 0.169446 0.0786699 0.0822518
12 1 0.324498 0.095109 0.0915966
31 1 0.237191 0.167012 0.0750484
150 1 0.2582 0.0955029 0.180131
10 1 0.420817 0.0951679 0.0124396
16 1 0.503437 0.0823075 0.0855492
35 1 0.429915 0.169921 0.0829819
9 1 0.349268 0.011398 0.0101704
37 1 0.509965 0.169918 0.999522
39 1 0.582196 0.172273 0.0778907
14 1 0.586449 0.0873325 1.00256
20 1 0.674028 0.0859936 0.0812897
161 1 0.670964 0.999226 0.169104
43 1 0.768159 0.178564 0.0857792
19 1 0.746843 0.000914858 0.0631295
185 1 0.676065 0.164306 0.16091
18 1 0.767586 0.0981245 0.00507781
4 1 0.98589 0.0782201 0.0973489
24 1 0.844976 0.0807688 0.0783504
23 1 0.909929 0.993516 0.078427
166 1 0.92108 0.0952606 0.185482
27 1 0.0698141 0.165332 0.0739153
29 1 0.155951 0.171681 1.01021
32 1 0.149238 0.257075 0.0868778
170 1 0.0745602 0.250863 0.160516
26 1 0.0761851 0.240092 0.992502
177 1 0.35028 0.163015 0.17506
174 1 0.246808 0.255879 0.153358
36 1 0.340571 0.2436 0.0920058
55 1 0.223147 0.343784 0.0789339
59 1 0.418165 0.33976 0.0881405
178 1 0.432594 0.257469 0.179183
40 1 0.507265 0.272797 0.0970788
63 1 0.599982 0.335536 0.0604586
182 1 0.591167 0.252565 0.148293
44 1 0.673822 0.254679 0.0702611
65 1 0.683182 0.333737 0.985467
67 1 0.76753 0.335408 0.0700216
48 1 0.845252 0.246087 0.0717239
47 1 0.92293 0.16117 0.0801168
28 1 -0.0108859 0.241954 0.0879659
190 1 0.925428 0.253304 0.173471
46 1 0.930369 0.244545 1.0046
49 1 0.99073 0.325603 0.987146
51 1 0.0788104 0.328315 0.0579802
56 1 0.148805 0.420258 0.0844008
197 1 0.150071 0.341293 0.161433
194 1 0.0726767 0.42699 0.177399
217 1 0.99331 0.502692 0.173032
50 1 0.07593 0.422643 0.994215
198 1 0.249581 0.4118 0.175391
60 1 0.335111 0.408261 0.0985227
201 1 0.343634 0.330098 0.171988
83 1 0.420161 0.489161 0.0948171
58 1 0.41898 0.412916 1.00523
64 1 0.513267 0.403512 0.080684
81 1 0.349719 0.4911 -0.00782755
61 1 0.503635 0.320541 0.995866
62 1 0.578739 0.422906 0.991667
85 1 0.492816 0.502638 0.00252642
68 1 0.680548 0.417847 0.0726933
69 1 0.834499 0.322392 0.977503
66 1 0.749676 0.417676 0.978318
52 1 0.00108777 0.412534 0.0844767
72 1 0.846435 0.416019 0.0805536
71 1 0.920596 0.33084 0.0713045
214 1 0.922117 0.411651 0.163442
70 1 0.911798 0.424923 0.972512
75 1 0.0700067 0.492648 0.0782026
99 1 0.0843787 0.676309 0.0842325
76 1 0.00764879 0.585002 0.0666442
73 1 0.982321 0.503537 0.976622
79 1 0.247248 0.486352 0.0850805
80 1 0.136478 0.581708 0.0901433
245 1 0.159651 0.659475 0.165868
222 1 0.241529 0.581797 0.170209
84 1 0.315763 0.578634 0.0739054
82 1 0.42057 0.57454 0.0157408
87 1 0.578819 0.5017 0.0927567
88 1 0.495968 0.578085 0.0918228
86 1 0.570909 0.575496 0.0017804
111 1 0.595409 0.643774 0.0927606
92 1 0.673936 0.577446 0.0836397
91 1 0.761538 0.503373 0.0670677
115 1 0.747446 0.66055 0.0754773
233 1 0.674024 0.495311 0.162879
117 1 0.838313 0.662544 0.994002
95 1 0.93041 0.505522 0.0818485
96 1 0.841367 0.576837 0.0773648
237 1 0.853064 0.492345 0.160413
238 1 0.914293 0.578776 0.158893
94 1 0.920637 0.598843 0.981049
123 1 0.104404 0.816247 0.0747345
104 1 0.173763 0.744244 0.0931714
103 1 0.250145 0.662586 0.0886981
246 1 0.251684 0.758597 0.178447
127 1 0.249955 0.811563 0.076604
269 1 0.174759 0.845602 0.163926
107 1 0.415009 0.663995 0.0870761
108 1 0.33716 0.7443 0.0854515
250 1 0.420848 0.74782 0.163915
129 1 0.32638 0.836215 0.0034705
112 1 0.494791 0.759204 0.079511
257 1 0.672645 0.654229 0.169575
110 1 0.576305 0.759355 1.00376
116 1 0.658597 0.742057 0.0790995
258 1 0.737869 0.746471 0.170187
114 1 0.758595 0.746538 -0.00654464
100 1 0.0051942 0.74679 0.0746727
265 1 0.0101231 0.818267 0.179271
120 1 0.832918 0.738125 0.0830263
119 1 0.914029 0.66587 0.0706043
118 1 0.925789 0.74178 0.990612
128 1 0.180913 0.912962 0.0810028
124 1 0.0368229 0.896507 0.0888393
149 1 0.16098 0.00245339 0.18263
121 1 0.0201792 0.83382 1.00393
5 1 0.155574 0.00408315 0.0077681
7 1 0.249486 -0.00640284 0.0923924
126 1 0.253886 0.93484 -0.00645661
132 1 0.320708 0.914051 0.0938497
131 1 0.415574 0.833311 0.0858164
11 1 0.426696 0.000719949 0.0905799
130 1 0.420425 0.925159 0.0118728
15 1 0.592469 1.00031 0.0893186
135 1 0.591829 0.837001 0.08422
136 1 0.494156 0.908916 0.0988447
278 1 0.584874 0.921035 0.163256
134 1 0.591761 0.915526 0.996533
139 1 0.750404 0.833754 0.08038
140 1 0.669264 0.911122 0.0715726
285 1 0.834714 0.824262 0.173429
143 1 0.93221 0.8216 0.0963854
165 1 0.840609 0.000615762 0.160472
144 1 0.840625 0.911156 0.0905958
142 1 0.93131 0.905695 0.0291525
148 1 0.994214 0.0926252 0.265896
169 1 0.00156389 0.169496 0.170799
152 1 0.168897 0.0980107 0.269716
321 1 0.343743 0.184213 0.33806
156 1 0.345758 0.0839612 0.253982
154 1 0.424026 0.0843703 0.170128
179 1 0.42104 0.150534 0.252032
160 1 0.512377 0.0900457 0.238052
325 1 0.509243 0.170619 0.327613
157 1 0.514557 0.998872 0.162194
158 1 0.587105 0.08079 0.151554
183 1 0.597572 0.174227 0.255138
302 1 0.579683 0.0836643 0.329337
159 1 0.585752 -0.00865538 0.245426
162 1 0.767308 0.0967698 0.155426
164 1 0.672448 0.0813571 0.249764
187 1 0.7569 0.175403 0.256232
163 1 0.748002 0.00448772 0.257168
189 1 0.83698 0.176198 0.181301
168 1 0.8225 0.0975421 0.256107
191 1 0.913881 0.173509 0.255638
310 1 0.910758 0.0779668 0.341797
193 1 -0.00112084 0.332047 0.163292
171 1 0.0760761 0.160528 0.267174
195 1 0.0756372 0.344047 0.256553
176 1 0.159628 0.254855 0.236051
175 1 0.246545 0.183426 0.254246
318 1 0.256905 0.262618 0.322984
180 1 0.334952 0.246645 0.238225
181 1 0.526751 0.168316 0.172401
345 1 0.342636 0.324821 0.315157
205 1 0.515295 0.34664 0.171833
184 1 0.506581 0.244558 0.251808
203 1 0.42589 0.33681 0.259382
349 1 0.510295 0.324368 0.347784
326 1 0.590302 0.251955 0.346187
207 1 0.584574 0.334941 0.259136
186 1 0.747431 0.255432 0.156506
209 1 0.67998 0.34314 0.158756
188 1 0.674402 0.257762 0.25532
330 1 0.742964 0.252401 0.332974
172 1 1.01546 0.254811 0.249151
192 1 0.839804 0.270154 0.250844
215 1 0.919224 0.339808 0.250063
200 1 0.161436 0.422466 0.250104
199 1 0.243135 0.32966 0.236408
204 1 0.340733 0.404957 0.237966
221 1 0.166961 0.49751 0.166124
225 1 0.31784 0.50465 0.161417
223 1 0.239401 0.506122 0.246439
202 1 0.428017 0.407226 0.167124
208 1 0.502099 0.416764 0.274048
373 1 0.513077 0.503368 0.332193
227 1 0.410304 0.496119 0.259701
206 1 0.598284 0.416484 0.168491
350 1 0.592472 0.410882 0.345821
212 1 0.662888 0.409926 0.254776
231 1 0.592546 0.496286 0.246855
211 1 0.752541 0.343692 0.254134
353 1 0.669022 0.33162 0.339145
357 1 0.82989 0.330507 0.342682
210 1 0.761943 0.42264 0.162229
354 1 0.748535 0.419835 0.344003
216 1 0.841998 0.415545 0.250962
213 1 0.846407 0.333665 0.163184
196 1 0.997463 0.422361 0.250317
219 1 0.0815129 0.506227 0.26345
218 1 0.0759906 0.577471 0.174296
362 1 0.100426 0.584557 0.343285
224 1 0.161383 0.575862 0.260728
228 1 0.325935 0.580949 0.242744
226 1 0.409781 0.574423 0.159374
249 1 0.333998 0.660094 0.163155
251 1 0.41856 0.649931 0.233306
393 1 0.334033 0.664731 0.312912
230 1 0.581049 0.575485 0.176384
229 1 0.507137 0.494267 0.175478
232 1 0.498135 0.582947 0.25778
377 1 0.666407 0.497868 0.327466
236 1 0.673034 0.581699 0.248656
397 1 0.498151 0.657524 0.33238
234 1 0.753619 0.581857 0.160442
235 1 0.751559 0.492285 0.244429
361 1 0.995666 0.500864 0.342887
239 1 0.924258 0.497601 0.256298
220 1 1.00022 0.574226 0.263864
240 1 0.81725 0.577334 0.246558
242 1 0.0924492 0.741695 0.160267
241 1 0.992334 0.660527 0.176095
243 1 0.0675367 0.668036 0.261424
248 1 0.164933 0.722137 0.251874
247 1 0.254151 0.660514 0.235138
271 1 0.246074 0.848974 0.251367
390 1 0.252553 0.742869 0.312405
413 1 0.175446 0.835344 0.334195
417 1 0.332336 0.843439 0.326032
273 1 0.34769 0.820936 0.160897
252 1 0.346133 0.743846 0.236563
275 1 0.405828 0.836235 0.251349
394 1 0.427808 0.736628 0.323086
253 1 0.504834 0.663635 0.169799
255 1 0.58921 0.662208 0.262727
254 1 0.581663 0.737451 0.154743
256 1 0.504276 0.747747 0.252504
398 1 0.582231 0.745398 0.3357
421 1 0.510386 0.833182 0.345251
401 1 0.679594 0.688347 0.328743
260 1 0.657042 0.747817 0.239313
259 1 0.742681 0.674186 0.252898
264 1 0.839178 0.74051 0.254566
261 1 0.838936 0.653169 0.166037
262 1 0.918456 0.736339 0.174503
244 1 0.992389 0.750126 0.258645
263 1 0.902853 0.651563 0.24977
287 1 0.930663 0.841391 0.25724
267 1 0.0997794 0.814657 0.254406
147 1 0.0920296 0.00639701 0.263608
266 1 0.0921879 0.919575 0.184271
268 1 0.00670017 0.910416 0.258202
151 1 0.259782 0.0238124 0.261364
272 1 0.166785 0.926473 0.270127
270 1 0.246254 0.927 0.176975
276 1 0.334642 0.923095 0.250032
414 1 0.244732 0.938441 0.331029
153 1 0.336642 1.00041 0.171561
274 1 0.411552 0.914345 0.165625
155 1 0.420997 0.00460665 0.247584
277 1 0.507546 0.822765 0.166761
279 1 0.580986 0.843242 0.259438
280 1 0.488155 0.922151 0.23832
281 1 0.656627 0.834209 0.165059
282 1 0.766001 0.917397 0.163789
283 1 0.749474 0.842979 0.256099
305 1 0.670828 1.01308 0.330642
284 1 0.672951 0.914947 0.270132
426 1 0.753032 0.915576 0.333632
286 1 0.935729 0.914704 0.163471
167 1 0.9316 1.00081 0.254622
288 1 0.840584 0.930185 0.251272
290 1 0.079958 0.08316 0.333064
313 1 0.985702 0.176521 0.335916
317 1 0.173675 0.180019 0.334821
292 1 0.997834 0.0975507 0.415717
457 1 0.0024886 0.168535 0.512161
296 1 0.179331 0.0971734 0.406105
433 1 -0.00904597 -0.00892095 0.496318
294 1 0.256645 0.101516 0.332077
300 1 0.335078 0.0788638 0.420496
319 1 0.25553 0.186075 0.416954
465 1 0.337246 0.167295 0.500693
298 1 0.426822 0.0827159 0.33355
323 1 0.422782 0.178426 0.419382
301 1 0.502375 1.00707 0.31724
304 1 0.502554 0.0907565 0.425348
327 1 0.580616 0.174557 0.422355
469 1 0.497445 0.167188 0.51427
329 1 0.665454 0.169631 0.334348
306 1 0.751902 0.0906756 0.342507
308 1 0.657927 0.0802827 0.412918
450 1 0.740962 0.0898348 0.505506
309 1 0.830632 0.0142489 0.339089
312 1 0.82204 0.083435 0.424945
477 1 0.822483 0.171257 0.500123
333 1 0.829426 0.175146 0.337868
335 1 0.89936 0.171292 0.418907
311 1 0.908849 -0.00133965 0.417459
314 1 0.0937302 0.254952 0.329585
315 1 0.0891507 0.174498 0.412184
458 1 0.0825098 0.249731 0.506305
341 1 0.170292 0.325802 0.338102
320 1 0.170836 0.251037 0.415281
324 1 0.339479 0.255867 0.428791
343 1 0.253805 0.328641 0.412351
322 1 0.419772 0.25493 0.339141
347 1 0.425739 0.33036 0.42344
489 1 0.340529 0.325775 0.507232
466 1 0.425218 0.25198 0.518843
328 1 0.502311 0.242874 0.432093
351 1 0.578444 0.333689 0.431388
332 1 0.663684 0.242716 0.419342
493 1 0.502466 0.34234 0.515255
470 1 0.592129 0.255336 0.50125
331 1 0.736377 0.161274 0.425524
355 1 0.736593 0.32727 0.429902
497 1 0.650984 0.349822 0.503472
474 1 0.737434 0.252971 0.501905
334 1 0.904895 0.245936 0.337038
316 1 -0.00564043 0.241248 0.431581
336 1 0.813166 0.247929 0.418001
359 1 0.913742 0.32315 0.424786
478 1 0.912023 0.242049 0.505843
338 1 0.0804151 0.424366 0.337754
339 1 0.0877946 0.320569 0.420048
340 1 0.0127905 0.4156 0.424324
481 1 -0.0153733 0.338406 0.50244
482 1 0.0905679 0.416882 0.501098
365 1 0.16408 0.495679 0.330722
344 1 0.168867 0.408331 0.420203
342 1 0.256608 0.401602 0.336218
367 1 0.245975 0.502968 0.406464
485 1 0.168672 0.320176 0.501761
346 1 0.418233 0.418333 0.34315
348 1 0.339879 0.395241 0.424622
490 1 0.417541 0.421996 0.494873
371 1 0.424554 0.499885 0.407186
352 1 0.502044 0.418274 0.41416
494 1 0.578382 0.430739 0.509328
356 1 0.669862 0.427709 0.420529
379 1 0.756898 0.493818 0.421469
498 1 0.754719 0.413902 0.500274
360 1 0.835573 0.409867 0.422734
501 1 0.828082 0.334003 0.504764
337 1 0.00278367 0.339642 0.344246
358 1 0.917436 0.405898 0.338162
502 1 0.916993 0.415875 0.503859
363 1 0.0792045 0.508121 0.412441
385 1 0.990035 0.666018 0.327999
387 1 0.0704357 0.676676 0.406114
368 1 0.165898 0.56983 0.433912
366 1 0.258221 0.575818 0.32189
510 1 0.253325 0.57822 0.498798
389 1 0.164682 0.660854 0.336528
370 1 0.407114 0.574219 0.326817
369 1 0.326012 0.479247 0.327109
372 1 0.324615 0.572319 0.413386
514 1 0.415036 0.588598 0.501848
376 1 0.488305 0.584661 0.408822
395 1 0.405753 0.661043 0.407245
374 1 0.601038 0.578958 0.338604
375 1 0.572176 0.495189 0.418527
518 1 0.582293 0.596492 0.501612
380 1 0.659975 0.580018 0.42489
378 1 0.733688 0.585847 0.346707
521 1 0.674322 0.497668 0.496792
403 1 0.737164 0.674018 0.427619
384 1 0.828669 0.580253 0.411999
405 1 0.826373 0.6687 0.332989
522 1 0.745212 0.582351 0.51439
381 1 0.834806 0.501218 0.325363
383 1 0.922752 0.483063 0.415055
382 1 0.913244 0.583434 0.333188
364 1 1.00187 0.585483 0.40208
526 1 0.908426 0.566213 0.482276
386 1 0.100153 0.760484 0.343209
392 1 0.186331 0.74562 0.422229
388 1 -0.00418845 0.753576 0.404856
553 1 0.00125715 0.83163 0.496405
391 1 0.266353 0.656547 0.416498
415 1 0.260188 0.831679 0.396181
537 1 0.339111 0.66388 0.51793
396 1 0.327903 0.753915 0.391744
538 1 0.407912 0.755811 0.479031
400 1 0.503243 0.752183 0.426603
419 1 0.406913 0.819033 0.400431
541 1 0.480581 0.668385 0.493682
399 1 0.583073 0.667415 0.413108
423 1 0.596485 0.840746 0.412207
402 1 0.757287 0.754513 0.344525
429 1 0.827272 0.830097 0.332336
404 1 0.66251 0.75789 0.422797
408 1 0.84274 0.744198 0.420465
406 1 0.911231 0.753845 0.335181
407 1 0.91961 0.662453 0.413197
431 1 0.9117 0.836997 0.400596
529 1 -0.00203631 0.667023 0.492805
410 1 0.0795562 0.920654 0.3375
291 1 0.07491 -0.0075078 0.421176
411 1 0.0951835 0.843168 0.420537
289 1 0.00181709 0.989261 0.335885
412 1 0.982358 0.927752 0.423145
297 1 0.337821 1.0048 0.328409
295 1 0.251623 0.00715141 0.419147
416 1 0.171532 0.937243 0.416686
293 1 0.156709 1.02001 0.345755
299 1 0.416976 1.61801e-05 0.405713
418 1 0.418609 0.915524 0.331935
420 1 0.344965 0.920641 0.417895
562 1 0.420097 0.935716 0.494851
303 1 0.566996 0.00567724 0.405883
422 1 0.590947 0.915485 0.33676
424 1 0.495863 0.921587 0.414179
428 1 0.672017 0.919515 0.404742
449 1 0.66705 0.988017 0.493805
425 1 0.671884 0.822933 0.322529
307 1 0.751893 0.996513 0.415718
427 1 0.739291 0.834379 0.409931
570 1 0.750057 0.906997 0.492806
409 1 0.00999611 0.844024 0.344132
432 1 0.843954 0.916941 0.425719
430 1 0.90684 0.92165 0.343338
574 1 0.910143 0.896071 0.503049
453 1 0.824502 0.991944 0.507969
573 1 0.829641 0.833832 0.486718
434 1 0.0787551 0.0816456 0.500794
436 1 1.0014 0.0696505 0.572473
605 1 0.161729 0.174265 0.659476
441 1 0.326814 0.0105659 0.495758
438 1 0.242951 0.099653 0.500437
439 1 0.260935 0.0117123 0.5758
440 1 0.168063 0.10081 0.578247
444 1 0.343173 0.0902246 0.588014
442 1 0.417242 0.0810108 0.494734
467 1 0.417948 0.167768 0.59298
448 1 0.501696 0.072457 0.575409
585 1 0.324363 0.00313085 0.654156
586 1 0.411901 0.0797582 0.686143
446 1 0.583732 0.0953872 0.496277
471 1 0.576469 0.162449 0.597501
590 1 0.581366 0.0761125 0.672125
452 1 0.650535 0.07589 0.582074
473 1 0.647414 0.166828 0.507776
475 1 0.736172 0.166277 0.573441
594 1 0.749754 0.0812776 0.658832
617 1 0.661975 0.165111 0.65629
454 1 0.916921 0.0817766 0.491999
456 1 0.831435 0.0746511 0.575243
598 1 0.901863 0.0849481 0.66344
455 1 0.916594 -0.00461494 0.574063
621 1 0.811779 0.170264 0.663275
459 1 0.0857831 0.161344 0.575634
464 1 0.177233 0.252225 0.584468
601 1 0.00448799 0.155829 0.672223
461 1 0.161883 0.172314 0.494754
462 1 0.251152 0.258255 0.499901
463 1 0.261194 0.163969 0.588094
468 1 0.329985 0.241062 0.59639
606 1 0.249016 0.240505 0.668574
491 1 0.418605 0.333742 0.606344
610 1 0.41763 0.246643 0.676533
633 1 0.336612 0.332892 0.683171
472 1 0.516429 0.252702 0.579023
495 1 0.579396 0.3498 0.586197
637 1 0.50624 0.339023 0.678553
613 1 0.493484 0.165377 0.673696
614 1 0.577774 0.241934 0.66662
476 1 0.651673 0.255518 0.587877
499 1 0.74826 0.333477 0.577411
480 1 0.827006 0.243439 0.580477
618 1 0.741919 0.257967 0.653056
479 1 0.925513 0.152347 0.580943
460 1 1.00365 0.254316 0.567555
503 1 0.908742 0.332603 0.585279
622 1 0.929128 0.250473 0.660138
625 1 0.00171768 0.328261 0.668782
509 1 0.176265 0.482839 0.493375
483 1 0.102676 0.323413 0.584711
488 1 0.179913 0.39535 0.578758
507 1 0.0890278 0.513078 0.576633
629 1 0.156967 0.314334 0.680056
487 1 0.268211 0.33883 0.590506
486 1 0.254918 0.398667 0.496911
511 1 0.260447 0.465908 0.577935
630 1 0.234851 0.392967 0.680908
653 1 0.174637 0.495044 0.657739
513 1 0.314201 0.484771 0.484727
492 1 0.349433 0.4069 0.581935
515 1 0.409616 0.498146 0.566688
634 1 0.411086 0.413961 0.668363
661 1 0.48264 0.491001 0.654569
496 1 0.499705 0.426739 0.580924
500 1 0.669677 0.42248 0.600451
519 1 0.588936 0.506957 0.575058
638 1 0.575254 0.43391 0.662245
641 1 0.663965 0.33354 0.670613
523 1 0.755431 0.487574 0.575353
525 1 0.832172 0.494588 0.49688
484 1 0.0167191 0.401758 0.591998
504 1 0.839244 0.418522 0.581421
646 1 0.907247 0.406288 0.665599
527 1 0.917052 0.500135 0.579413
506 1 0.0879692 0.596494 0.492082
533 1 0.1834 0.658734 0.49599
531 1 0.0986994 0.67773 0.570792
677 1 0.164029 0.667867 0.669882
650 1 0.0815081 0.576321 0.663108
512 1 0.186028 0.579279 0.575043
654 1 0.24974 0.597286 0.664483
535 1 0.257274 0.677573 0.588163
516 1 0.320765 0.563063 0.589438
517 1 0.493841 0.505678 0.48915
657 1 0.329073 0.474174 0.663674
539 1 0.418608 0.686259 0.592557
665 1 0.667503 0.499878 0.671469
520 1 0.500174 0.576664 0.569748
662 1 0.581099 0.584516 0.673917
543 1 0.587531 0.665366 0.606426
524 1 0.675275 0.573621 0.59094
528 1 0.835268 0.586561 0.59171
666 1 0.748481 0.5945 0.671216
669 1 0.823454 0.512285 0.660697
505 1 -0.00502162 0.494757 0.510508
508 1 0.999304 0.585167 0.559383
549 1 0.850776 0.64815 0.499506
551 1 0.936702 0.670347 0.581086
530 1 0.0942837 0.750431 0.483639
532 1 0.00829521 0.752199 0.575055
534 1 0.272935 0.748358 0.49331
536 1 0.1832 0.753946 0.55945
681 1 0.347973 0.663286 0.66039
561 1 0.348107 0.844523 0.487471
565 1 0.498899 0.833026 0.496132
685 1 0.485297 0.657386 0.683886
540 1 0.337879 0.758457 0.584263
544 1 0.512327 0.743829 0.576459
563 1 0.422015 0.82737 0.573646
542 1 0.596033 0.741509 0.498379
709 1 0.511195 0.825978 0.674259
545 1 0.656923 0.659977 0.509388
546 1 0.745807 0.752314 0.501705
547 1 0.732396 0.667952 0.586028
548 1 0.662951 0.761961 0.589171
690 1 0.750659 0.743682 0.665547
689 1 0.678479 0.667735 0.683995
552 1 0.851547 0.750662 0.557247
550 1 0.936364 0.748739 0.495513
575 1 0.920411 0.824537 0.59578
554 1 0.0816603 0.914165 0.489059
557 1 0.178678 0.847125 0.484722
435 1 0.0850858 0.998655 0.571077
555 1 0.0847551 0.837792 0.570792
556 1 -0.00422 0.911494 0.579041
560 1 0.180506 0.928668 0.572608
437 1 0.153176 0.00878286 0.497813
558 1 0.255154 0.915728 0.478463
705 1 0.330663 0.819861 0.667888
559 1 0.272116 0.843597 0.562128
702 1 0.262002 0.914988 0.667729
445 1 0.506017 0.011735 0.495469
443 1 0.411469 0.00678123 0.573543
564 1 0.338046 0.922682 0.573912
568 1 0.499693 0.919353 0.566084
447 1 0.579865 0.984641 0.57103
567 1 0.57758 0.842183 0.581169
566 1 0.575808 0.923854 0.488113
569 1 0.67319 0.831009 0.514506
451 1 0.741514 -0.000843383 0.580032
571 1 0.747998 0.835667 0.588782
593 1 0.651547 0.995795 0.67076
572 1 0.675547 0.920588 0.582837
714 1 0.746213 0.918042 0.669735
713 1 0.66557 0.848115 0.665681
576 1 0.82745 0.918636 0.587346
578 1 0.0734188 0.0745195 0.66442
580 1 0.984967 0.0772106 0.747752
581 1 0.16285 0.00310582 0.660369
722 1 0.0751372 0.0606921 0.830934
584 1 0.174445 0.0839699 0.775261
582 1 0.242156 0.0865748 0.669898
583 1 0.236255 1.00749 0.749001
725 1 0.162279 0.999724 0.839221
588 1 0.316426 0.0803837 0.750383
611 1 0.417044 0.158932 0.758534
587 1 0.421485 0.988364 0.737164
591 1 0.584793 4.51332e-05 0.756862
592 1 0.494276 0.0879836 0.755116
734 1 0.586387 0.0817314 0.841569
596 1 0.653341 0.079786 0.752145
619 1 0.732941 0.154535 0.746673
738 1 0.736945 0.0854222 0.830557
595 1 0.729025 -0.00147339 0.750313
737 1 0.664008 1.00362 0.835619
597 1 0.822566 -0.00305629 0.662166
577 1 0.010029 0.986762 0.670274
600 1 0.823888 0.0873469 0.737136
623 1 0.911124 0.157519 0.727312
741 1 0.817684 0.994006 0.815542
603 1 0.0777104 0.141165 0.750405
602 1 0.0737117 0.247719 0.654361
608 1 0.139415 0.237274 0.752494
749 1 0.179623 0.179059 0.83695
609 1 0.336297 0.155819 0.670476
607 1 0.243428 0.163036 0.748103
631 1 0.255162 0.315346 0.750459
612 1 0.330811 0.236093 0.743566
750 1 0.264361 0.246406 0.849056
616 1 0.488313 0.240113 0.75954
753 1 0.331189 0.170119 0.822819
615 1 0.576944 0.16571 0.745681
639 1 0.585842 0.330908 0.74455
758 1 0.581229 0.25301 0.827198
620 1 0.671844 0.247178 0.759456
643 1 0.74937 0.325894 0.745283
761 1 0.660771 0.172193 0.830702
604 1 -0.00356628 0.240725 0.756521
645 1 0.839267 0.32305 0.668284
624 1 0.828143 0.237947 0.745213
766 1 0.916625 0.243119 0.833203
626 1 0.0852487 0.426192 0.664513
627 1 0.0828648 0.344311 0.75621
770 1 0.083486 0.420257 0.842383
632 1 0.162091 0.416518 0.764
628 1 0.991056 0.411489 0.745386
651 1 0.0838812 0.492654 0.749088
797 1 0.155775 0.500634 0.829105
793 1 0.995848 0.502274 0.827939
655 1 0.246392 0.498219 0.745127
801 1 0.340976 0.494157 0.833067
773 1 0.170375 0.319993 0.829977
774 1 0.241937 0.404563 0.834214
636 1 0.326489 0.417861 0.75625
635 1 0.425347 0.340369 0.746153
659 1 0.418138 0.491857 0.759637
777 1 0.332013 0.333652 0.820481
778 1 0.412752 0.40609 0.830482
640 1 0.522148 0.419134 0.750961
644 1 0.656297 0.41462 0.754433
782 1 0.586545 0.425501 0.843868
805 1 0.501515 0.496628 0.838342
642 1 0.756172 0.424119 0.664705
785 1 0.669629 0.334641 0.82872
786 1 0.750969 0.420542 0.829675
809 1 0.664438 0.502865 0.830343
647 1 0.916406 0.3301 0.753296
648 1 0.835295 0.402042 0.748161
671 1 0.908653 0.482033 0.741516
813 1 0.826517 0.499256 0.817448
789 1 0.834995 0.334741 0.832191
673 1 0.0247472 0.670318 0.650718
794 1 0.0950337 0.58793 0.828987
817 1 0.00371326 0.674791 0.816061
649 1 0.988953 0.506003 0.664659
652 1 0.00276047 0.576553 0.750588
656 1 0.166444 0.568775 0.738429
679 1 0.263233 0.654647 0.749181
798 1 0.257227 0.574994 0.826245
660 1 0.335428 0.569574 0.735785
825 1 0.349114 0.654907 0.842973
821 1 0.175525 0.661616 0.824943
658 1 0.411037 0.579295 0.628243
664 1 0.501275 0.570488 0.757146
802 1 0.421516 0.572533 0.832597
829 1 0.491458 0.656192 0.840321
663 1 0.578783 0.511709 0.752468
668 1 0.663123 0.584801 0.761796
687 1 0.584084 0.658603 0.744156
806 1 0.57201 0.583075 0.840103
667 1 0.745599 0.508809 0.744609
810 1 0.749094 0.592817 0.830681
691 1 0.764526 0.670383 0.753678
693 1 0.837697 0.679715 0.645006
672 1 0.829904 0.583394 0.744017
670 1 0.937401 0.596504 0.65902
814 1 0.925301 0.592874 0.817197
695 1 0.921917 0.667388 0.73967
674 1 0.0892392 0.759045 0.649312
675 1 0.0907715 0.670762 0.741722
676 1 0.0158654 0.752369 0.732354
818 1 0.100927 0.767381 0.834809
841 1 0.00881259 0.842781 0.818254
845 1 0.177265 0.842383 0.842178
678 1 0.263377 0.734631 0.673612
680 1 0.174893 0.756912 0.755985
684 1 0.347304 0.756913 0.759274
682 1 0.421035 0.761049 0.65965
683 1 0.403038 0.65165 0.754666
688 1 0.485844 0.748908 0.753377
826 1 0.414304 0.746654 0.851769
686 1 0.590726 0.757883 0.674259
833 1 0.667758 0.670351 0.824228
711 1 0.587469 0.836834 0.762392
692 1 0.667534 0.756377 0.749255
834 1 0.749046 0.757455 0.823498
717 1 0.828129 0.836076 0.660818
694 1 0.913477 0.757217 0.666635
696 1 0.835623 0.748063 0.748206
698 1 0.100254 0.902946 0.654889
579 1 0.0934249 1.00387 0.740808
699 1 0.102107 0.832233 0.733353
697 1 0.0084852 0.842902 0.658745
700 1 0.00762718 0.914267 0.741554
704 1 0.174444 0.911695 0.749231
701 1 0.196389 0.822966 0.65737
703 1 0.265491 0.834149 0.754293
849 1 0.353116 0.833728 0.835991
589 1 0.503301 0.016087 0.664285
707 1 0.417503 0.841512 0.730096
708 1 0.337132 0.914505 0.737431
706 1 0.429891 0.919342 0.651756
710 1 0.57635 0.92121 0.682438
733 1 0.49987 0.014188 0.831604
712 1 0.509556 0.916514 0.75697
854 1 0.582957 0.909552 0.853795
715 1 0.74034 0.838555 0.741702
716 1 0.652155 0.921307 0.764692
718 1 0.919957 0.915298 0.657209
599 1 0.915718 -0.0166132 0.739927
719 1 0.91705 0.848317 0.73738
720 1 0.832111 0.915383 0.738663
2 1 0.0710146 0.0770809 0.00876931
724 1 -0.00837972 0.0693824 0.909624
723 1 0.0635512 0.975843 0.930317
728 1 0.163383 0.0892356 0.916942
6 1 0.239996 0.0798538 0.0106011
726 1 0.263262 0.0932858 0.859793
751 1 0.252104 0.167569 0.951757
732 1 0.347753 0.0862642 0.933893
730 1 0.398719 0.0710793 0.82467
736 1 0.502359 0.0749035 0.920997
759 1 0.589521 0.170772 0.913039
735 1 0.587496 0.00144136 0.919798
740 1 0.667755 0.0941591 0.915421
763 1 0.742562 0.172301 0.913931
17 1 0.660774 1.00434 -0.00118171
22 1 0.924664 0.076287 1.00387
1 1 0.00252822 0.985149 0.0158293
744 1 0.816415 0.0754611 0.901414
742 1 0.904242 0.0712895 0.832083
21 1 0.844231 -0.0139021 0.990333
743 1 0.904369 1.00325 0.9099
745 1 0.990255 0.154403 0.836942
746 1 0.084526 0.252458 0.84255
747 1 0.0782864 0.159312 0.906559
752 1 0.163389 0.24359 0.926929
25 1 0.00119452 0.160216 0.985969
30 1 0.24898 0.258943 0.0162117
33 1 0.342476 0.170282 0.0164301
756 1 0.327956 0.247435 0.939582
34 1 0.41742 0.257926 0.0103929
57 1 0.338073 0.33585 0.0135091
755 1 0.421099 0.156106 0.892138
754 1 0.405441 0.247603 0.839762
38 1 0.580463 0.247936 -0.00399906
41 1 0.677973 0.170574 0.997581
757 1 0.505082 0.159539 0.835487
760 1 0.503919 0.247511 0.909294
764 1 0.674173 0.251421 0.917258
45 1 0.845241 0.16418 0.000952211
42 1 0.756713 0.239229 0.997414
762 1 0.756634 0.238238 0.830905
787 1 0.756246 0.328646 0.9098
765 1 0.828357 0.151025 0.826294
769 1 -0.00928706 0.344054 0.834626
767 1 0.904399 0.153705 0.913869
748 1 0.995515 0.23874 0.905908
768 1 0.837885 0.245525 0.906729
771 1 0.0836034 0.328898 0.913809
772 1 0.999402 0.413167 0.919286
795 1 0.083161 0.507467 0.911041
77 1 0.164321 0.48812 0.992481
54 1 0.252814 0.404438 1.00254
775 1 0.241673 0.326641 0.921894
53 1 0.162775 0.344369 0.998115
776 1 0.159971 0.411105 0.911666
799 1 0.252405 0.477284 0.909687
779 1 0.412836 0.325976 0.917258
780 1 0.333794 0.404262 0.907259
784 1 0.499378 0.404708 0.916669
803 1 0.430205 0.484995 0.922278
89 1 0.654363 0.503397 0.00973251
781 1 0.508287 0.322279 0.825721
783 1 0.593246 0.328807 0.905854
807 1 0.581093 0.502254 0.920813
788 1 0.669075 0.430543 0.907682
792 1 0.836276 0.408321 0.906125
811 1 0.771548 0.499209 0.917911
790 1 0.910647 0.4131 0.83054
791 1 0.915885 0.32691 0.902522
93 1 0.845316 0.504304 0.987184
74 1 0.0840013 0.591214 0.981259
819 1 0.0907404 0.663315 0.900023
796 1 0.997107 0.592683 0.90514
101 1 0.184852 0.657626 0.993961
78 1 0.243768 0.577904 0.993451
800 1 0.168012 0.579657 0.906721
823 1 0.256075 0.655068 0.903848
105 1 0.335432 0.643943 0.998549
804 1 0.341564 0.566976 0.912882
827 1 0.421078 0.671819 0.936401
808 1 0.50309 0.585051 0.926327
831 1 0.573962 0.665198 0.915703
812 1 0.66633 0.577634 0.913931
109 1 0.489914 0.654201 0.0163831
113 1 0.664884 0.644014 0.000238921
837 1 0.849164 0.672594 0.825291
90 1 0.756521 0.584396 0.982066
815 1 0.910725 0.501878 0.899298
816 1 0.848337 0.591532 0.8976
97 1 0.0109045 0.663474 1.00176
98 1 0.0998513 0.747368 0.991655
843 1 0.0798327 0.838965 0.920502
102 1 0.265135 0.730893 -0.00620953
822 1 0.253672 0.747864 0.83999
824 1 0.175291 0.750424 0.907725
828 1 0.332303 0.739485 0.914307
106 1 0.408344 0.753241 1.00351
851 1 0.412538 0.844843 0.934479
832 1 0.496521 0.738267 0.927977
830 1 0.576078 0.75519 0.820446
855 1 0.579129 0.829756 0.917648
835 1 0.748479 0.670143 0.911447
836 1 0.645794 0.745934 0.913473
141 1 0.836799 0.826574 0.0088899
840 1 0.83457 0.751825 0.897259
859 1 0.757566 0.832309 0.910043
861 1 0.831279 0.836451 0.817538
838 1 0.930698 0.76343 0.794445
839 1 0.926783 0.684366 0.904396
820 1 1.00397 0.767456 0.900258
863 1 0.909264 0.827703 0.908992
122 1 0.112912 0.891896 1.00819
842 1 0.0866693 0.917497 0.828466
848 1 0.178413 0.91677 0.920778
727 1 0.248359 0.0023349 0.913913
729 1 0.325841 -0.00733715 0.837975
125 1 0.194772 0.820925 -0.0136413
847 1 0.27002 0.847614 0.908887
846 1 0.260109 0.91627 0.818411
133 1 0.494521 0.848587 1.01065
853 1 0.48124 0.831604 0.84235
852 1 0.338341 0.915696 0.917612
850 1 0.401428 0.930093 0.823714
731 1 0.415718 -0.000336788 0.91767
13 1 0.491566 0.010299 0.00150245
856 1 0.508756 0.924946 0.933458
138 1 0.76193 0.901118 -0.00868562
857 1 0.668106 0.825031 0.842157
858 1 0.750083 0.908465 0.827246
137 1 0.668719 0.808658 0.993737
739 1 0.749072 -0.00389874 0.931507
860 1 0.672253 0.914294 0.919082
862 1 0.922094 0.910701 0.824662
721 1 1.00241 0.988335 0.825563
844 1 0.986448 0.906491 0.910731
864 1 0.834757 0.912287 0.898144
