ITEM: TIMESTEP
4250
ITEM: NUMBER OF ATOMS
864
ITEM: BOX BOUNDS pp pp pp
0.0000000000000000e+00 3.1559999999999999e+01
0.0000000000000000e+00 3.1559999999999999e+01
0.0000000000000000e+00 3.1559999999999999e+01
ITEM: ATOMS id type xs ys zs
27 1 0.0680145 0.184672 0.0844599
4 1 0.990406 0.0902324 0.081413
146 1 0.0761831 0.0920036 0.169167
8 1 0.168344 0.0906467 0.098593
6 1 0.266178 0.0790297 -0.000493885
12 1 0.337729 0.0726287 0.0919904
35 1 0.418747 0.150717 0.0845208
33 1 0.339807 0.165566 0.015215
11 1 0.435337 1.00481 0.0923188
13 1 0.509616 0.998928 1.0038
10 1 0.417949 0.0677669 0.00352253
37 1 0.497928 0.165209 1.00527
16 1 0.498202 0.0831917 0.0969877
20 1 0.683367 0.0832111 0.084512
39 1 0.58574 0.149596 0.0741868
17 1 0.6648 0.996478 0.995865
24 1 0.825614 0.0540218 0.06796
19 1 0.734873 0.983965 0.0891802
18 1 0.747328 0.0838084 0.985341
21 1 0.837419 0.980735 0.987457
166 1 0.916745 0.102443 0.181439
22 1 0.918671 0.0864352 1.00603
51 1 0.073292 0.322822 0.0884009
28 1 0.980254 0.246828 0.0805252
29 1 0.156938 0.160627 0.00782832
26 1 0.0672328 0.242328 0.99078
32 1 0.155391 0.250402 0.0752763
31 1 0.243459 0.159103 0.0831502
30 1 0.246826 0.248925 0.00257324
55 1 0.248099 0.322651 0.0817993
36 1 0.335232 0.238952 0.0913676
34 1 0.422827 0.245531 0.00441804
40 1 0.501468 0.23338 0.0831985
44 1 0.665481 0.24538 0.0741443
61 1 0.500142 0.32572 1.00306
38 1 0.577876 0.246551 0.996796
65 1 0.667956 0.338889 0.991059
43 1 0.752188 0.183509 0.0788203
213 1 0.818343 0.341163 0.155884
189 1 0.833169 0.163064 0.163665
42 1 0.748568 0.247478 0.992611
47 1 0.90749 0.164346 0.080549
48 1 0.8329 0.264901 0.0687616
71 1 0.911608 0.353075 0.0806867
45 1 0.830958 0.179385 -0.00872601
46 1 0.922644 0.242601 0.985532
50 1 0.0746474 0.424441 0.976558
75 1 0.0702682 0.504252 0.0860463
194 1 0.0732856 0.421111 0.183178
52 1 0.00842115 0.412567 0.0798624
193 1 -0.00484915 0.335348 0.182642
56 1 0.145128 0.422365 0.0789003
53 1 0.148776 0.331557 0.0104799
54 1 0.243113 0.399475 0.00251361
60 1 0.326538 0.403159 0.0840676
59 1 0.416949 0.325034 0.0830792
64 1 0.496148 0.408399 0.088606
58 1 0.41625 0.406751 -0.000449667
63 1 0.576116 0.322604 0.0743949
68 1 0.66848 0.420983 0.0864809
206 1 0.572483 0.412525 0.160753
62 1 0.584055 0.411413 0.0114972
67 1 0.745228 0.346411 0.0796079
72 1 0.829531 0.414875 0.0810078
91 1 0.752905 0.498927 0.0783521
210 1 0.750617 0.427288 0.15585
93 1 0.842262 0.486664 0.996018
95 1 0.918836 0.497991 0.0842452
214 1 0.906623 0.41924 0.179342
218 1 0.0744787 0.574636 0.173596
99 1 0.0866387 0.668821 0.0775588
80 1 0.161884 0.573207 0.0906661
79 1 0.236897 0.501492 0.0835603
84 1 0.332928 0.584172 0.0898006
222 1 0.239161 0.565932 0.167998
245 1 0.153092 0.668898 0.16236
83 1 0.413845 0.491584 0.0894181
88 1 0.495207 0.596024 0.0944097
107 1 0.406657 0.655169 0.080581
253 1 0.493797 0.675455 0.187434
225 1 0.321739 0.489462 0.167486
229 1 0.493276 0.512362 0.180705
226 1 0.413143 0.595706 0.184015
87 1 0.560072 0.496318 0.0931179
230 1 0.569682 0.589656 0.170505
86 1 0.573964 0.558202 0.00797334
111 1 0.575093 0.6796 0.0874483
113 1 0.659152 0.648332 0.00761926
92 1 0.652439 0.568611 0.0825103
115 1 0.744141 0.66513 0.0743217
90 1 0.74928 0.575385 0.000294026
241 1 0.000494674 0.66335 0.160118
96 1 0.834968 0.588237 0.101482
76 1 0.00941756 0.588363 0.0780149
261 1 0.838009 0.678909 0.165325
101 1 0.164979 0.66509 0.988554
104 1 0.179108 0.760159 0.0837082
242 1 0.094742 0.756952 0.153532
123 1 0.0801497 0.836211 0.0805262
125 1 0.171476 0.828039 0.0100538
103 1 0.230279 0.665498 0.0733629
102 1 0.259547 0.75649 0.00338437
127 1 0.256328 0.85476 0.094876
249 1 0.329566 0.665069 0.165652
246 1 0.232952 0.76325 0.173795
108 1 0.347737 0.75753 0.077498
129 1 0.345874 0.83104 0.00492989
112 1 0.486746 0.743742 0.108618
135 1 0.582136 0.828347 0.0910329
116 1 0.681476 0.739415 0.0865257
137 1 0.662664 0.835105 0.0016114
281 1 0.657026 0.840577 0.159727
258 1 0.755059 0.745407 0.164918
120 1 0.831265 0.748379 0.067906
117 1 0.82781 0.653848 1.01485
114 1 0.744747 0.755241 0.00149658
119 1 0.924833 0.663068 0.0858628
100 1 0.00405827 0.748276 0.0847864
285 1 0.828769 0.827178 0.153356
265 1 0.00412726 0.831365 0.152573
118 1 0.925804 0.753028 0.0115113
3 1 0.0827176 0.00903939 0.0979451
145 1 0.979304 0.00857605 0.176601
122 1 0.0855577 0.913043 0.00281899
266 1 0.0710941 0.910621 0.16062
269 1 0.167989 0.848373 0.164868
128 1 0.162324 0.9299 0.0927347
7 1 0.240054 0.0123699 0.0845262
132 1 0.3511 0.91443 0.0817477
126 1 0.241998 0.910988 -0.00648392
131 1 0.425562 0.834819 0.0987425
136 1 0.504949 0.915949 0.0848107
130 1 0.422916 0.918859 0.00489041
15 1 0.579355 0.00585538 0.0923589
140 1 0.645333 0.917679 0.0968974
134 1 0.58857 0.913634 1.01029
139 1 0.739383 0.836477 0.0890216
138 1 0.754732 0.904368 0.992687
23 1 0.916498 0.990015 0.0758523
141 1 0.838961 0.832181 -0.000975948
124 1 0.00507228 0.924691 0.0825592
144 1 0.830825 0.913282 0.0686187
143 1 0.915976 0.83683 0.0820868
142 1 0.916354 0.911615 -0.00731848
171 1 0.0891866 0.165705 0.259696
152 1 0.152307 0.0732708 0.263978
317 1 0.158448 0.157002 0.354138
290 1 0.0759665 0.0893026 0.347514
173 1 0.17009 0.168536 0.171777
150 1 0.248932 0.0756632 0.171403
156 1 0.326129 0.0821723 0.256807
175 1 0.246129 0.158446 0.251723
297 1 0.33274 0.990836 0.332836
154 1 0.408136 0.0671946 0.176517
153 1 0.331606 0.995556 0.163204
181 1 0.492642 0.172692 0.172356
160 1 0.491077 0.0885882 0.25236
179 1 0.41746 0.165983 0.250894
157 1 0.499406 1.00892 0.174901
158 1 0.591324 0.0844895 0.173529
183 1 0.579656 0.156654 0.249026
164 1 0.660384 0.0671924 0.254122
159 1 0.581976 0.998294 0.255285
325 1 0.502346 0.17698 0.333886
162 1 0.756023 0.0852368 0.167788
185 1 0.676517 0.156646 0.174479
168 1 0.842285 0.090981 0.262246
161 1 0.659367 -0.00190392 0.167811
329 1 0.662423 0.153099 0.32384
148 1 -0.00441506 0.0939713 0.248226
167 1 0.907183 1.00217 0.262597
310 1 0.92558 0.0865706 0.338012
309 1 0.834285 1.00453 0.335689
170 1 0.0873533 0.250791 0.181654
176 1 0.178517 0.242685 0.247923
314 1 0.0914412 0.246272 0.338333
313 1 0.986361 0.170243 0.3453
174 1 0.265529 0.236321 0.169288
180 1 0.340782 0.254807 0.25543
178 1 0.418377 0.25234 0.165669
177 1 0.345033 0.152355 0.172751
184 1 0.496009 0.25599 0.244766
205 1 0.501504 0.322637 0.157546
182 1 0.577254 0.232861 0.150542
207 1 0.584095 0.325423 0.241301
188 1 0.658189 0.238027 0.247974
353 1 0.674558 0.326782 0.333181
186 1 0.730897 0.252406 0.161792
187 1 0.748915 0.163416 0.252124
192 1 0.815906 0.261241 0.231476
211 1 0.720296 0.334736 0.237558
333 1 0.829593 0.168767 0.341115
169 1 -0.00922787 0.183626 0.173567
190 1 0.90861 0.253618 0.163611
191 1 0.912521 0.173826 0.263131
172 1 -0.00272072 0.244982 0.261577
215 1 0.903347 0.324086 0.246483
357 1 0.81711 0.336396 0.323451
197 1 0.176162 0.312662 0.169144
195 1 0.0800819 0.335712 0.260093
219 1 0.0851375 0.500543 0.27012
337 1 1.00442 0.327624 0.339943
200 1 0.159595 0.409205 0.258881
199 1 0.249485 0.339637 0.266535
198 1 0.226892 0.41651 0.159333
342 1 0.251735 0.425528 0.342303
201 1 0.321546 0.340016 0.173111
204 1 0.329291 0.415408 0.257657
203 1 0.411057 0.335931 0.2399
202 1 0.411885 0.419779 0.164465
208 1 0.493119 0.410707 0.246665
209 1 0.656701 0.338016 0.147766
212 1 0.674632 0.423107 0.24779
233 1 0.648304 0.49727 0.162824
235 1 0.757642 0.500327 0.245691
354 1 0.744278 0.418363 0.33338
216 1 0.817999 0.402848 0.239704
196 1 -0.0091975 0.42638 0.255817
239 1 0.908675 0.513947 0.257846
237 1 0.836315 0.49953 0.166258
221 1 0.151824 0.493378 0.179363
224 1 0.155396 0.578162 0.251418
362 1 0.0778349 0.581157 0.333921
361 1 1.0008 0.505266 0.335215
223 1 0.246106 0.48864 0.243906
366 1 0.239023 0.578272 0.322364
365 1 0.171683 0.497863 0.337049
227 1 0.400164 0.503181 0.236363
373 1 0.494634 0.50153 0.333867
228 1 0.330298 0.575329 0.242795
232 1 0.500666 0.59001 0.25947
369 1 0.322047 0.505978 0.332541
370 1 0.403692 0.582766 0.323845
231 1 0.566137 0.48405 0.252303
236 1 0.651402 0.572136 0.246234
255 1 0.587044 0.674192 0.251948
374 1 0.580455 0.578392 0.332546
234 1 0.749575 0.584211 0.159195
378 1 0.743989 0.586265 0.311998
381 1 0.834675 0.498424 0.327767
240 1 0.832086 0.593825 0.231481
259 1 0.746582 0.663636 0.232123
405 1 0.82232 0.676251 0.317207
217 1 0.996655 0.493862 0.171022
238 1 0.919578 0.57173 0.162865
220 1 -0.00262529 0.587431 0.255569
243 1 0.0744134 0.673114 0.255652
248 1 0.162302 0.754153 0.244944
413 1 0.156006 0.831318 0.344375
247 1 0.234838 0.668545 0.251493
389 1 0.15274 0.665048 0.328371
271 1 0.239446 0.838034 0.258658
251 1 0.406834 0.665382 0.259296
252 1 0.320768 0.74517 0.257398
250 1 0.409106 0.751017 0.196296
275 1 0.40397 0.845291 0.264482
277 1 0.492574 0.844496 0.169302
394 1 0.417541 0.754192 0.347317
257 1 0.663413 0.654159 0.158131
256 1 0.513424 0.7651 0.246302
254 1 0.576797 0.7549 0.163658
397 1 0.489974 0.683653 0.336953
398 1 0.580533 0.752697 0.326958
401 1 0.674095 0.678953 0.332078
260 1 0.66213 0.74524 0.22094
264 1 0.837542 0.768105 0.244292
429 1 0.844454 0.836871 0.33478
262 1 0.92611 0.750201 0.159717
263 1 0.918268 0.660731 0.241379
244 1 0.00768645 0.747967 0.234405
287 1 0.927771 0.837021 0.234343
385 1 0.994708 0.684239 0.331309
149 1 0.145469 0.992841 0.179442
147 1 0.0791235 0.998378 0.257657
267 1 0.086918 0.837797 0.24005
272 1 0.149728 0.916513 0.261379
151 1 0.238253 0.00431686 0.250251
270 1 0.245144 0.92339 0.175611
414 1 0.245332 0.925827 0.341582
273 1 0.333576 0.832929 0.170981
274 1 0.410053 0.925704 0.17946
276 1 0.321894 0.914419 0.25053
155 1 0.420741 0.0087911 0.272233
278 1 0.577666 0.922442 0.182191
279 1 0.593953 0.834951 0.24782
280 1 0.500148 0.923308 0.24979
284 1 0.672964 0.918918 0.247778
165 1 0.840354 0.00878146 0.187144
163 1 0.759638 0.994222 0.248172
283 1 0.753092 0.84324 0.245731
282 1 0.773182 0.914457 0.164153
426 1 0.762347 0.915007 0.327623
286 1 0.908851 0.923798 0.157332
409 1 0.986725 0.831992 0.326202
268 1 -0.0144717 0.916721 0.25678
288 1 0.838386 0.918502 0.24622
296 1 0.173296 0.0763725 0.425255
315 1 0.0847827 0.171813 0.429085
461 1 0.183762 0.17188 0.509354
457 1 1.00089 0.179076 0.511534
434 1 0.0920533 0.0891676 0.50246
437 1 0.153202 0.993341 0.501371
294 1 0.239603 0.0757355 0.328849
438 1 0.269721 0.0938006 0.492021
295 1 0.254004 0.00246751 0.418026
298 1 0.431569 0.086651 0.338174
441 1 0.33259 0.00228882 0.499892
300 1 0.352008 0.0844722 0.394695
304 1 0.511643 0.078593 0.415688
299 1 0.423691 0.00124557 0.415451
302 1 0.5695 0.0834256 0.317297
327 1 0.586066 0.15023 0.402241
308 1 0.662098 0.078932 0.407162
301 1 0.509656 0.991805 0.33728
303 1 0.589181 0.997045 0.40833
446 1 0.576493 0.0791879 0.499999
306 1 0.750866 0.0825228 0.325084
450 1 0.758663 0.0855876 0.492676
307 1 0.751842 0.0001915 0.421401
292 1 0.998059 0.0996442 0.426649
312 1 0.843243 0.0805025 0.41091
311 1 0.924609 0.00807823 0.420496
477 1 0.835148 0.175786 0.51451
433 1 0.00115263 -0.011223 0.498732
339 1 0.0864226 0.341555 0.419961
458 1 0.0834284 0.247176 0.500075
316 1 -0.00409386 0.246285 0.4178
318 1 0.243974 0.241057 0.332753
320 1 0.181582 0.246366 0.419036
319 1 0.247681 0.157137 0.411889
321 1 0.327829 0.164903 0.340304
323 1 0.42161 0.181829 0.406991
322 1 0.421347 0.265864 0.325146
324 1 0.320047 0.248248 0.407076
349 1 0.505395 0.339957 0.328663
347 1 0.42012 0.332977 0.402909
328 1 0.508058 0.254531 0.40513
326 1 0.588867 0.250248 0.337071
332 1 0.668993 0.233644 0.402316
331 1 0.756358 0.158514 0.411538
330 1 0.744986 0.24211 0.315277
474 1 0.746976 0.239047 0.492185
334 1 0.905345 0.264443 0.351588
335 1 0.904659 0.174087 0.421761
336 1 0.827335 0.261419 0.42204
478 1 0.917254 0.247806 0.504888
501 1 0.836587 0.326765 0.507905
341 1 0.168875 0.32767 0.346065
338 1 0.0756537 0.420767 0.34038
340 1 0.987113 0.431101 0.41923
481 1 0.99818 0.334959 0.485389
482 1 0.103921 0.417246 0.506405
505 1 1.00235 0.500815 0.509135
485 1 0.173073 0.323952 0.508619
343 1 0.247588 0.338381 0.420929
344 1 0.171758 0.414822 0.412782
367 1 0.253594 0.496983 0.427198
513 1 0.342619 0.491816 0.494961
346 1 0.416761 0.423771 0.323576
345 1 0.318786 0.336574 0.347278
348 1 0.346545 0.430963 0.408818
371 1 0.427559 0.517956 0.421457
350 1 0.594507 0.402694 0.326794
352 1 0.515092 0.4199 0.403223
351 1 0.574149 0.335071 0.423223
494 1 0.602095 0.41143 0.513859
377 1 0.664483 0.49597 0.339758
355 1 0.756013 0.332631 0.429065
356 1 0.675206 0.409099 0.427234
498 1 0.757028 0.419645 0.50269
360 1 0.825957 0.420588 0.411178
379 1 0.752548 0.517612 0.410672
358 1 0.907071 0.405221 0.333202
359 1 0.912923 0.34625 0.429505
383 1 0.925437 0.5163 0.399965
502 1 0.916884 0.426345 0.499142
525 1 0.829718 0.504121 0.489386
363 1 0.0753365 0.498956 0.423619
364 1 0.999683 0.595407 0.408492
368 1 0.157876 0.589939 0.418399
509 1 0.170848 0.501809 0.497991
506 1 0.0846465 0.569787 0.508763
510 1 0.26179 0.585087 0.496652
391 1 0.255546 0.649095 0.402412
393 1 0.33101 0.661238 0.330206
372 1 0.34298 0.576978 0.423336
514 1 0.41626 0.578164 0.510024
376 1 0.504285 0.601969 0.404775
375 1 0.594387 0.509895 0.418951
518 1 0.586135 0.593938 0.496235
521 1 0.672447 0.497328 0.486815
380 1 0.666723 0.588159 0.407502
384 1 0.834579 0.586967 0.415621
382 1 0.912983 0.598804 0.33092
407 1 0.918103 0.673764 0.411747
526 1 0.929536 0.575897 0.493864
387 1 0.0810949 0.665452 0.41905
386 1 0.0743643 0.76416 0.318086
411 1 0.0927163 0.823973 0.432248
553 1 0.981751 0.84254 0.514824
530 1 0.0955076 0.742393 0.511194
533 1 0.171432 0.66494 0.506003
392 1 0.15959 0.739142 0.415164
390 1 0.241801 0.750388 0.339499
415 1 0.250147 0.836895 0.426458
396 1 0.333398 0.734597 0.421157
395 1 0.415471 0.656039 0.410394
419 1 0.403699 0.845935 0.415617
400 1 0.502717 0.743237 0.414968
399 1 0.577663 0.675088 0.419133
404 1 0.672059 0.754029 0.411504
403 1 0.754002 0.649183 0.399317
402 1 0.752645 0.749074 0.310767
427 1 0.757404 0.837317 0.408695
546 1 0.753562 0.763687 0.500803
408 1 0.829324 0.74327 0.407789
573 1 0.834092 0.846893 0.503782
569 1 0.668341 0.844273 0.504662
388 1 0.0142381 0.758201 0.408089
406 1 0.906076 0.74556 0.324859
529 1 -0.0069877 0.687137 0.491053
550 1 0.917112 0.75525 0.49113
410 1 0.0807595 0.911645 0.349582
289 1 1.00618 0.995838 0.332985
291 1 0.0744747 0.0172854 0.418685
554 1 0.0839874 0.901282 0.499273
416 1 0.174341 0.910457 0.423857
293 1 0.159732 0.99368 0.335703
558 1 0.250075 0.923001 0.496681
417 1 0.32254 0.838973 0.342032
420 1 0.328214 0.930523 0.422177
418 1 0.422096 0.929193 0.344327
562 1 0.400925 0.903147 0.511534
424 1 0.496267 0.914856 0.430041
422 1 0.574259 0.911163 0.328381
423 1 0.573989 0.832888 0.419127
421 1 0.492309 0.841014 0.34966
425 1 0.672656 0.827521 0.338043
428 1 0.669046 0.902664 0.409843
305 1 0.684141 0.996171 0.336344
432 1 0.833762 0.919485 0.414863
570 1 0.742245 0.927243 0.493728
431 1 0.916185 0.832153 0.425535
412 1 -0.00393281 0.911885 0.420136
430 1 0.907652 0.926329 0.348732
574 1 0.914579 0.930349 0.509178
436 1 0.999136 0.074087 0.573173
605 1 0.184632 0.171515 0.66854
435 1 0.0913886 0.0141102 0.581336
440 1 0.178362 0.0772717 0.571293
463 1 0.262921 0.164745 0.589097
442 1 0.413772 0.0869789 0.486236
465 1 0.351235 0.178724 0.47964
444 1 0.345431 0.102342 0.5695
448 1 0.495737 0.0965902 0.590291
467 1 0.421432 0.182762 0.563361
586 1 0.414571 0.0853784 0.676707
469 1 0.501276 0.165242 0.497328
445 1 0.496475 1.01739 0.505553
471 1 0.57981 0.149303 0.576134
447 1 0.571006 0.995808 0.575423
449 1 0.659213 -0.000568065 0.496961
452 1 0.65741 0.067759 0.581548
473 1 0.662296 0.151559 0.501566
475 1 0.739661 0.160199 0.582909
451 1 0.742246 0.0105733 0.583445
454 1 0.903344 0.0912446 0.507987
456 1 0.826482 0.0824391 0.587623
459 1 0.0890781 0.168669 0.570388
460 1 0.990284 0.262693 0.584597
483 1 0.077229 0.329619 0.580177
629 1 0.170149 0.341224 0.656785
462 1 0.265154 0.232062 0.499141
489 1 0.336016 0.364175 0.489639
464 1 0.19028 0.236985 0.582988
606 1 0.265168 0.246367 0.659773
633 1 0.334168 0.346021 0.667659
487 1 0.265077 0.34135 0.575105
468 1 0.342545 0.265204 0.570013
466 1 0.448326 0.268807 0.494485
491 1 0.423432 0.372575 0.56599
472 1 0.507289 0.242782 0.577224
470 1 0.57763 0.250342 0.493143
495 1 0.600752 0.335668 0.59741
497 1 0.672235 0.316019 0.501545
476 1 0.648663 0.233099 0.577236
499 1 0.740328 0.326062 0.600639
479 1 0.912227 0.170825 0.587412
480 1 0.831729 0.256589 0.582987
645 1 0.831346 0.325883 0.680252
507 1 0.087344 0.493856 0.583467
484 1 0.993827 0.422044 0.580028
649 1 0.987071 0.50176 0.658711
626 1 0.0798722 0.417196 0.672908
488 1 0.175854 0.422109 0.584349
486 1 0.24347 0.414294 0.499647
630 1 0.258388 0.423825 0.664123
490 1 0.445078 0.419884 0.478379
492 1 0.339087 0.428006 0.577848
634 1 0.426833 0.428671 0.65867
657 1 0.337676 0.499437 0.667764
493 1 0.515618 0.343779 0.516387
496 1 0.514283 0.43424 0.582195
638 1 0.6101 0.43545 0.66793
500 1 0.692114 0.423143 0.584359
504 1 0.81381 0.428053 0.579334
642 1 0.745831 0.403881 0.671638
523 1 0.736612 0.516676 0.568661
665 1 0.679994 0.516322 0.666865
503 1 0.911108 0.344548 0.578613
646 1 0.897384 0.415111 0.666381
669 1 0.835864 0.507166 0.662729
625 1 0.990262 0.347498 0.664082
653 1 0.16366 0.49462 0.674986
650 1 0.0866689 0.597537 0.670597
512 1 0.172276 0.581862 0.606196
673 1 0.995908 0.676718 0.664736
511 1 0.262704 0.503491 0.575009
654 1 0.25826 0.57957 0.6798
537 1 0.33697 0.659183 0.501945
516 1 0.340832 0.579291 0.589959
515 1 0.426834 0.493562 0.574333
539 1 0.419153 0.662981 0.589092
517 1 0.524223 0.496919 0.495472
519 1 0.612927 0.506446 0.575256
520 1 0.512434 0.578256 0.578526
522 1 0.74795 0.589453 0.496772
524 1 0.667643 0.603184 0.576817
528 1 0.838234 0.591558 0.582588
508 1 0.993191 0.585312 0.585751
527 1 0.907057 0.497067 0.578726
670 1 0.922037 0.588851 0.658473
551 1 0.906285 0.675365 0.57259
531 1 0.068451 0.661909 0.582464
555 1 0.0665212 0.838179 0.587084
536 1 0.19763 0.751948 0.588996
674 1 0.082042 0.747015 0.658403
534 1 0.247322 0.738813 0.494531
535 1 0.251678 0.656381 0.582408
678 1 0.256699 0.735695 0.692733
540 1 0.317924 0.737229 0.591856
559 1 0.254478 0.851594 0.579196
538 1 0.414577 0.748001 0.499445
541 1 0.489682 0.674686 0.499296
544 1 0.492241 0.742847 0.584665
545 1 0.674393 0.676376 0.496725
543 1 0.581643 0.675872 0.57568
542 1 0.583953 0.762292 0.505082
548 1 0.675493 0.76003 0.580508
547 1 0.748579 0.682901 0.578751
549 1 0.835807 0.665447 0.499013
571 1 0.75253 0.847338 0.575455
689 1 0.665486 0.659549 0.669736
532 1 0.99093 0.76077 0.577515
697 1 0.985525 0.838318 0.660158
552 1 0.827365 0.750212 0.577563
560 1 0.157445 0.913742 0.578639
556 1 0.999747 0.925035 0.589478
698 1 0.0752107 0.919445 0.667414
561 1 0.336122 0.818859 0.508134
557 1 0.165119 0.822964 0.511311
701 1 0.158623 0.826661 0.653005
439 1 0.261099 0.00746665 0.579932
565 1 0.50135 0.830878 0.503187
443 1 0.409992 0.00953983 0.597502
564 1 0.336036 0.921487 0.582244
563 1 0.407516 0.833409 0.596442
568 1 0.488973 0.918148 0.592307
567 1 0.587176 0.845565 0.577014
566 1 0.595991 0.923527 0.488089
709 1 0.510019 0.831172 0.658932
710 1 0.575487 0.912672 0.670912
572 1 0.664152 0.934267 0.575505
714 1 0.744171 0.918387 0.672316
455 1 0.922903 1.00921 0.596889
575 1 0.896767 0.850897 0.592411
453 1 0.837647 0.0078453 0.484374
576 1 0.833488 0.95149 0.583364
597 1 0.826487 0.0146432 0.672874
718 1 0.908912 0.922889 0.670016
578 1 0.0931004 0.111434 0.669598
603 1 0.092665 0.164085 0.757519
580 1 1.00095 0.100232 0.741123
722 1 0.105262 0.0846937 0.832274
584 1 0.177631 0.0901892 0.7421
601 1 -0.000270083 0.171649 0.647654
579 1 0.0930255 0.00775618 0.757937
581 1 0.163006 1.01688 0.66518
582 1 0.275704 0.081816 0.660038
585 1 0.350383 0.993382 0.680566
588 1 0.328246 0.0827257 0.756598
609 1 0.354634 0.170701 0.649406
607 1 0.26014 0.18165 0.747329
611 1 0.424714 0.163594 0.742534
587 1 0.430865 0.993942 0.746738
590 1 0.583644 0.0728748 0.660518
592 1 0.497029 0.084327 0.766769
613 1 0.510066 0.179407 0.671424
615 1 0.584801 0.170352 0.75272
617 1 0.660989 0.170144 0.670416
596 1 0.67568 0.0738207 0.753803
594 1 0.755661 0.0958942 0.668287
621 1 0.834161 0.168153 0.667685
598 1 0.917088 0.0889612 0.668829
600 1 0.844042 0.0803857 0.754025
602 1 0.0881267 0.238863 0.663271
746 1 0.0876477 0.248086 0.838404
773 1 0.168136 0.339241 0.839294
604 1 -0.00277337 0.246917 0.735134
753 1 0.33196 0.182833 0.830155
608 1 0.16241 0.254396 0.764011
612 1 0.354338 0.25125 0.743267
637 1 0.490041 0.331613 0.652915
610 1 0.424999 0.250076 0.658599
754 1 0.414028 0.25652 0.832876
616 1 0.497734 0.248964 0.755789
614 1 0.589219 0.250578 0.676448
761 1 0.668559 0.166957 0.830651
620 1 0.665256 0.263291 0.75085
639 1 0.563009 0.332837 0.739427
618 1 0.746026 0.240905 0.672047
619 1 0.758362 0.169758 0.753695
762 1 0.74747 0.249917 0.824388
622 1 0.910779 0.254864 0.658822
624 1 0.835717 0.238795 0.755346
623 1 0.912505 0.169064 0.740329
766 1 0.913458 0.257341 0.81731
769 1 0.987096 0.333408 0.826358
627 1 0.0732333 0.331584 0.737655
651 1 0.0627633 0.492571 0.744721
770 1 0.078828 0.40583 0.828543
628 1 0.992632 0.41137 0.754724
631 1 0.247457 0.337693 0.757433
632 1 0.155493 0.420235 0.750261
797 1 0.150099 0.498236 0.823215
801 1 0.325593 0.497309 0.854252
774 1 0.247029 0.420355 0.826445
635 1 0.416906 0.339324 0.734337
636 1 0.341671 0.416854 0.757511
640 1 0.511548 0.444867 0.743729
659 1 0.413574 0.493876 0.772046
805 1 0.498545 0.487224 0.843786
777 1 0.329354 0.335342 0.839822
644 1 0.672035 0.418514 0.758302
661 1 0.507528 0.511683 0.661191
782 1 0.582817 0.408892 0.831618
641 1 0.663903 0.340557 0.678626
643 1 0.741492 0.330029 0.756049
785 1 0.672943 0.342981 0.842985
667 1 0.760091 0.508608 0.744953
809 1 0.669712 0.496849 0.84651
647 1 0.913814 0.332857 0.74469
648 1 0.824286 0.428089 0.745608
790 1 0.90126 0.4119 0.816805
677 1 0.172876 0.671028 0.664002
793 1 0.00499943 0.503617 0.835715
652 1 1.00329 0.58593 0.743097
794 1 0.0879074 0.582506 0.816294
655 1 0.255332 0.508732 0.763744
656 1 0.165907 0.583081 0.742023
660 1 0.339314 0.566789 0.762655
679 1 0.258603 0.648099 0.761863
798 1 0.24693 0.581944 0.844975
658 1 0.420632 0.578683 0.68717
683 1 0.427329 0.656309 0.756928
681 1 0.346114 0.656302 0.675873
825 1 0.343546 0.666886 0.843049
662 1 0.575592 0.585046 0.656499
663 1 0.600189 0.502786 0.757947
664 1 0.504916 0.579071 0.747562
668 1 0.677761 0.581863 0.768485
806 1 0.5907 0.583763 0.854662
666 1 0.760519 0.602168 0.655093
672 1 0.834024 0.603333 0.754907
837 1 0.837835 0.673222 0.84837
693 1 0.826136 0.682298 0.660125
671 1 0.928136 0.503986 0.75563
695 1 0.919671 0.666629 0.74231
675 1 0.0771168 0.674566 0.752252
818 1 0.0823364 0.738936 0.834021
699 1 0.0877875 0.836104 0.735376
841 1 1.00018 0.812614 0.841364
680 1 0.158969 0.756859 0.740523
821 1 0.170437 0.671674 0.811526
822 1 0.250126 0.743504 0.825702
684 1 0.344879 0.735002 0.756116
682 1 0.422432 0.747326 0.677281
688 1 0.516216 0.738246 0.74593
686 1 0.590984 0.763734 0.654639
685 1 0.508085 0.672318 0.658712
687 1 0.582146 0.649934 0.758278
692 1 0.663357 0.739183 0.752818
829 1 0.528561 0.66131 0.847726
690 1 0.737764 0.750022 0.66828
691 1 0.743453 0.66855 0.741187
696 1 0.828696 0.747707 0.748229
715 1 0.748891 0.818686 0.747783
817 1 1.00805 0.659758 0.823027
676 1 1.00303 0.761464 0.734968
694 1 0.910674 0.75333 0.673659
717 1 0.820317 0.816732 0.666804
838 1 0.932584 0.733994 0.820565
719 1 0.913408 0.826982 0.756074
704 1 0.17587 0.914139 0.739726
577 1 0.00811947 0.000535387 0.673827
842 1 0.0864406 0.916265 0.81644
702 1 0.2643 0.925105 0.674316
583 1 0.240904 -0.000129004 0.741095
703 1 0.246368 0.832954 0.748758
708 1 0.331829 0.904828 0.754834
705 1 0.323123 0.834888 0.662277
706 1 0.421969 0.910715 0.680259
707 1 0.419798 0.82096 0.755244
712 1 0.504283 0.915326 0.755376
589 1 0.499058 0.991469 0.664396
713 1 0.672135 0.846615 0.654295
711 1 0.604249 0.829655 0.744023
591 1 0.575616 -0.00632312 0.764783
593 1 0.65523 -0.00140324 0.670014
716 1 0.658671 0.921709 0.748616
595 1 0.751373 0.999701 0.763196
720 1 0.835353 0.899393 0.747558
700 1 0.00889961 0.918568 0.748093
599 1 0.916081 0.00605893 0.7516
2 1 0.079002 0.084888 0.0100146
725 1 0.185676 0.980558 0.829973
724 1 0.00338165 0.0882249 0.918022
728 1 0.184922 0.0784671 0.929905
726 1 0.246545 0.0738076 0.844533
751 1 0.261853 0.161369 0.914924
727 1 0.262347 0.992743 0.918484
732 1 0.344138 0.083029 0.921225
9 1 0.319131 0.985173 0.00961439
729 1 0.344414 0.985601 0.835181
730 1 0.407088 0.0816479 0.837797
736 1 0.501055 0.0730269 0.913623
755 1 0.405459 0.167389 0.927825
734 1 0.599655 0.0823658 0.817951
14 1 0.573509 0.0797342 1.0006
759 1 0.584887 0.156822 0.916676
740 1 0.663054 0.0724101 0.916678
735 1 0.592915 0.980416 0.911047
738 1 0.750247 0.0890522 0.84155
741 1 0.832013 1.00944 0.830899
744 1 0.846806 0.0647868 0.92128
745 1 0.996495 0.167137 0.824818
1 1 0.0062147 0.990315 0.995368
742 1 0.9279 0.0827796 0.841475
743 1 0.918113 0.982624 0.906429
25 1 -0.00663412 0.164793 0.987318
721 1 0.0104863 0.0103472 0.833695
749 1 0.177998 0.166524 0.836923
747 1 0.0816204 0.157748 0.917042
748 1 0.99637 0.241106 0.905907
752 1 0.163329 0.248126 0.928293
750 1 0.244586 0.252607 0.835811
57 1 0.330258 0.31668 0.00703815
781 1 0.489904 0.336747 0.815585
757 1 0.489631 0.167449 0.842399
756 1 0.326231 0.249 0.915917
760 1 0.501924 0.260387 0.912025
41 1 0.666913 0.167272 0.992498
758 1 0.57964 0.255138 0.849302
765 1 0.833672 0.168938 0.830406
763 1 0.763076 0.177216 0.913269
764 1 0.674056 0.259486 0.911738
787 1 0.759304 0.331003 0.904002
69 1 0.837346 0.332675 0.98573
768 1 0.839018 0.250243 0.909269
767 1 0.91397 0.168673 0.906714
791 1 0.90699 0.333036 0.902846
77 1 0.169779 0.496102 -0.0119893
771 1 0.0837505 0.314346 0.91159
776 1 0.172335 0.404823 0.923329
772 1 0.99245 0.409798 0.899477
775 1 0.259776 0.334508 0.916719
780 1 0.329197 0.415188 0.917785
81 1 0.332969 0.491369 0.0148304
778 1 0.417861 0.404814 0.838945
779 1 0.402894 0.328568 0.917999
784 1 0.484645 0.39346 0.916566
803 1 0.413225 0.50462 0.91211
783 1 0.583644 0.348311 0.917759
788 1 0.672444 0.414148 0.925644
66 1 0.753781 0.414758 0.990636
786 1 0.760208 0.439895 0.834623
811 1 0.759817 0.498233 0.929227
73 1 -0.00128196 0.495121 0.994601
789 1 0.825502 0.337076 0.817935
49 1 1.01323 0.328043 0.983238
792 1 0.838122 0.41481 0.914831
70 1 0.931238 0.411968 0.98476
74 1 0.0913112 0.579111 0.000387017
795 1 0.0992028 0.494737 0.914205
819 1 0.0745103 0.663225 0.914854
796 1 -0.00447223 0.577592 0.919199
97 1 -0.0029781 0.667076 0.00446505
78 1 0.249386 0.575687 0.00368159
799 1 0.252714 0.500677 0.924667
800 1 0.159468 0.584909 0.920124
804 1 0.335986 0.587345 0.91783
85 1 0.493945 0.485529 -0.00551598
82 1 0.41682 0.563051 -0.00213663
802 1 0.434406 0.588782 0.841465
827 1 0.432016 0.660296 0.921168
808 1 0.513139 0.575777 0.917693
89 1 0.666637 0.493761 1.014
109 1 0.503234 0.638647 0.00205939
807 1 0.573536 0.47861 0.931541
831 1 0.592672 0.66053 0.930351
810 1 0.755605 0.576354 0.838492
812 1 0.677404 0.572292 0.917685
816 1 0.840268 0.581265 0.919983
833 1 0.674968 0.66733 0.834779
94 1 0.923467 0.57854 1.00265
813 1 0.842512 0.508171 0.816925
814 1 0.921041 0.595941 0.841389
815 1 0.914517 0.494912 0.906999
839 1 0.915567 0.669899 0.92656
98 1 0.0783353 0.75404 0.997018
824 1 0.172284 0.765276 0.915387
823 1 0.249059 0.664647 0.9071
828 1 0.342606 0.726269 0.936486
105 1 0.318273 0.650991 0.00691188
106 1 0.42536 0.741308 1.01564
826 1 0.434697 0.733879 0.834592
110 1 0.596233 0.742837 0.00730411
830 1 0.598187 0.749691 0.832788
853 1 0.50134 0.830564 0.848616
832 1 0.498859 0.747459 0.924491
855 1 0.584285 0.823118 0.924767
836 1 0.667861 0.743775 0.914494
834 1 0.752645 0.732151 0.836687
835 1 0.740141 0.659418 0.924496
840 1 0.836124 0.74959 0.937507
861 1 0.837955 0.809616 0.830331
859 1 0.750602 0.822682 0.899881
820 1 1.0065 0.744233 0.91817
863 1 0.920195 0.832192 0.911628
121 1 0.997789 0.8422 0.995524
843 1 0.0822705 0.834515 0.918827
723 1 0.0939308 -0.00631937 0.906516
848 1 0.176111 0.898288 0.913429
845 1 0.162526 0.819807 0.826752
846 1 0.263026 0.885829 0.839808
847 1 0.273422 0.807195 0.918984
5 1 0.16592 0.9885 1.00402
852 1 0.342848 0.90437 0.920164
731 1 0.411099 0.985698 0.928045
851 1 0.41608 0.821193 0.916856
850 1 0.415398 0.895482 0.829484
849 1 0.339718 0.810513 0.827349
856 1 0.501856 0.914537 0.926592
737 1 0.668659 0.98592 0.82897
733 1 0.491535 0.990018 0.839922
133 1 0.495241 0.837089 0.00238871
854 1 0.586271 0.901825 0.834645
857 1 0.676151 0.834289 0.825657
860 1 0.66609 0.910657 0.920643
739 1 0.75287 0.993786 0.908767
858 1 0.749997 0.904243 0.830175
864 1 0.832534 0.912429 0.885593
862 1 0.930037 0.910079 0.821456
844 1 0.008921 0.908033 0.917671
