ITEM: TIMESTEP
4000
ITEM: NUMBER OF ATOMS
864
ITEM: BOX BOUNDS pp pp pp
0.0000000000000000e+00 3.1559999999999999e+01
0.0000000000000000e+00 3.1559999999999999e+01
0.0000000000000000e+00 3.1559999999999999e+01
ITEM: ATOMS id type xs ys zs
4 1 0.0156743 0.0879844 0.100199
74 1 0.0892109 0.0796291 0.166317
25 1 0.0109601 0.159272 0.00505025
2 1 0.0778553 0.0801538 0.000943646
8 1 0.167188 0.0787611 0.0659681
78 1 0.230787 0.0819137 0.163847
12 1 0.314075 0.0754352 0.0842902
105 1 0.319409 0.154208 0.158792
81 1 0.322871 0.000292082 0.158018
82 1 0.400254 0.0832636 0.153284
16 1 0.498909 0.0776918 0.0913675
35 1 0.405447 0.166468 0.0895081
10 1 0.403135 0.0781254 0.0185453
13 1 0.489634 0.0122425 0.0059144
85 1 0.495766 0.00518902 0.166578
39 1 0.579805 0.155617 0.0750547
20 1 0.666354 0.0794282 0.0904093
14 1 0.586661 0.071761 0.00799245
41 1 0.671747 0.156782 0.0220243
43 1 0.758881 0.164773 0.0938741
18 1 0.76295 0.0851919 0.0129303
17 1 0.669623 0.0049693 0.00510943
19 1 0.761782 0.00118364 0.0861391
24 1 0.842363 0.080447 0.0954835
22 1 0.924026 0.0836492 0.00345015
1 1 0.999951 0.0103326 0.00012789
27 1 0.097275 0.168748 0.085285
98 1 0.0888552 0.261779 0.163863
101 1 0.16344 0.166861 0.166439
32 1 0.165159 0.255722 0.0789736
28 1 0.00398091 0.250515 0.0923001
51 1 0.0865563 0.328075 0.0814712
31 1 0.241845 0.175422 0.0810016
36 1 0.32447 0.252201 0.0823285
129 1 0.330115 0.330341 0.164312
59 1 0.414288 0.326043 0.0845629
106 1 0.42794 0.243209 0.166036
37 1 0.49209 0.171371 0.00496688
33 1 0.334564 0.174017 0.00127577
40 1 0.501085 0.239829 0.0880698
63 1 0.594172 0.324226 0.084937
61 1 0.507152 0.322642 0.0108163
44 1 0.6874 0.248584 0.103047
67 1 0.765732 0.324967 0.0791621
69 1 0.832946 0.316508 0.00170317
42 1 0.759352 0.236291 0.0166851
47 1 0.899866 0.168631 0.0792162
121 1 0.992818 0.330479 0.161885
48 1 0.833486 0.252411 0.0916515
71 1 0.90961 0.331629 0.0829133
46 1 0.92961 0.255206 0.00434667
122 1 0.0889859 0.415529 0.161977
50 1 0.0756735 0.41967 0.0184053
53 1 0.174975 0.346233 0.0182446
125 1 0.174123 0.333884 0.163339
55 1 0.261961 0.341929 0.0808663
56 1 0.167163 0.424981 0.0871006
54 1 0.25227 0.434834 0.00684667
439 1 0.245898 0.490791 0.0954615
60 1 0.341102 0.415531 0.0901185
64 1 0.499776 0.408327 0.0776634
134 1 0.579817 0.416533 0.152233
62 1 0.585614 0.412379 0.0105142
68 1 0.67626 0.412172 0.0906483
72 1 0.833201 0.417105 0.0881346
521 1 0.66899 0.495961 0.162233
451 1 0.754183 0.493116 0.0930247
66 1 0.742063 0.409514 0.0115228
52 1 0.994423 0.4126 0.0822879
455 1 0.915481 0.497056 0.0840978
433 1 0.988021 0.489575 0.00435317
70 1 0.920143 0.402801 0.00635586
76 1 0.00421529 0.0831232 0.263128
80 1 0.161579 0.0698531 0.251178
75 1 0.085127 0.00399496 0.258398
173 1 0.173642 0.154334 0.331041
84 1 0.320793 0.0843767 0.245078
177 1 0.326527 0.154289 0.331365
103 1 0.253716 0.166256 0.241968
153 1 0.328486 0.000979094 0.312499
83 1 0.408101 0.0127278 0.236811
107 1 0.413312 0.148227 0.255975
154 1 0.4172 0.0679853 0.329202
109 1 0.500348 0.162499 0.167397
88 1 0.506999 0.072162 0.258368
86 1 0.580053 0.0716909 0.171263
181 1 0.502664 0.159027 0.330524
111 1 0.58871 0.159679 0.257797
90 1 0.756599 0.078847 0.179885
113 1 0.681565 0.156143 0.178561
92 1 0.674562 0.0743786 0.255441
185 1 0.670732 0.154889 0.329762
115 1 0.758099 0.165772 0.265349
162 1 0.749597 0.0844107 0.331233
91 1 0.766135 0.00384627 0.266839
94 1 0.932784 0.0954434 0.172394
93 1 0.841387 0.00453306 0.17362
96 1 0.851524 0.0860315 0.259326
97 1 0.00585939 0.185495 0.170743
99 1 0.0785378 0.174225 0.255789
100 1 0.00466496 0.254833 0.242665
104 1 0.165604 0.257715 0.252376
170 1 0.0753106 0.25328 0.327575
102 1 0.236514 0.259188 0.168371
127 1 0.256553 0.325842 0.246609
174 1 0.270385 0.247006 0.327888
197 1 0.172993 0.330231 0.323858
108 1 0.335905 0.247543 0.221626
178 1 0.399367 0.22898 0.327866
112 1 0.494876 0.244977 0.252867
131 1 0.413006 0.319478 0.268263
110 1 0.600607 0.248637 0.17472
182 1 0.583769 0.238572 0.326626
205 1 0.505391 0.327485 0.32098
135 1 0.594501 0.332259 0.25623
117 1 0.828708 0.171112 0.181164
114 1 0.753611 0.259394 0.195167
116 1 0.671626 0.245505 0.261218
119 1 0.90814 0.171757 0.255568
193 1 0.996421 0.330602 0.327428
118 1 0.90431 0.24196 0.170717
120 1 0.833882 0.253362 0.262168
143 1 0.917497 0.313566 0.237853
123 1 0.0816863 0.339165 0.234648
194 1 0.089015 0.413166 0.313304
507 1 0.0632746 0.496154 0.254716
126 1 0.249014 0.418395 0.177961
581 1 0.17169 0.48715 0.320258
201 1 0.328016 0.340501 0.320691
128 1 0.172904 0.408094 0.252661
130 1 0.424989 0.398523 0.168702
132 1 0.344205 0.408801 0.237841
202 1 0.415578 0.42223 0.32339
585 1 0.338416 0.491708 0.319326
513 1 0.340367 0.498475 0.168054
133 1 0.509607 0.338128 0.17128
136 1 0.511271 0.41443 0.251156
589 1 0.505921 0.494445 0.32715
517 1 0.50122 0.498741 0.169205
519 1 0.589985 0.499445 0.251659
137 1 0.676228 0.335826 0.16854
140 1 0.670871 0.416584 0.247553
138 1 0.756783 0.415328 0.171163
139 1 0.741769 0.338011 0.255371
141 1 0.831369 0.333666 0.17284
523 1 0.750138 0.485691 0.24483
142 1 0.916495 0.41182 0.171354
124 1 0.993304 0.405009 0.241116
144 1 0.839613 0.4173 0.256955
213 1 0.836546 0.333909 0.327629
146 1 0.0836788 0.0882918 0.340196
169 1 0.00134706 0.156976 0.339881
148 1 0.00882172 0.0675456 0.417276
218 1 0.0953816 0.078757 0.497685
147 1 0.0937604 0.00116269 0.416625
151 1 0.266403 0.00321638 0.422968
150 1 0.244986 0.0755681 0.334987
152 1 0.172191 0.0919384 0.415979
156 1 0.332979 0.095925 0.425718
222 1 0.253595 0.0771178 0.485955
149 1 0.173748 0.00560759 0.334828
160 1 0.496829 0.0640868 0.410793
253 1 0.485641 0.157196 0.49362
179 1 0.424367 0.145923 0.404905
155 1 0.382271 0.00370397 0.40917
230 1 0.586251 0.0766597 0.49472
257 1 0.662309 0.161853 0.495314
158 1 0.591227 0.0695964 0.339091
164 1 0.665063 0.0791215 0.414772
183 1 0.57388 0.155534 0.423406
187 1 0.749102 0.154609 0.417768
163 1 0.749505 0.00414104 0.410487
238 1 0.930116 0.0701223 0.492169
189 1 0.834336 0.158549 0.347368
166 1 0.928324 0.0703606 0.335238
168 1 0.838957 0.0820519 0.415994
191 1 0.91841 0.157588 0.424959
242 1 0.0920311 0.247724 0.479455
171 1 0.0795978 0.176941 0.412162
246 1 0.273971 0.243444 0.492691
269 1 0.174551 0.325661 0.486825
175 1 0.24875 0.168307 0.414706
176 1 0.167221 0.246314 0.396424
199 1 0.252021 0.329575 0.400677
245 1 0.171655 0.177572 0.496988
249 1 0.361006 0.171576 0.4957
180 1 0.335166 0.246722 0.4151
184 1 0.497663 0.244543 0.398092
203 1 0.415258 0.329182 0.402978
277 1 0.493616 0.326303 0.479768
250 1 0.42426 0.251113 0.484659
273 1 0.345896 0.328645 0.491608
254 1 0.578088 0.258683 0.499162
188 1 0.662902 0.245373 0.426757
207 1 0.574718 0.320589 0.401797
258 1 0.742776 0.227484 0.499285
209 1 0.673246 0.323958 0.340528
186 1 0.751752 0.239668 0.342244
211 1 0.748141 0.32254 0.430261
192 1 0.829262 0.245113 0.421739
190 1 0.909929 0.247966 0.342788
262 1 0.917767 0.251555 0.489087
172 1 0.997227 0.249634 0.409792
215 1 0.910692 0.327102 0.423148
579 1 0.0865425 0.486513 0.4053
266 1 0.0850072 0.411921 0.492957
195 1 0.083136 0.339304 0.405028
196 1 0.000944957 0.411243 0.402146
265 1 0.00336457 0.338417 0.487415
270 1 0.255829 0.40699 0.491408
200 1 0.176933 0.423767 0.405244
583 1 0.265425 0.497304 0.413723
198 1 0.252449 0.418766 0.336147
653 1 0.176925 0.483914 0.490689
657 1 0.345226 0.497409 0.496829
204 1 0.34705 0.409443 0.403028
208 1 0.496811 0.418348 0.41595
587 1 0.42611 0.491489 0.414039
274 1 0.416191 0.418378 0.491462
661 1 0.500424 0.495331 0.491717
206 1 0.588139 0.405105 0.334085
593 1 0.65899 0.489528 0.343928
212 1 0.665983 0.410753 0.421892
278 1 0.575221 0.409083 0.492347
597 1 0.833006 0.488398 0.34704
595 1 0.748697 0.490634 0.436574
216 1 0.830034 0.40759 0.428239
210 1 0.752248 0.426928 0.358237
599 1 0.919491 0.485749 0.422925
214 1 0.91778 0.399042 0.341639
669 1 0.839324 0.497539 0.493218
577 1 0.989251 0.493593 0.338654
290 1 0.079221 0.072436 0.662022
220 1 0.0061298 0.0695944 0.566966
224 1 0.183478 0.0752449 0.577921
228 1 0.330722 0.0999195 0.588183
247 1 0.245217 0.160741 0.575451
294 1 0.242759 0.0832237 0.658897
297 1 0.343884 0.00963088 0.664976
226 1 0.411666 0.0828469 0.501815
227 1 0.422977 0.00696374 0.580915
232 1 0.501454 0.0872442 0.593778
236 1 0.656458 0.0678724 0.574246
302 1 0.59026 0.0793261 0.657532
255 1 0.579097 0.16448 0.569467
259 1 0.757634 0.163741 0.58804
329 1 0.672171 0.159791 0.658444
234 1 0.741846 0.0826666 0.503215
235 1 0.756924 0.00425619 0.58468
237 1 0.824057 0.0114713 0.500711
240 1 0.838493 0.0917881 0.578709
263 1 0.931832 0.158769 0.580731
310 1 0.926367 0.0793549 0.664844
239 1 0.89898 0.0048157 0.577143
313 1 0.0134955 0.167064 0.646954
243 1 0.101566 0.168878 0.573419
267 1 0.0986043 0.329318 0.578782
244 1 0.00541767 0.2583 0.566228
317 1 0.163545 0.170875 0.659533
241 1 0.0194963 0.167028 0.504662
248 1 0.17446 0.253084 0.572824
271 1 0.255199 0.330989 0.591399
318 1 0.245496 0.250936 0.666502
251 1 0.416407 0.173963 0.584687
252 1 0.341242 0.258832 0.589824
275 1 0.431956 0.327075 0.581593
256 1 0.504553 0.245198 0.595175
279 1 0.575164 0.330687 0.574666
326 1 0.588951 0.230637 0.664129
281 1 0.663248 0.333025 0.50557
260 1 0.672186 0.240292 0.579997
283 1 0.753826 0.322936 0.573872
330 1 0.74918 0.242866 0.662928
353 1 0.669921 0.318375 0.661246
264 1 0.860691 0.233934 0.588448
357 1 0.844728 0.318367 0.655384
334 1 0.945764 0.249319 0.661742
285 1 0.835509 0.318652 0.514371
261 1 0.841786 0.171031 0.501758
268 1 0.0138432 0.418233 0.568718
338 1 0.0935271 0.418113 0.648623
651 1 0.0844134 0.496085 0.579734
655 1 0.257716 0.489746 0.570923
341 1 0.172374 0.339207 0.663049
272 1 0.181456 0.411918 0.566736
276 1 0.331113 0.402041 0.585897
659 1 0.416581 0.487016 0.575053
346 1 0.41987 0.406928 0.654693
280 1 0.496926 0.42498 0.567438
737 1 0.662239 0.486909 0.654579
284 1 0.662863 0.409343 0.581739
350 1 0.58335 0.405274 0.657537
665 1 0.658407 0.495115 0.506397
282 1 0.75754 0.40388 0.501707
354 1 0.73805 0.404448 0.65263
288 1 0.832746 0.405663 0.581803
667 1 0.749486 0.482333 0.578314
741 1 0.830373 0.475309 0.656971
286 1 0.923391 0.404066 0.504192
287 1 0.93101 0.337429 0.597855
671 1 0.914358 0.487142 0.589049
649 1 0.992678 0.493039 0.504843
385 1 0.000514473 0.157016 0.820957
296 1 0.153106 0.0781523 0.743261
292 1 0.00611817 0.0903863 0.73984
361 1 0.00282982 0.00585893 0.83245
300 1 0.323563 0.0874195 0.739303
319 1 0.233625 0.160603 0.740205
295 1 0.235321 0.00108702 0.739224
366 1 0.247325 0.0832921 0.828893
369 1 0.319213 0.0135285 0.821087
298 1 0.411898 0.0921724 0.668637
304 1 0.495077 0.0848901 0.753007
323 1 0.41604 0.161926 0.749916
370 1 0.412584 0.084234 0.829882
301 1 0.498913 0.00957737 0.668048
299 1 0.411441 0.00898739 0.75687
308 1 0.650297 0.0745439 0.754938
327 1 0.588955 0.158291 0.75906
306 1 0.737066 0.0778108 0.680066
333 1 0.82497 0.148332 0.66862
307 1 0.752459 0.0169406 0.757341
312 1 0.843667 0.0852306 0.754718
335 1 0.926456 0.165427 0.723971
405 1 0.859931 0.162487 0.823291
311 1 0.921241 0.00290462 0.754496
309 1 0.835432 0.0173216 0.66668
337 1 0.0149738 0.332411 0.670186
315 1 0.0796285 0.175316 0.750166
314 1 0.0893036 0.247927 0.668893
320 1 0.165271 0.248405 0.745741
316 1 0.000702374 0.248476 0.762776
339 1 0.0802452 0.322953 0.75817
389 1 0.158447 0.174047 0.831545
321 1 0.3287 0.180707 0.678359
324 1 0.332951 0.262334 0.759776
343 1 0.245708 0.332971 0.749051
393 1 0.308223 0.170558 0.818789
322 1 0.412065 0.250771 0.681545
349 1 0.495398 0.316626 0.684776
394 1 0.419343 0.255934 0.831206
325 1 0.505323 0.169805 0.679992
328 1 0.500387 0.245902 0.773089
332 1 0.664505 0.250987 0.757453
351 1 0.57665 0.321865 0.771403
331 1 0.74785 0.168092 0.753575
355 1 0.74471 0.320968 0.742336
336 1 0.835876 0.243139 0.742744
359 1 0.916826 0.323387 0.752471
429 1 0.834133 0.317134 0.822056
406 1 0.919404 0.24676 0.828432
409 1 0.000426315 0.336085 0.827003
410 1 0.0970291 0.401843 0.827339
723 1 0.0783308 0.485317 0.763431
344 1 0.175396 0.422728 0.737629
342 1 0.259006 0.40686 0.66813
414 1 0.241313 0.425589 0.832763
348 1 0.329924 0.426767 0.751622
345 1 0.341395 0.34564 0.676067
347 1 0.420027 0.346126 0.755594
418 1 0.426383 0.43408 0.823543
417 1 0.343955 0.355693 0.826935
735 1 0.587642 0.484106 0.740494
352 1 0.504777 0.408938 0.750529
422 1 0.580261 0.415081 0.830376
739 1 0.7417 0.483859 0.748145
426 1 0.745804 0.403935 0.832146
356 1 0.673592 0.403232 0.746246
360 1 0.831948 0.413041 0.758775
358 1 0.919134 0.413642 0.673091
743 1 0.910262 0.494437 0.743506
340 1 0.999498 0.408047 0.750161
721 1 0.984623 0.496807 0.670067
362 1 0.0843634 0.0786645 0.839574
5 1 0.171349 0.00874207 0.983544
365 1 0.167084 0.0107814 0.83685
368 1 0.171216 0.0908186 0.908757
372 1 0.323264 0.0807127 0.914419
367 1 0.260707 0.00340076 0.908525
6 1 0.254505 0.0677187 0.99543
9 1 0.335359 0.00179391 0.996601
371 1 0.415047 0.00591753 0.914392
373 1 0.496606 0.00819883 0.851703
397 1 0.497612 0.163519 0.843572
376 1 0.490762 0.0893325 0.91751
374 1 0.575558 0.0845877 0.842524
399 1 0.58343 0.153445 0.931175
380 1 0.663833 0.0780841 0.931327
379 1 0.747886 0.00641522 0.918484
381 1 0.83022 0.00681596 0.842541
378 1 0.756218 0.095808 0.846634
401 1 0.668384 0.159159 0.843932
384 1 0.830808 0.0864856 0.916117
403 1 0.747749 0.149978 0.929413
383 1 0.91141 0.00551716 0.919079
364 1 0.99882 0.0844881 0.92278
21 1 0.842268 0.0122907 0.999725
382 1 0.926386 0.0784691 0.835409
386 1 0.0895458 0.250607 0.833885
387 1 0.0902175 0.167376 0.922331
413 1 0.162427 0.32763 0.83422
26 1 0.0887025 0.253816 0.99123
388 1 0.0054983 0.248828 0.91578
29 1 0.168729 0.167071 0.996596
391 1 0.244796 0.16822 0.920479
30 1 0.249775 0.260241 0.995286
392 1 0.171024 0.250967 0.922705
390 1 0.23869 0.250153 0.834933
396 1 0.332228 0.256615 0.903341
415 1 0.261923 0.329972 0.899368
34 1 0.409261 0.256919 0.996475
395 1 0.401898 0.172261 0.901418
400 1 0.494858 0.235764 0.924791
398 1 0.58509 0.237609 0.853022
65 1 0.662332 0.314933 0.999646
423 1 0.596645 0.331525 0.914557
38 1 0.57558 0.238407 0.997885
402 1 0.751196 0.228571 0.850079
425 1 0.671922 0.316258 0.837079
404 1 0.673892 0.228985 0.935205
427 1 0.753829 0.316024 0.925647
45 1 0.83711 0.17246 0.998692
408 1 0.833564 0.243927 0.918709
407 1 0.918911 0.171771 0.923939
431 1 0.916094 0.332764 0.9133
49 1 0.0131625 0.334768 0.998099
795 1 0.0943626 0.478732 0.930213
412 1 0.00650174 0.41985 0.915029
411 1 0.0916893 0.3425 0.923178
793 1 0.0026539 0.498297 0.838594
57 1 0.329159 0.34744 0.985167
416 1 0.18425 0.418894 0.934154
420 1 0.328653 0.433164 0.91156
421 1 0.486996 0.342539 0.843613
58 1 0.402631 0.428232 0.99804
419 1 0.415948 0.351241 0.924439
424 1 0.511987 0.416547 0.927031
428 1 0.683042 0.396892 0.918462
811 1 0.739476 0.487766 0.914823
432 1 0.825887 0.399267 0.904089
813 1 0.836704 0.487414 0.840313
453 1 0.835076 0.481337 0.998794
430 1 0.91633 0.425292 0.837638
815 1 0.915742 0.49816 0.917225
440 1 0.162918 0.587707 0.0970512
459 1 0.0862927 0.66421 0.0840286
435 1 0.0779938 0.506762 0.0889787
510 1 0.248549 0.584045 0.16466
438 1 0.251422 0.591757 0.00659245
437 1 0.173151 0.516874 0.0137207
444 1 0.33935 0.586853 0.0839014
442 1 0.421817 0.588473 0.00189108
443 1 0.41837 0.507822 0.0897972
448 1 0.508163 0.595445 0.0800812
452 1 0.660948 0.592845 0.0893621
447 1 0.567081 0.509813 0.0801662
518 1 0.583429 0.577723 0.162243
449 1 0.654901 0.511654 0.00739187
456 1 0.830739 0.593683 0.0760341
522 1 0.758312 0.599572 0.15932
436 1 0.99463 0.587872 0.0991135
479 1 0.90571 0.666118 0.0709968
454 1 0.91635 0.574819 0.002896
505 1 0.98316 0.511 0.164326
533 1 0.162956 0.667777 0.161854
464 1 0.164579 0.748146 0.0890673
483 1 0.0869149 0.830416 0.0776366
458 1 0.0751702 0.74775 0.00426898
463 1 0.250388 0.673815 0.0794325
534 1 0.270858 0.765984 0.157641
489 1 0.329509 0.826591 0.000765215
467 1 0.420652 0.674803 0.0795999
468 1 0.344651 0.753915 0.0759781
537 1 0.348651 0.679095 0.156474
541 1 0.492716 0.670792 0.164909
538 1 0.428901 0.751031 0.160442
471 1 0.589603 0.675962 0.0870099
472 1 0.513818 0.754114 0.0774067
476 1 0.663736 0.753265 0.0693715
545 1 0.664534 0.690198 0.158248
542 1 0.58279 0.770267 0.157746
475 1 0.742083 0.668529 0.08037
546 1 0.752963 0.752323 0.158042
499 1 0.758754 0.833285 0.0774697
480 1 0.823943 0.742775 0.0703725
501 1 0.826839 0.83014 0.000113709
549 1 0.84204 0.672261 0.148079
460 1 0.992931 0.725819 0.0800043
550 1 0.921922 0.749694 0.159876
553 1 0.991332 0.830394 0.165286
573 1 0.840633 0.827782 0.153178
478 1 0.906545 0.760963 0.00494467
77 1 0.158533 0.989709 0.166447
482 1 0.074293 0.92063 0.00251585
484 1 0.00470161 0.897853 0.0941827
554 1 0.0789795 0.900613 0.160058
3 1 0.0967114 0.99195 0.077087
487 1 0.245672 0.835105 0.0744718
488 1 0.170931 0.913207 0.0922933
492 1 0.328132 0.919219 0.072907
7 1 0.244086 0.991704 0.0783501
558 1 0.245288 0.920929 0.160443
491 1 0.420111 0.837749 0.0798418
562 1 0.417728 0.921439 0.15859
496 1 0.493972 0.930481 0.0663933
11 1 0.41124 0.989819 0.0850317
561 1 0.348275 0.839189 0.164617
490 1 0.412924 0.927957 0.00639931
495 1 0.575972 0.837487 0.0812389
15 1 0.575504 0.99117 0.077928
500 1 0.660078 0.919041 0.0736099
565 1 0.501642 0.85118 0.162642
566 1 0.590016 0.921452 0.159185
497 1 0.671193 0.84755 0.00970301
504 1 0.833034 0.923342 0.0816891
569 1 0.680215 0.844998 0.143889
498 1 0.754227 0.92686 0.00454326
503 1 0.916161 0.84677 0.0794284
574 1 0.910605 0.917864 0.165552
23 1 0.927802 0.990638 0.0901398
506 1 0.0807117 0.567378 0.171754
529 1 0.00754163 0.655527 0.176727
578 1 0.0856822 0.567796 0.331333
509 1 0.162971 0.500475 0.180797
512 1 0.173615 0.58168 0.249377
511 1 0.262125 0.514024 0.244245
514 1 0.428682 0.580314 0.177098
515 1 0.419879 0.515196 0.249667
516 1 0.336173 0.602781 0.233147
539 1 0.426888 0.663184 0.264194
586 1 0.407872 0.577036 0.331397
520 1 0.501919 0.575753 0.258076
543 1 0.576388 0.663532 0.231016
524 1 0.670494 0.578219 0.249012
528 1 0.832789 0.575076 0.271774
526 1 0.906702 0.590186 0.181032
508 1 0.989051 0.580255 0.267758
527 1 0.91726 0.502951 0.256146
525 1 0.841263 0.508147 0.169749
531 1 0.0817302 0.66686 0.257892
530 1 0.0782294 0.732323 0.174521
532 1 0.0030666 0.762809 0.25546
602 1 0.0872986 0.760471 0.333157
557 1 0.169732 0.830629 0.170366
605 1 0.18183 0.672561 0.326833
535 1 0.262204 0.67031 0.232249
536 1 0.169118 0.735479 0.241866
606 1 0.256095 0.749901 0.303706
540 1 0.339069 0.757677 0.243678
544 1 0.499929 0.751293 0.242624
610 1 0.423297 0.753838 0.321401
617 1 0.656652 0.682229 0.326358
613 1 0.51226 0.671068 0.315511
614 1 0.587804 0.761234 0.317246
547 1 0.756706 0.670412 0.245078
548 1 0.675075 0.746819 0.25289
618 1 0.755724 0.747215 0.323417
645 1 0.822709 0.827468 0.322278
551 1 0.906906 0.681124 0.25651
552 1 0.838535 0.762619 0.234725
575 1 0.919669 0.822201 0.239936
73 1 0.0117365 0.997929 0.172185
555 1 0.0784072 0.84303 0.245526
626 1 0.0941928 0.912719 0.329913
79 1 0.239284 0.998775 0.244743
559 1 0.248603 0.841851 0.265079
633 1 0.329305 0.848374 0.325089
560 1 0.167245 0.916457 0.254063
564 1 0.330318 0.91962 0.246709
563 1 0.407076 0.841796 0.250078
568 1 0.493186 0.921059 0.243524
634 1 0.421488 0.939462 0.324462
637 1 0.496452 0.84349 0.323127
87 1 0.586239 0.994081 0.25384
567 1 0.58644 0.842875 0.242085
638 1 0.582945 0.919159 0.332465
570 1 0.768503 0.915745 0.170281
571 1 0.736686 0.834714 0.242509
572 1 0.673906 0.916553 0.258599
89 1 0.670699 0.990636 0.166863
556 1 0.999106 0.911367 0.248287
576 1 0.852266 0.908187 0.259192
95 1 0.926714 0.994964 0.253711
603 1 0.0832171 0.654766 0.40531
650 1 0.0920542 0.571891 0.488435
582 1 0.258979 0.585605 0.333772
584 1 0.174411 0.58752 0.397889
607 1 0.258269 0.661458 0.417766
654 1 0.25059 0.580587 0.493041
677 1 0.172993 0.657035 0.497317
681 1 0.33013 0.666355 0.495536
658 1 0.433618 0.585192 0.49387
609 1 0.334096 0.66261 0.336178
588 1 0.342906 0.585427 0.414802
611 1 0.417638 0.662725 0.410842
662 1 0.579727 0.580703 0.499483
685 1 0.510811 0.66446 0.49467
592 1 0.510633 0.580082 0.393313
590 1 0.598332 0.574983 0.333768
615 1 0.592737 0.655883 0.419008
591 1 0.5807 0.503465 0.42227
596 1 0.66799 0.566612 0.422246
594 1 0.738051 0.55947 0.345361
621 1 0.8291 0.657732 0.338919
600 1 0.828354 0.588584 0.418094
619 1 0.723318 0.661825 0.410521
601 1 0.987288 0.665303 0.337155
598 1 0.904671 0.581761 0.338593
580 1 0.99793 0.571701 0.405906
670 1 0.912767 0.581173 0.484701
623 1 0.91686 0.666548 0.41145
627 1 0.0875706 0.823141 0.419663
604 1 0.0113431 0.74104 0.414856
701 1 0.160054 0.80504 0.489095
678 1 0.256046 0.745386 0.495836
608 1 0.177566 0.735147 0.413224
612 1 0.319242 0.742974 0.398504
682 1 0.419859 0.734321 0.489661
709 1 0.499857 0.815684 0.485424
635 1 0.411134 0.826657 0.416534
616 1 0.516417 0.736477 0.410231
639 1 0.582926 0.828676 0.401275
686 1 0.596141 0.745843 0.492676
620 1 0.684286 0.750391 0.412638
624 1 0.823248 0.737899 0.418352
622 1 0.909435 0.762677 0.333462
697 1 0.989073 0.814988 0.496515
647 1 0.915814 0.822983 0.416172
625 1 0.0179888 0.838251 0.338402
145 1 0.00250947 0.983207 0.344295
632 1 0.166576 0.923428 0.412212
221 1 0.176338 0.999714 0.492052
629 1 0.178521 0.840849 0.344133
630 1 0.255464 0.928637 0.344045
631 1 0.250827 0.839819 0.417805
702 1 0.237123 0.903644 0.497373
706 1 0.416424 0.916157 0.498678
229 1 0.488798 0.993077 0.495843
636 1 0.335686 0.906267 0.425854
640 1 0.485389 0.914148 0.406702
161 1 0.664527 0.998645 0.339978
157 1 0.507732 0.990191 0.338429
159 1 0.574051 0.998121 0.42051
710 1 0.584253 0.922985 0.488978
713 1 0.662164 0.84929 0.489729
644 1 0.675816 0.916569 0.408317
714 1 0.752878 0.909565 0.493395
642 1 0.757699 0.919717 0.345269
233 1 0.676582 0.996871 0.491978
641 1 0.669524 0.839407 0.33671
643 1 0.776331 0.841154 0.415468
165 1 0.840779 0.993346 0.343002
217 1 0.998491 0.994567 0.495916
646 1 0.914598 0.905685 0.340925
648 1 0.83772 0.935852 0.42679
628 1 0.989331 0.905587 0.417339
167 1 0.921543 0.994792 0.412543
722 1 0.0764905 0.573816 0.664899
656 1 0.165151 0.575039 0.577477
675 1 0.0747087 0.663983 0.58497
749 1 0.170206 0.652199 0.65135
679 1 0.263264 0.66146 0.576961
729 1 0.3288 0.502348 0.658018
725 1 0.168785 0.505824 0.66515
726 1 0.251799 0.577036 0.644888
753 1 0.333062 0.660752 0.663139
660 1 0.334486 0.582951 0.577851
730 1 0.412785 0.573007 0.649207
683 1 0.417754 0.652447 0.578129
664 1 0.504206 0.57536 0.582387
668 1 0.660366 0.582658 0.571985
663 1 0.580918 0.506737 0.584487
738 1 0.751385 0.5734 0.652243
689 1 0.668532 0.666278 0.511404
693 1 0.832811 0.661972 0.507678
666 1 0.760167 0.574414 0.500896
652 1 0.97656 0.573328 0.579157
672 1 0.835479 0.583358 0.582919
742 1 0.910578 0.572931 0.662615
695 1 0.91159 0.666302 0.586534
673 1 0.989081 0.652843 0.506773
746 1 0.0856423 0.743315 0.656967
769 1 0.00023033 0.818506 0.652179
699 1 0.094309 0.829009 0.585292
674 1 0.084644 0.726957 0.503511
680 1 0.170645 0.740278 0.577689
703 1 0.263338 0.810214 0.579613
773 1 0.185807 0.807805 0.658414
705 1 0.347404 0.827684 0.514103
684 1 0.355645 0.739054 0.578358
754 1 0.431659 0.75329 0.659677
707 1 0.430278 0.822354 0.576026
777 1 0.342994 0.825627 0.663834
688 1 0.516321 0.753686 0.579477
687 1 0.583861 0.667777 0.589351
692 1 0.665075 0.743526 0.603073
691 1 0.745662 0.669384 0.586469
762 1 0.759731 0.751973 0.663455
696 1 0.824727 0.744822 0.571607
690 1 0.727635 0.762012 0.51055
676 1 0.997312 0.74482 0.581822
719 1 0.91371 0.810982 0.585865
789 1 0.841418 0.826338 0.661123
694 1 0.908651 0.746209 0.501027
293 1 0.165573 0.986897 0.662799
700 1 0.00108771 0.91469 0.58415
698 1 0.073392 0.893595 0.502375
770 1 0.0827436 0.909457 0.655555
289 1 0.00240576 0.996483 0.665563
219 1 0.0927282 0.989917 0.581951
704 1 0.169989 0.910567 0.566668
223 1 0.257375 0.994103 0.596564
774 1 0.244229 0.895155 0.659746
225 1 0.330999 0.990423 0.514575
708 1 0.337064 0.906295 0.593134
712 1 0.494427 0.912987 0.580223
781 1 0.505041 0.843325 0.665098
785 1 0.661751 0.840492 0.665989
231 1 0.576902 0.996786 0.578773
711 1 0.585835 0.836306 0.588432
782 1 0.580673 0.923367 0.657837
716 1 0.657049 0.919505 0.574203
715 1 0.752338 0.847 0.583281
718 1 0.917731 0.91411 0.522293
720 1 0.837656 0.913078 0.597911
717 1 0.835649 0.841395 0.514583
821 1 0.159627 0.655454 0.826171
728 1 0.157726 0.573366 0.746705
724 1 0.00294248 0.578236 0.748498
801 1 0.331133 0.501387 0.829195
732 1 0.331937 0.58559 0.744639
751 1 0.238586 0.641279 0.740283
727 1 0.256969 0.5104 0.743477
797 1 0.166871 0.502689 0.832068
733 1 0.496703 0.505585 0.679049
802 1 0.417015 0.578007 0.82972
731 1 0.406535 0.506098 0.734915
755 1 0.414692 0.654187 0.72976
734 1 0.587673 0.581474 0.666706
757 1 0.505408 0.64651 0.676262
736 1 0.503314 0.584988 0.752301
806 1 0.592386 0.572626 0.818937
805 1 0.501644 0.50399 0.817227
761 1 0.682263 0.658749 0.677077
765 1 0.832843 0.664959 0.672878
740 1 0.681607 0.580144 0.750758
744 1 0.827069 0.566362 0.737068
809 1 0.68267 0.50181 0.829476
767 1 0.92157 0.649705 0.737036
814 1 0.90879 0.567811 0.831359
745 1 0.00367472 0.684154 0.671357
747 1 0.0756753 0.668878 0.760506
818 1 0.0757826 0.770444 0.821443
752 1 0.164607 0.741634 0.746422
845 1 0.164227 0.830257 0.826175
750 1 0.256081 0.734075 0.675624
775 1 0.264011 0.823847 0.754559
822 1 0.254582 0.733868 0.814123
756 1 0.337675 0.737061 0.746985
779 1 0.425866 0.830556 0.756537
849 1 0.333828 0.812249 0.826459
826 1 0.424353 0.747851 0.82545
759 1 0.582161 0.673122 0.744075
758 1 0.573282 0.746664 0.670806
760 1 0.503932 0.758798 0.748311
857 1 0.658372 0.832334 0.814493
829 1 0.500177 0.666858 0.817078
764 1 0.672654 0.751717 0.754818
763 1 0.757121 0.675861 0.754098
834 1 0.749101 0.75702 0.831037
787 1 0.75963 0.832947 0.746245
833 1 0.673062 0.675494 0.823114
766 1 0.914968 0.7427 0.675235
748 1 0.986555 0.760238 0.753649
768 1 0.838731 0.760277 0.749391
291 1 0.0948397 0.991099 0.756031
771 1 0.0688768 0.844133 0.747598
772 1 0.000584568 0.93524 0.754872
776 1 0.164399 0.902875 0.74045
842 1 0.0864249 0.916424 0.831068
846 1 0.246256 0.911364 0.82727
780 1 0.331914 0.917794 0.756754
778 1 0.414516 0.915206 0.671474
850 1 0.419328 0.912431 0.830917
784 1 0.495268 0.928063 0.753923
305 1 0.665387 0.996091 0.673155
783 1 0.572637 0.846059 0.745668
303 1 0.575356 0.994648 0.764861
377 1 0.658497 0.990301 0.827115
786 1 0.745539 0.920594 0.6699
788 1 0.668921 0.917024 0.758563
792 1 0.827757 0.939852 0.74897
861 1 0.824786 0.854665 0.824641
791 1 0.893543 0.855956 0.745779
790 1 0.916713 0.926573 0.669309
841 1 0.984438 0.854085 0.824714
794 1 0.0743636 0.580327 0.84571
434 1 0.0773212 0.574633 0.998829
800 1 0.151414 0.5767 0.915043
799 1 0.239046 0.514566 0.927923
798 1 0.243388 0.584318 0.834883
804 1 0.32017 0.584809 0.91035
803 1 0.409672 0.505003 0.911495
825 1 0.337649 0.660825 0.836898
445 1 0.488271 0.507138 0.98796
441 1 0.336465 0.509575 0.99929
808 1 0.484486 0.579638 0.914036
827 1 0.413898 0.660731 0.91613
446 1 0.577105 0.591556 0.991654
831 1 0.587632 0.647726 0.890773
812 1 0.664347 0.585166 0.91362
807 1 0.581526 0.508363 0.916047
477 1 0.814749 0.664565 0.997387
473 1 0.673834 0.651664 0.994402
810 1 0.756701 0.582603 0.834468
816 1 0.831251 0.572607 0.917065
835 1 0.742068 0.662965 0.901515
450 1 0.7483 0.56795 0.992657
837 1 0.835732 0.663622 0.834601
817 1 0.983728 0.663129 0.837484
796 1 0.999611 0.579364 0.917274
839 1 0.921725 0.662814 0.923216
820 1 0.0013477 0.767588 0.909594
819 1 0.0625694 0.681323 0.896927
824 1 0.150258 0.755667 0.910824
457 1 0.00018029 0.669781 0.989765
461 1 0.143972 0.671923 0.991153
462 1 0.242263 0.749209 0.990964
823 1 0.231711 0.681874 0.913302
847 1 0.253709 0.828301 0.905249
466 1 0.418835 0.743315 0.988371
851 1 0.416974 0.827134 0.910878
828 1 0.339022 0.756392 0.918853
465 1 0.33468 0.668592 0.996878
853 1 0.504305 0.830794 0.846263
470 1 0.586165 0.763679 0.993639
830 1 0.582533 0.753381 0.836427
832 1 0.506295 0.747762 0.914942
836 1 0.65602 0.748224 0.912851
469 1 0.506629 0.676012 0.994778
474 1 0.735383 0.754425 0.989669
838 1 0.915183 0.769662 0.844222
840 1 0.834599 0.745866 0.915864
363 1 0.0815547 0.988623 0.910903
848 1 0.163266 0.912587 0.916043
843 1 0.0774582 0.839931 0.918303
485 1 0.168695 0.836381 0.995494
486 1 0.257316 0.909466 0.99267
852 1 0.338579 0.910323 0.909589
493 1 0.496322 0.839928 0.994757
856 1 0.497532 0.923462 0.917192
375 1 0.59478 0.992748 0.916078
494 1 0.577338 0.909025 0.994713
854 1 0.571388 0.910876 0.836757
855 1 0.595366 0.839262 0.911149
864 1 0.819959 0.918972 0.912523
858 1 0.739436 0.925335 0.839263
860 1 0.671483 0.912761 0.932546
859 1 0.740997 0.833652 0.908137
502 1 0.918506 0.916493 0.988781
844 1 0.988356 0.930467 0.907398
481 1 0.996086 0.843508 0.998253
863 1 0.898816 0.838299 0.923607
862 1 0.904908 0.929146 0.840668
