ITEM: TIMESTEP
9500
ITEM: NUMBER OF ATOMS
864
ITEM: BOX BOUNDS pp pp pp
0.0000000000000000e+00 3.1559999999999999e+01
0.0000000000000000e+00 3.1559999999999999e+01
0.0000000000000000e+00 3.1559999999999999e+01
ITEM: ATOMS id type xs ys zs
8 1 0.163048 0.0904898 0.0857294
4 1 0.99376 0.0883673 0.0806764
3 1 0.07797 0.000968254 0.0913257
2 1 0.0848644 0.0966969 0.00568852
12 1 0.343066 0.0824822 0.0770711
16 1 0.486251 0.0886299 0.0871958
157 1 0.500543 0.0149032 0.33851
69 1 0.828192 0.330577 0.000474098
20 1 0.669821 0.0791654 0.0984758
86 1 0.582782 0.0767202 0.171658
24 1 0.848205 0.0965444 0.091429
216 1 0.840947 0.426305 0.4146
13 1 0.496473 0.0221887 0.0114261
9 1 0.318294 0.00910651 0.00336254
15 1 0.578134 0.0232988 0.089271
22 1 0.916667 0.0781808 0.00639946
27 1 0.082287 0.170372 0.0898049
32 1 0.158761 0.250639 0.0845176
98 1 0.0815618 0.242155 0.177359
31 1 0.251892 0.158662 0.0961518
55 1 0.244829 0.344472 0.0962445
129 1 0.313945 0.329429 0.188051
93 1 0.837901 0.00368281 0.172369
36 1 0.318498 0.259152 0.0905513
35 1 0.407574 0.178433 0.0783207
269 1 0.149652 0.345333 0.48372
40 1 0.493309 0.24282 0.0821508
39 1 0.58472 0.17227 0.0871818
110 1 0.590594 0.244765 0.165404
515 1 0.419355 0.495015 0.237844
37 1 0.502256 0.161678 0.00491015
249 1 0.321 0.177353 0.49857
44 1 0.679019 0.246862 0.0949998
43 1 0.753985 0.173622 0.0831065
7 1 0.250281 0.0175551 0.0836783
521 1 0.667042 0.497486 0.169308
21 1 0.838601 0.00386711 0.0151863
209 1 0.669824 0.328757 0.316836
47 1 0.928775 0.18043 0.0842839
28 1 0.0147877 0.248693 0.0720945
48 1 0.839754 0.262777 0.0873477
51 1 0.0890022 0.327613 0.0800591
196 1 0.994449 0.433875 0.415458
56 1 0.167505 0.42686 0.0672479
52 1 0.0160335 0.412689 0.0860358
125 1 0.16391 0.342394 0.162873
121 1 0.00949106 0.338453 0.164851
60 1 0.330117 0.425763 0.0810066
14 1 0.586958 0.0972905 0.0139001
589 1 0.510614 0.496052 0.33467
59 1 0.42247 0.34711 0.0860901
130 1 0.432384 0.425958 0.155041
79 1 0.241972 0.00937465 0.25585
85 1 0.510731 0.000507454 0.175997
64 1 0.504125 0.428502 0.0744188
63 1 0.581672 0.330123 0.0720662
61 1 0.499126 0.3334 0.0102634
67 1 0.755492 0.326902 0.0926686
68 1 0.66386 0.408448 0.0905091
505 1 0.0114146 0.499013 0.167739
137 1 0.676725 0.334906 0.170463
138 1 0.756086 0.426055 0.169139
254 1 0.567187 0.236302 0.49679
71 1 0.913664 0.342586 0.0665521
72 1 0.820944 0.438413 0.08737
142 1 0.915925 0.429993 0.168386
74 1 0.0761394 0.0826877 0.164634
447 1 0.58897 0.492823 0.0798826
146 1 0.0618325 0.0950631 0.34104
80 1 0.141292 0.0921623 0.255058
99 1 0.0826059 0.175815 0.270952
78 1 0.242701 0.0861506 0.181865
84 1 0.327848 0.0972463 0.262604
81 1 0.334158 0.0150638 0.175976
19 1 0.759407 0.0209887 0.106816
277 1 0.512643 0.332241 0.496262
82 1 0.408511 0.107825 0.172356
154 1 0.418544 0.100563 0.330374
83 1 0.39866 0.000482014 0.260425
113 1 0.663304 0.159169 0.172048
241 1 0.989411 0.161659 0.499806
88 1 0.504494 0.0892938 0.250231
92 1 0.658231 0.0846729 0.244794
10 1 0.421822 0.0937547 0.00384737
158 1 0.593172 0.0906155 0.331458
90 1 0.75298 0.0875132 0.17622
96 1 0.822773 0.0767541 0.258721
513 1 0.337522 0.490322 0.16736
5 1 0.158916 0.010455 0.00343423
117 1 0.852698 0.170956 0.168982
33 1 0.329359 0.168404 0.0166228
97 1 0.00241961 0.160152 0.17395
94 1 0.928705 0.0833081 0.173436
76 1 0.00749085 0.0771181 0.248129
167 1 0.907898 0.00572736 0.41604
145 1 0.00182928 0.00569114 0.336172
101 1 0.158037 0.159369 0.174485
104 1 0.156269 0.254223 0.258798
103 1 0.224935 0.165384 0.261821
102 1 0.236725 0.256031 0.164239
127 1 0.229099 0.328982 0.247736
105 1 0.324566 0.179915 0.185672
107 1 0.414382 0.182186 0.250849
108 1 0.317598 0.249558 0.270083
106 1 0.426911 0.262823 0.16245
109 1 0.492088 0.165046 0.166922
112 1 0.505405 0.257728 0.238639
111 1 0.580371 0.167497 0.246817
135 1 0.592732 0.340906 0.250652
114 1 0.762467 0.249383 0.165159
115 1 0.746028 0.166699 0.256835
116 1 0.686726 0.253689 0.241839
120 1 0.865618 0.249218 0.242486
139 1 0.780499 0.346516 0.255337
118 1 0.927506 0.265497 0.154712
141 1 0.839784 0.350667 0.160325
119 1 0.919721 0.153784 0.256153
100 1 0.998093 0.237361 0.253506
38 1 0.580798 0.240144 0.0147793
123 1 0.0801511 0.332681 0.250816
122 1 0.0840493 0.422628 0.168533
128 1 0.161532 0.430991 0.260145
124 1 0.992095 0.435559 0.258237
579 1 0.087568 0.493566 0.426574
126 1 0.253204 0.420591 0.174571
132 1 0.322103 0.421294 0.252893
131 1 0.400112 0.332566 0.247678
45 1 0.842883 0.169828 0.00600668
585 1 0.332776 0.4784 0.342281
133 1 0.513557 0.337247 0.150856
134 1 0.584301 0.423094 0.161869
136 1 0.510978 0.422117 0.229284
140 1 0.679731 0.417034 0.247248
17 1 0.669065 0.00384831 0.0157418
161 1 0.664936 0.0106945 0.355982
144 1 0.84668 0.422856 0.256682
143 1 0.921053 0.340832 0.240033
214 1 0.912891 0.421992 0.339061
213 1 0.849272 0.342727 0.334819
152 1 0.166686 0.0786912 0.425823
171 1 0.0849885 0.153843 0.446989
148 1 0.985041 0.0810142 0.426118
18 1 0.765315 0.0878758 0.00922327
211 1 0.727643 0.341959 0.422526
150 1 0.237965 0.0973016 0.350564
156 1 0.327237 0.095802 0.425833
509 1 0.177637 0.49263 0.150283
153 1 0.319842 0.0081548 0.345667
155 1 0.420873 0.0175779 0.414133
62 1 0.594955 0.415025 0.000611822
57 1 0.324065 0.343975 0.0083224
160 1 0.499589 0.0925774 0.414656
164 1 0.671652 0.093953 0.427725
189 1 0.826955 0.167033 0.32631
162 1 0.729097 0.0973019 0.341288
168 1 0.815511 0.0826859 0.415506
65 1 0.666281 0.334799 0.010399
166 1 0.915594 0.0749089 0.329013
266 1 0.060824 0.420271 0.496028
169 1 0.984078 0.16058 0.337399
191 1 0.892492 0.17428 0.428235
173 1 0.156087 0.164316 0.350631
170 1 0.0643384 0.255105 0.338862
210 1 0.758506 0.42401 0.341141
176 1 0.158062 0.250783 0.426349
195 1 0.0744176 0.330839 0.414804
41 1 0.664053 0.175227 0.00704092
177 1 0.329723 0.171859 0.347642
201 1 0.321811 0.340506 0.335025
174 1 0.225445 0.249489 0.339923
175 1 0.248148 0.164746 0.429789
179 1 0.417692 0.184852 0.421467
180 1 0.324692 0.256824 0.412024
178 1 0.416378 0.268478 0.341764
184 1 0.507843 0.2595 0.408641
207 1 0.582593 0.334939 0.406143
185 1 0.663568 0.178293 0.337254
181 1 0.502166 0.174286 0.346
182 1 0.584307 0.25524 0.326625
183 1 0.593201 0.160748 0.426297
188 1 0.664089 0.247469 0.429013
147 1 0.080724 0.00708396 0.427952
186 1 0.757901 0.265422 0.3349
187 1 0.751443 0.175398 0.40715
192 1 0.819289 0.262495 0.426042
193 1 0.993885 0.34527 0.336298
190 1 0.914649 0.248184 0.347779
215 1 0.901956 0.322637 0.434716
172 1 0.997045 0.249033 0.417579
77 1 0.16166 0.019584 0.162222
194 1 0.0805661 0.41808 0.33748
197 1 0.154556 0.330795 0.335
200 1 0.176284 0.427778 0.422412
89 1 0.662368 0.00409241 0.169351
199 1 0.241162 0.323205 0.41946
198 1 0.240645 0.410024 0.3275
203 1 0.407149 0.347688 0.423788
202 1 0.420179 0.411399 0.321089
204 1 0.311597 0.423386 0.426021
212 1 0.656578 0.417149 0.426584
206 1 0.586761 0.420784 0.339596
208 1 0.499075 0.416291 0.415574
205 1 0.504933 0.341481 0.308945
30 1 0.248829 0.251523 0.010416
270 1 0.235084 0.40843 0.497148
23 1 0.922517 0.0107722 0.100426
1 1 0.999723 0.00552617 0.00898865
26 1 0.0918768 0.25522 0.00450896
54 1 0.247178 0.416845 0.00356351
95 1 0.921431 0.00557022 0.247963
66 1 0.760234 0.416123 0.00788799
290 1 0.0795863 0.0846665 0.657187
224 1 0.18013 0.0749457 0.586001
243 1 0.0688194 0.166917 0.57736
228 1 0.324314 0.0842 0.586019
6 1 0.244266 0.0839032 0.994442
449 1 0.672597 0.499124 0.990694
232 1 0.506004 0.0933792 0.603182
225 1 0.331003 0.00974429 0.506243
227 1 0.409022 0.00931222 0.586999
301 1 0.498691 0.0101389 0.682255
725 1 0.163165 0.496748 0.661182
369 1 0.323267 0.00733189 0.833142
655 1 0.252765 0.486251 0.588888
305 1 0.666725 0.00210402 0.676633
257 1 0.681313 0.188138 0.51689
242 1 0.0877208 0.250046 0.508633
293 1 0.156004 0.000873693 0.663911
236 1 0.679423 0.0943557 0.597718
379 1 0.769503 0.0242768 0.918155
240 1 0.820842 0.0814133 0.60025
220 1 0.985356 0.0768784 0.592968
253 1 0.484343 0.164654 0.503056
248 1 0.163908 0.279707 0.583033
267 1 0.0777573 0.336947 0.593377
337 1 0.996444 0.336117 0.673278
247 1 0.254919 0.165184 0.587904
271 1 0.247022 0.345031 0.584374
252 1 0.332945 0.261017 0.591581
251 1 0.406162 0.172153 0.584883
275 1 0.432065 0.345577 0.583092
651 1 0.0756857 0.496147 0.576225
34 1 0.421498 0.249244 0.996991
230 1 0.575548 0.0905384 0.514963
256 1 0.505593 0.248352 0.591453
255 1 0.584296 0.167568 0.584166
260 1 0.671491 0.259169 0.598539
265 1 0.993883 0.332638 0.500791
273 1 0.321246 0.328429 0.507327
259 1 0.743134 0.173126 0.595707
283 1 0.745864 0.353368 0.603744
333 1 0.810491 0.174583 0.684244
264 1 0.829877 0.249544 0.605175
258 1 0.745218 0.279928 0.509175
244 1 0.991176 0.251632 0.581233
263 1 0.908966 0.162198 0.596922
287 1 0.917271 0.341654 0.589339
334 1 0.917154 0.25822 0.675471
365 1 0.157319 0.0226687 0.83828
285 1 0.826596 0.347866 0.513239
338 1 0.0639243 0.415175 0.678589
432 1 0.823919 0.439736 0.916049
278 1 0.575989 0.418057 0.511067
274 1 0.40227 0.418587 0.513834
272 1 0.164258 0.406246 0.588562
218 1 0.0814426 0.0781187 0.52082
373 1 0.494259 0.0142685 0.833838
671 1 0.905118 0.484697 0.588792
276 1 0.33553 0.41677 0.588823
345 1 0.329698 0.343762 0.668238
238 1 0.903315 0.0833983 0.508195
280 1 0.505502 0.43254 0.598641
279 1 0.579795 0.340322 0.590988
231 1 0.58802 0.0237004 0.593837
281 1 0.646617 0.319887 0.503954
284 1 0.65847 0.410874 0.598382
288 1 0.838254 0.410892 0.617682
239 1 0.906764 0.00560562 0.588482
49 1 0.0158711 0.329599 0.999823
282 1 0.733655 0.414341 0.501538
268 1 0.998412 0.412178 0.595291
286 1 0.918693 0.416342 0.500426
383 1 0.912767 0.00165269 0.926944
371 1 0.426319 0.0152415 0.928874
296 1 0.151232 0.0850955 0.738695
317 1 0.158524 0.169908 0.655116
42 1 0.754118 0.250117 0.985099
229 1 0.493163 0.0344636 0.503721
294 1 0.241731 0.0679883 0.672303
300 1 0.314936 0.0934769 0.758121
299 1 0.409935 0.00562253 0.766162
298 1 0.414704 0.0862635 0.662712
304 1 0.488289 0.090019 0.753245
222 1 0.256595 0.0889157 0.505829
370 1 0.402831 0.0928315 0.851542
303 1 0.58204 0.00991726 0.755227
302 1 0.586693 0.089184 0.680963
329 1 0.66895 0.187319 0.681924
306 1 0.755363 0.0725208 0.683103
308 1 0.66619 0.0854363 0.762318
312 1 0.832712 0.0834508 0.756062
731 1 0.409959 0.497225 0.766617
50 1 0.0796107 0.409117 0.998676
25 1 0.00107281 0.16535 0.998598
310 1 0.910672 0.088694 0.690508
292 1 0.00697795 0.0806938 0.752755
53 1 0.166897 0.34504 0.998884
314 1 0.0782174 0.247319 0.649078
315 1 0.0751558 0.172218 0.745323
320 1 0.18247 0.245846 0.751841
339 1 0.0813846 0.324945 0.748712
341 1 0.173167 0.338408 0.680181
319 1 0.239808 0.164504 0.73634
318 1 0.248406 0.253248 0.66207
343 1 0.254161 0.333328 0.76209
321 1 0.332674 0.167752 0.676955
393 1 0.334967 0.181601 0.828436
325 1 0.496237 0.167994 0.676942
322 1 0.405938 0.261063 0.668242
323 1 0.404667 0.163599 0.757744
324 1 0.324758 0.261569 0.748162
347 1 0.422464 0.352113 0.769628
326 1 0.585978 0.250703 0.685227
328 1 0.480016 0.25495 0.750528
327 1 0.574837 0.174066 0.764858
332 1 0.659853 0.243401 0.771323
331 1 0.741486 0.178091 0.776948
330 1 0.745333 0.255879 0.681198
336 1 0.825928 0.257313 0.773043
405 1 0.833692 0.160722 0.840427
425 1 0.656549 0.343752 0.843485
313 1 0.995342 0.165688 0.664714
316 1 0.00207937 0.248446 0.749738
335 1 0.908194 0.180711 0.760669
359 1 0.916474 0.328667 0.769477
406 1 0.929857 0.258451 0.848076
340 1 0.00145919 0.425825 0.758128
344 1 0.146592 0.428041 0.750849
410 1 0.0788575 0.424568 0.835034
795 1 0.091076 0.495811 0.925427
226 1 0.395741 0.0954193 0.504893
342 1 0.247351 0.420019 0.676729
348 1 0.321628 0.427467 0.754563
417 1 0.337937 0.343093 0.827325
346 1 0.416748 0.425042 0.674583
418 1 0.433833 0.417154 0.860386
349 1 0.494287 0.34402 0.681088
350 1 0.591412 0.419662 0.675336
353 1 0.662113 0.328552 0.691863
351 1 0.573938 0.330861 0.759214
352 1 0.515409 0.423807 0.774476
354 1 0.746189 0.432351 0.694124
355 1 0.738562 0.333575 0.763009
356 1 0.65129 0.419504 0.760584
659 1 0.42286 0.497884 0.585192
357 1 0.831774 0.330886 0.678773
358 1 0.918096 0.405927 0.685186
360 1 0.831807 0.420846 0.761047
362 1 0.0739147 0.0880433 0.834605
368 1 0.157521 0.093056 0.914993
363 1 0.0906434 0.00985222 0.910673
29 1 0.166193 0.16665 0.994274
246 1 0.236539 0.257524 0.505423
366 1 0.252696 0.09079 0.842827
372 1 0.337638 0.0890022 0.929459
729 1 0.331217 0.494841 0.658271
233 1 0.678651 0.00737113 0.520707
291 1 0.0848135 0.00955401 0.7495
376 1 0.503599 0.0868932 0.915424
395 1 0.417306 0.169249 0.924936
235 1 0.751579 0.00263667 0.600355
430 1 0.916233 0.429029 0.835184
217 1 0.990402 0.00505815 0.513301
397 1 0.504847 0.179833 0.836646
377 1 0.652046 0.0194797 0.838306
374 1 0.578708 0.0976311 0.835146
399 1 0.574849 0.173374 0.926518
380 1 0.657833 0.0856547 0.931678
381 1 0.842357 0.00574705 0.844407
378 1 0.744131 0.0775278 0.82695
384 1 0.844263 0.0940488 0.928464
361 1 0.000247785 0.00252706 0.830263
382 1 0.913637 0.0953159 0.830436
364 1 0.00186363 0.0680101 0.917727
385 1 0.00951265 0.182634 0.83505
70 1 0.920017 0.431877 0.99301
387 1 0.0848241 0.173066 0.907558
245 1 0.166969 0.174088 0.524237
386 1 0.0963428 0.259743 0.828043
392 1 0.156619 0.252268 0.915766
389 1 0.175354 0.163679 0.826301
415 1 0.25021 0.344421 0.907032
390 1 0.238001 0.256055 0.832845
391 1 0.257168 0.167903 0.911678
396 1 0.32971 0.243146 0.922493
262 1 0.897581 0.250894 0.50203
394 1 0.42206 0.269783 0.848348
421 1 0.50296 0.3346 0.849471
400 1 0.502043 0.260146 0.925872
401 1 0.655715 0.172979 0.847346
398 1 0.585671 0.2683 0.840031
402 1 0.753803 0.251504 0.856563
404 1 0.663057 0.257245 0.917811
403 1 0.744866 0.153095 0.921634
261 1 0.823495 0.155448 0.519067
407 1 0.925936 0.165247 0.913702
408 1 0.842487 0.248891 0.92104
431 1 0.93502 0.336779 0.934493
388 1 0.0195654 0.252384 0.917541
412 1 0.00649763 0.427027 0.91684
413 1 0.153383 0.35153 0.824051
416 1 0.168837 0.422394 0.91689
411 1 0.0935225 0.327656 0.914037
409 1 0.00906026 0.343722 0.83057
414 1 0.24383 0.421211 0.834369
420 1 0.325313 0.42003 0.917489
419 1 0.409957 0.331143 0.940248
424 1 0.505086 0.411942 0.935763
428 1 0.673284 0.427727 0.912587
367 1 0.241452 0.00674959 0.921383
422 1 0.574559 0.43042 0.858967
58 1 0.416855 0.430251 0.994452
423 1 0.578129 0.330101 0.941573
429 1 0.825957 0.357104 0.839887
426 1 0.744992 0.424018 0.820121
427 1 0.747785 0.345197 0.922295
669 1 0.829048 0.491157 0.513204
250 1 0.402122 0.254192 0.507311
234 1 0.752526 0.0801042 0.509313
297 1 0.338765 0.0168614 0.666881
46 1 0.921649 0.250606 0.996882
295 1 0.225399 0.0101023 0.755032
459 1 0.0849217 0.664571 0.0795639
439 1 0.250943 0.511344 0.0743723
717 1 0.834113 0.828329 0.49846
435 1 0.0883791 0.510185 0.0791361
440 1 0.166007 0.58817 0.0927866
453 1 0.819588 0.518766 0.00879913
159 1 0.594648 0.999093 0.438804
642 1 0.745092 0.908789 0.335221
593 1 0.673686 0.507585 0.340808
91 1 0.746448 0.9873 0.235453
444 1 0.338873 0.594179 0.0737961
514 1 0.411292 0.585656 0.168959
690 1 0.745569 0.753702 0.498288
448 1 0.495738 0.592347 0.0829641
452 1 0.655289 0.58751 0.101154
518 1 0.584007 0.589808 0.184968
451 1 0.733327 0.502777 0.0808702
456 1 0.824834 0.592462 0.0781655
481 1 0.000220323 0.851224 0.00514435
522 1 0.75302 0.584039 0.166979
436 1 0.00423077 0.589374 0.0841892
577 1 0.0117484 0.513176 0.345082
455 1 0.920244 0.503805 0.0891221
525 1 0.828277 0.501213 0.177858
11 1 0.40777 0.995711 0.0935205
73 1 0.0112606 0.997795 0.182342
457 1 0.996122 0.668561 0.00695912
529 1 0.0072348 0.657558 0.160198
597 1 0.827815 0.51064 0.352164
464 1 0.173253 0.753936 0.0889031
463 1 0.253843 0.679626 0.087347
534 1 0.252851 0.75547 0.179387
75 1 0.0858229 0.997896 0.26571
467 1 0.415901 0.677479 0.0781727
468 1 0.330988 0.763409 0.0903541
507 1 0.0785187 0.503499 0.262008
561 1 0.333817 0.844767 0.173682
472 1 0.495492 0.754817 0.0910303
471 1 0.582117 0.675668 0.0751808
476 1 0.649975 0.768988 0.0827595
541 1 0.503336 0.673094 0.173392
545 1 0.65957 0.683403 0.162881
475 1 0.73822 0.661347 0.0905326
569 1 0.66051 0.828323 0.170403
546 1 0.748915 0.760636 0.174548
480 1 0.838788 0.762232 0.0993775
501 1 0.836536 0.841651 0.018183
460 1 0.0120872 0.748321 0.0822443
479 1 0.911971 0.672357 0.0808697
550 1 0.939616 0.745813 0.162753
673 1 0.995748 0.679845 0.495502
483 1 0.0905818 0.839839 0.0808013
482 1 0.0914173 0.927167 0.00464461
443 1 0.424636 0.515296 0.0699043
487 1 0.25599 0.823106 0.0680616
488 1 0.17887 0.919231 0.0784996
492 1 0.317732 0.928925 0.0953658
434 1 0.0940749 0.596299 0.00082817
648 1 0.827382 0.910102 0.415924
650 1 0.075823 0.585343 0.493283
491 1 0.413391 0.841875 0.097331
496 1 0.487042 0.92126 0.0894569
149 1 0.157285 0.997162 0.349611
446 1 0.594281 0.590725 0.00748258
495 1 0.573641 0.858348 0.0903491
566 1 0.587822 0.914099 0.170863
500 1 0.660335 0.911855 0.0857084
469 1 0.494163 0.682946 0.00106737
494 1 0.588094 0.925623 0.00478253
499 1 0.751701 0.842378 0.0829559
504 1 0.831209 0.929535 0.09017
573 1 0.833138 0.84068 0.169042
677 1 0.158345 0.672221 0.493297
498 1 0.743077 0.911703 0.00514994
477 1 0.823587 0.684916 0.00979105
484 1 0.994292 0.924735 0.0776153
503 1 0.927429 0.832625 0.08724
163 1 0.737287 0.999218 0.431848
511 1 0.263335 0.504037 0.258907
506 1 0.0977566 0.573591 0.174243
508 1 0.0107879 0.58002 0.258991
512 1 0.173428 0.594737 0.255102
510 1 0.25473 0.582648 0.151389
535 1 0.271409 0.671646 0.250096
474 1 0.737398 0.744437 0.0212366
697 1 0.000446539 0.836416 0.489481
516 1 0.337261 0.581941 0.239918
539 1 0.406485 0.667597 0.265696
537 1 0.336423 0.676152 0.168167
517 1 0.502691 0.511084 0.166666
520 1 0.498371 0.56318 0.25715
524 1 0.662077 0.585682 0.259055
613 1 0.490604 0.65577 0.332254
526 1 0.914209 0.572512 0.174116
528 1 0.828722 0.592866 0.249673
527 1 0.908131 0.505258 0.266492
458 1 0.0789289 0.75862 0.000224691
523 1 0.750506 0.50164 0.253443
530 1 0.0768143 0.740388 0.17951
531 1 0.0754931 0.660994 0.251686
533 1 0.156404 0.67514 0.158408
536 1 0.164815 0.718539 0.25235
559 1 0.248627 0.834535 0.247456
540 1 0.337228 0.760445 0.250852
538 1 0.415064 0.745402 0.168795
563 1 0.413487 0.836635 0.271434
544 1 0.493874 0.75226 0.258985
543 1 0.576399 0.661962 0.261629
542 1 0.57689 0.751144 0.180853
548 1 0.660804 0.759435 0.248779
614 1 0.562917 0.761615 0.352826
617 1 0.658975 0.681842 0.336047
637 1 0.493099 0.841534 0.350879
549 1 0.846529 0.66563 0.166942
547 1 0.740241 0.669941 0.246287
552 1 0.847453 0.743123 0.253336
571 1 0.747714 0.82778 0.264424
532 1 0.0128982 0.762625 0.256363
551 1 0.937079 0.666969 0.244076
575 1 0.913979 0.831721 0.244469
554 1 0.0955309 0.912723 0.169638
553 1 0.997136 0.846591 0.172495
555 1 0.0994578 0.826939 0.250381
626 1 0.0759633 0.91506 0.343812
560 1 0.153959 0.914959 0.273043
558 1 0.251756 0.934327 0.184585
557 1 0.164872 0.837737 0.168817
502 1 0.908543 0.925286 0.0189731
644 1 0.655819 0.917881 0.427326
630 1 0.247964 0.907514 0.330018
562 1 0.407478 0.926718 0.178118
564 1 0.323416 0.919776 0.252814
565 1 0.482239 0.842094 0.182735
568 1 0.511265 0.919747 0.259821
567 1 0.56428 0.824671 0.259346
638 1 0.570776 0.930932 0.353866
572 1 0.666957 0.915826 0.257877
570 1 0.732262 0.908522 0.171941
576 1 0.839061 0.91618 0.254261
574 1 0.921714 0.927752 0.165745
556 1 0.00259678 0.923262 0.256452
646 1 0.905781 0.917835 0.335915
454 1 0.919072 0.59046 0.0103364
645 1 0.820363 0.826924 0.343529
578 1 0.093048 0.588744 0.343535
603 1 0.0798018 0.682891 0.415401
605 1 0.180139 0.652357 0.351341
582 1 0.260543 0.586701 0.329066
584 1 0.165199 0.579634 0.42645
607 1 0.259514 0.66656 0.426038
87 1 0.591377 0.995644 0.259396
628 1 0.987067 0.919815 0.415858
588 1 0.335017 0.567828 0.428106
586 1 0.409949 0.572827 0.331674
609 1 0.343698 0.657718 0.354489
433 1 0.0117275 0.509524 0.00928049
592 1 0.496035 0.580782 0.424386
590 1 0.594441 0.579794 0.345211
615 1 0.579769 0.663013 0.409725
599 1 0.911786 0.50624 0.41934
596 1 0.665097 0.59302 0.425659
594 1 0.739747 0.584066 0.335991
600 1 0.832656 0.589007 0.428505
619 1 0.741291 0.662743 0.421713
583 1 0.244495 0.505406 0.427287
598 1 0.910183 0.580705 0.345634
601 1 0.00137961 0.666668 0.335255
580 1 0.00519973 0.587175 0.417101
519 1 0.596248 0.507557 0.256906
623 1 0.920207 0.668598 0.398526
602 1 0.0872926 0.752362 0.336251
625 1 0.997132 0.84459 0.32954
629 1 0.169523 0.824737 0.335725
490 1 0.405573 0.919534 0.00622989
221 1 0.160312 0.99992 0.498433
606 1 0.262341 0.738913 0.344663
608 1 0.171853 0.751037 0.413862
631 1 0.258055 0.83445 0.419075
633 1 0.339354 0.849462 0.354558
610 1 0.410404 0.749818 0.34423
612 1 0.337548 0.752144 0.431501
611 1 0.427651 0.677547 0.430551
165 1 0.809084 0.999619 0.35361
616 1 0.494109 0.764979 0.448853
620 1 0.660786 0.744722 0.421551
639 1 0.571237 0.846397 0.427627
618 1 0.752143 0.746744 0.334405
641 1 0.662442 0.83105 0.342545
643 1 0.736307 0.831171 0.420568
647 1 0.903226 0.832301 0.406251
622 1 0.911765 0.75055 0.333405
621 1 0.821708 0.657575 0.339029
624 1 0.830124 0.74402 0.415741
604 1 0.997012 0.76138 0.413755
581 1 0.174844 0.513758 0.330217
627 1 0.0792775 0.834676 0.413846
493 1 0.485492 0.833218 0.0163178
632 1 0.154622 0.912112 0.431522
636 1 0.354662 0.932628 0.423791
461 1 0.172489 0.673147 0.00787853
634 1 0.423436 0.927724 0.338349
635 1 0.412509 0.83923 0.436954
640 1 0.499557 0.934062 0.434126
470 1 0.578534 0.770456 0.00150254
151 1 0.25002 0.993735 0.419537
587 1 0.423015 0.505253 0.441542
595 1 0.737452 0.506507 0.424344
591 1 0.592184 0.520152 0.427027
656 1 0.151925 0.591075 0.574351
462 1 0.258561 0.748995 0.98912
675 1 0.0767838 0.67163 0.571587
859 1 0.74984 0.833946 0.924635
660 1 0.328617 0.588763 0.593194
674 1 0.0749952 0.766554 0.506242
709 1 0.500342 0.849378 0.52544
813 1 0.82881 0.509359 0.824562
689 1 0.678195 0.672794 0.512316
664 1 0.49803 0.576646 0.605487
668 1 0.672236 0.594247 0.587084
485 1 0.173311 0.833222 0.999035
672 1 0.847555 0.582253 0.593274
691 1 0.757332 0.670583 0.593588
289 1 0.993746 0.995581 0.669469
811 1 0.746727 0.506245 0.918388
693 1 0.838297 0.666865 0.500621
652 1 0.998145 0.596344 0.576735
695 1 0.928431 0.675573 0.587105
815 1 0.900341 0.508306 0.928963
661 1 0.502455 0.516797 0.516369
699 1 0.071515 0.844171 0.592847
438 1 0.262899 0.598241 0.995668
858 1 0.7481 0.930899 0.841648
680 1 0.151541 0.73323 0.593554
679 1 0.23983 0.663934 0.591317
703 1 0.239129 0.824647 0.589466
750 1 0.243886 0.746948 0.671139
855 1 0.583079 0.849077 0.925539
684 1 0.322909 0.739799 0.591935
683 1 0.418033 0.66211 0.600996
685 1 0.502308 0.661423 0.51144
682 1 0.408272 0.745845 0.51836
713 1 0.667575 0.833762 0.507406
687 1 0.587392 0.663623 0.586884
688 1 0.503683 0.75608 0.588172
711 1 0.593503 0.83533 0.586574
686 1 0.580861 0.750894 0.513671
692 1 0.666034 0.75233 0.58343
698 1 0.084788 0.914324 0.505896
696 1 0.831736 0.760396 0.581715
437 1 0.170768 0.51793 0.99395
803 1 0.425831 0.513081 0.914523
676 1 0.985584 0.762291 0.589597
719 1 0.910371 0.835935 0.584017
465 1 0.338012 0.677877 0.995037
769 1 0.997024 0.825047 0.690802
704 1 0.155954 0.915811 0.585829
666 1 0.765079 0.596027 0.502218
770 1 0.0656712 0.923828 0.667266
741 1 0.847554 0.503015 0.682409
708 1 0.34515 0.912723 0.591647
774 1 0.2339 0.911605 0.666969
777 1 0.315957 0.820058 0.671914
681 1 0.340746 0.662206 0.506558
707 1 0.39926 0.822517 0.59605
712 1 0.493959 0.935774 0.5992
778 1 0.415245 0.93009 0.68108
665 1 0.668752 0.511608 0.510147
466 1 0.40317 0.765112 0.999302
797 1 0.167331 0.512646 0.836454
715 1 0.74894 0.824128 0.590684
716 1 0.670485 0.926315 0.600303
720 1 0.81203 0.913703 0.588352
658 1 0.425873 0.591701 0.512931
862 1 0.92726 0.913034 0.834085
700 1 0.99051 0.906972 0.584196
789 1 0.82812 0.832672 0.682312
706 1 0.426278 0.940127 0.515369
445 1 0.497758 0.523759 0.99608
722 1 0.0762782 0.599702 0.654096
728 1 0.170392 0.590009 0.748731
649 1 0.982637 0.515256 0.503784
223 1 0.229624 0.982766 0.577963
726 1 0.230325 0.583209 0.652122
219 1 0.0905193 0.994811 0.58518
730 1 0.417745 0.569247 0.66857
732 1 0.339879 0.58306 0.733404
802 1 0.420364 0.586407 0.833905
739 1 0.74412 0.524887 0.761997
497 1 0.660311 0.837764 0.9898
735 1 0.584256 0.509272 0.762612
734 1 0.58222 0.587939 0.671613
736 1 0.502424 0.594089 0.74357
759 1 0.574612 0.684334 0.744818
733 1 0.49893 0.506521 0.694158
737 1 0.663599 0.506736 0.674348
738 1 0.742737 0.585194 0.667031
375 1 0.573012 0.99338 0.922082
740 1 0.656322 0.610164 0.749749
763 1 0.742879 0.676228 0.761305
745 1 0.99189 0.678797 0.676977
724 1 0.99775 0.597901 0.749833
723 1 0.0672625 0.513536 0.761335
744 1 0.82942 0.593684 0.749322
742 1 0.922891 0.581219 0.66305
814 1 0.913255 0.592812 0.839003
765 1 0.831042 0.677892 0.680744
767 1 0.913705 0.665632 0.753008
746 1 0.0732213 0.744246 0.682305
747 1 0.0779208 0.664848 0.765272
748 1 0.00848498 0.752077 0.765785
752 1 0.159505 0.748659 0.75552
818 1 0.0772987 0.756459 0.842716
845 1 0.168478 0.83293 0.838765
751 1 0.246757 0.666083 0.753333
749 1 0.155558 0.673677 0.681248
773 1 0.143322 0.83946 0.677949
755 1 0.418653 0.667224 0.754234
753 1 0.313907 0.664846 0.674773
756 1 0.342143 0.757343 0.752126
754 1 0.405658 0.740466 0.671707
760 1 0.501269 0.777325 0.740422
829 1 0.50509 0.688882 0.824965
757 1 0.502952 0.673754 0.667401
758 1 0.591076 0.762231 0.658763
764 1 0.681306 0.764586 0.75668
761 1 0.662945 0.681864 0.66131
762 1 0.745761 0.75973 0.676683
768 1 0.842627 0.757361 0.756805
833 1 0.664241 0.677199 0.838196
766 1 0.912716 0.765154 0.679373
771 1 0.0888159 0.823985 0.763948
841 1 0.0116752 0.848872 0.844351
864 1 0.824453 0.926027 0.940054
775 1 0.23946 0.847231 0.761041
776 1 0.156908 0.927342 0.753806
780 1 0.326837 0.940552 0.747548
781 1 0.502436 0.850003 0.660518
779 1 0.413748 0.84361 0.745101
784 1 0.496748 0.920175 0.763223
782 1 0.576332 0.915462 0.668501
785 1 0.671423 0.837088 0.673346
783 1 0.591198 0.837077 0.746015
788 1 0.655251 0.927535 0.757083
857 1 0.671393 0.842576 0.839643
854 1 0.586222 0.932759 0.839304
786 1 0.7449 0.91095 0.693956
787 1 0.752838 0.84183 0.769206
861 1 0.835685 0.849188 0.853734
790 1 0.907704 0.916571 0.661238
791 1 0.916093 0.844697 0.757944
772 1 0.00644542 0.923077 0.76234
792 1 0.837909 0.931268 0.768042
678 1 0.237184 0.75493 0.510076
793 1 0.985706 0.515816 0.84745
817 1 0.000841812 0.676438 0.857566
794 1 0.0788427 0.590597 0.851637
800 1 0.179326 0.586677 0.918605
796 1 0.999166 0.592542 0.922073
798 1 0.258268 0.59445 0.83675
823 1 0.248733 0.678716 0.916375
743 1 0.923428 0.514019 0.754097
663 1 0.594953 0.502638 0.581014
804 1 0.337007 0.594194 0.91943
808 1 0.511116 0.599995 0.917452
805 1 0.506225 0.515179 0.838206
450 1 0.74509 0.595706 0.998212
809 1 0.65512 0.513015 0.837636
710 1 0.574209 0.940959 0.523998
806 1 0.572794 0.597068 0.831511
694 1 0.917369 0.759653 0.505947
807 1 0.586291 0.510356 0.934073
667 1 0.769325 0.509671 0.596514
309 1 0.834109 0.991268 0.682078
812 1 0.660783 0.589867 0.918502
810 1 0.752893 0.596786 0.837253
702 1 0.263254 0.914796 0.500286
705 1 0.33433 0.833288 0.512056
657 1 0.334128 0.50439 0.517298
816 1 0.830434 0.604237 0.923524
837 1 0.83145 0.678283 0.839092
839 1 0.928601 0.675833 0.923177
714 1 0.744904 0.912222 0.50013
727 1 0.259408 0.517275 0.75382
819 1 0.0957512 0.665491 0.923627
824 1 0.170514 0.748454 0.904785
820 1 0.00173946 0.770214 0.925516
825 1 0.340935 0.663111 0.821452
821 1 0.162882 0.65084 0.832474
822 1 0.240395 0.748094 0.830552
828 1 0.34026 0.760049 0.890177
827 1 0.433006 0.687725 0.908115
826 1 0.433513 0.766156 0.830534
832 1 0.508351 0.765366 0.925132
489 1 0.322538 0.857208 0.985169
701 1 0.157421 0.828595 0.523973
830 1 0.582274 0.761195 0.823787
831 1 0.577601 0.687066 0.915979
442 1 0.417225 0.594388 0.992357
835 1 0.738041 0.678746 0.927735
834 1 0.753266 0.750791 0.84186
840 1 0.821851 0.762265 0.925282
836 1 0.650283 0.76269 0.918201
863 1 0.913896 0.859602 0.930595
838 1 0.910086 0.754647 0.850294
856 1 0.501418 0.917935 0.92481
844 1 0.0118392 0.924712 0.921072
842 1 0.0881911 0.926998 0.830837
848 1 0.162684 0.930115 0.910947
843 1 0.0914151 0.845056 0.920523
473 1 0.65521 0.681149 0.997439
846 1 0.233853 0.934615 0.833526
847 1 0.248525 0.844013 0.914733
849 1 0.33072 0.843458 0.826395
852 1 0.338257 0.943545 0.912401
654 1 0.243182 0.597676 0.505711
851 1 0.412674 0.838171 0.914861
853 1 0.51052 0.845296 0.833823
850 1 0.426578 0.918593 0.840394
799 1 0.253587 0.504064 0.911828
860 1 0.664598 0.926961 0.925666
237 1 0.825879 0.997196 0.508239
801 1 0.335127 0.516662 0.837848
721 1 0.998212 0.502187 0.661119
718 1 0.906105 0.914059 0.507955
670 1 0.916881 0.59803 0.512477
307 1 0.752048 0.991649 0.749916
441 1 0.332797 0.504642 0.998031
478 1 0.912482 0.755558 0.991704
311 1 0.92027 0.999123 0.759047
662 1 0.582289 0.597384 0.504175
486 1 0.246855 0.933391 0.99942
653 1 0.160586 0.500105 0.516108
