ITEM: TIMESTEP
16250
ITEM: NUMBER OF ATOMS
864
ITEM: BOX BOUNDS pp pp pp
0.0000000000000000e+00 3.1559999999999999e+01
0.0000000000000000e+00 3.1559999999999999e+01
0.0000000000000000e+00 3.1559999999999999e+01
ITEM: ATOMS id type xs ys zs
4 1 0.0317204 0.0958847 0.0511069
38 1 0.0988894 0.0953092 0.145513
37 1 0.0262082 0.011877 0.138152
8 1 0.199228 0.0869374 0.0615912
42 1 0.263743 0.0859602 0.152205
81 1 0.36764 0.019529 0.325494
19 1 0.260359 0.178726 0.0821695
109 1 0.0414445 0.0122006 0.485474
12 1 0.359994 0.099466 0.0713056
46 1 0.438196 0.0877277 0.157781
83 1 0.4487 0.0257756 0.401989
11 1 0.448127 0.00934296 0.0635543
15 1 0.114999 0.175035 0.0698544
16 1 0.0209636 0.247311 0.0709313
50 1 0.120812 0.266156 0.142959
49 1 0.0301392 0.175821 0.148323
61 1 0.0369741 0.337617 0.123488
20 1 0.189929 0.275508 0.0629836
53 1 0.188518 0.178223 0.160695
65 1 0.199556 0.352517 0.149961
57 1 0.351649 0.183943 0.160443
24 1 0.354254 0.269685 0.0542795
23 1 0.43131 0.181024 0.0687632
58 1 0.440972 0.264545 0.136425
27 1 0.119886 0.34967 0.0729821
62 1 0.112313 0.410264 0.160766
28 1 0.0400014 0.432006 0.0660885
32 1 0.191875 0.430838 0.0723251
31 1 0.272792 0.354048 0.0644689
66 1 0.282809 0.441569 0.144602
69 1 0.366433 0.354832 0.151132
36 1 0.36624 0.446778 0.0700588
35 1 0.445593 0.357077 0.0612593
70 1 0.44607 0.439931 0.161102
40 1 0.0321394 0.0910689 0.243068
121 1 0.0239324 0.186696 0.483546
133 1 0.0299418 0.358201 0.479366
44 1 0.180261 0.0897317 0.232815
78 1 0.277606 0.0820838 0.32717
47 1 0.430854 0.00628125 0.229599
48 1 0.351882 0.0930344 0.228733
82 1 0.460957 0.0915034 0.309975
3 1 0.105502 0.00854356 0.0564832
51 1 0.0980773 0.167398 0.245894
85 1 0.0201881 0.172287 0.325402
86 1 0.102925 0.274379 0.314704
52 1 0.021793 0.251462 0.225813
63 1 0.104864 0.336888 0.233433
54 1 0.266557 0.254641 0.169379
55 1 0.26652 0.172544 0.232929
89 1 0.194686 0.172648 0.321408
56 1 0.184989 0.263525 0.243153
90 1 0.279144 0.253032 0.314755
59 1 0.442324 0.185051 0.229178
60 1 0.356757 0.273872 0.232872
94 1 0.442262 0.272587 0.308837
93 1 0.35583 0.176534 0.303717
64 1 0.0227132 0.407924 0.230564
98 1 0.109212 0.415424 0.313286
97 1 0.0173904 0.352065 0.332812
141 1 0.375801 0.342196 0.477242
101 1 0.197249 0.345684 0.317856
67 1 0.272349 0.345402 0.231881
68 1 0.209579 0.428907 0.234931
102 1 0.280814 0.431259 0.326521
108 1 0.363735 0.427156 0.403802
71 1 0.439589 0.348524 0.23035
105 1 0.359845 0.347468 0.305425
106 1 0.432272 0.433131 0.320425
72 1 0.350644 0.427957 0.230914
74 1 0.119896 0.0978277 0.327844
76 1 0.0203435 0.0896947 0.405069
41 1 0.180135 0.00955992 0.143077
110 1 0.100798 0.102297 0.485801
75 1 0.10341 0.0187594 0.395598
255 1 0.117947 0.492254 0.235203
80 1 0.196686 0.0764016 0.404224
125 1 0.183418 0.183712 0.485703
73 1 0.0256363 0.00174076 0.319052
117 1 0.378385 0.0181442 0.48099
84 1 0.363056 0.0974667 0.40226
118 1 0.450416 0.0987683 0.485557
79 1 0.286177 0.0168557 0.415087
87 1 0.104277 0.190242 0.386952
88 1 0.0161831 0.274114 0.408493
122 1 0.103775 0.26671 0.473499
45 1 0.349645 0.0064746 0.151329
126 1 0.281032 0.259265 0.485072
91 1 0.276296 0.176747 0.39164
92 1 0.189927 0.256516 0.40487
130 1 0.441564 0.265765 0.48048
129 1 0.362917 0.185422 0.494834
95 1 0.446773 0.172762 0.389212
96 1 0.3693 0.267261 0.391354
100 1 0.0316095 0.447511 0.409488
113 1 0.178226 0.0322278 0.498951
99 1 0.10299 0.353054 0.40403
138 1 0.283382 0.43112 0.487318
103 1 0.279013 0.324699 0.400889
104 1 0.201121 0.439617 0.399694
137 1 0.199659 0.341372 0.490065
142 1 0.454559 0.424196 0.465032
107 1 0.461761 0.331886 0.400789
114 1 0.277906 0.095019 0.49467
134 1 0.133769 0.420566 0.480555
7 1 0.281695 0.000301645 0.0643618
146 1 0.110022 0.111473 0.651631
145 1 0.0249665 0.0234731 0.642286
112 1 0.0191779 0.0998593 0.572988
111 1 0.115122 0.00419375 0.573397
115 1 0.298106 0.00677963 0.561584
116 1 0.195224 0.106633 0.577234
150 1 0.28623 0.0978714 0.641011
149 1 0.212074 0.0184571 0.63985
153 1 0.376284 0.000282119 0.636372
120 1 0.374345 0.089299 0.568781
154 1 0.440061 0.0952342 0.653479
119 1 0.455292 0.00408017 0.559253
123 1 0.0880044 0.187512 0.5654
124 1 0.0101215 0.267094 0.557447
158 1 0.109867 0.246607 0.655118
157 1 0.0220351 0.180496 0.654154
161 1 0.194941 0.180199 0.654107
127 1 0.286298 0.184148 0.568433
128 1 0.185543 0.258012 0.562083
162 1 0.284415 0.258768 0.665754
173 1 0.188338 0.347421 0.664774
131 1 0.456825 0.188941 0.56428
165 1 0.366752 0.178359 0.643684
132 1 0.36826 0.259609 0.568868
166 1 0.451897 0.2676 0.645419
143 1 0.452489 0.344197 0.552855
169 1 0.0146365 0.327756 0.646896
135 1 0.110556 0.33522 0.576077
170 1 0.120399 0.428249 0.644582
136 1 0.044534 0.426334 0.569415
34 1 0.448478 0.435744 0.979424
139 1 0.280738 0.344215 0.561751
140 1 0.212165 0.424081 0.574649
174 1 0.286214 0.430027 0.662679
14 1 0.108476 0.252943 0.996971
177 1 0.353868 0.346249 0.644271
144 1 0.369817 0.417757 0.568148
178 1 0.445454 0.427402 0.642676
148 1 0.0221669 0.0955406 0.733629
189 1 0.368703 0.0107611 0.821115
182 1 0.107313 0.0827999 0.797301
191 1 0.438408 0.0273254 0.896314
152 1 0.19423 0.0840503 0.721262
186 1 0.275821 0.0961991 0.813816
151 1 0.289348 0.0225975 0.723121
185 1 0.196967 0.0110233 0.797336
156 1 0.360419 0.108756 0.723304
190 1 0.444109 0.0969302 0.825863
193 1 0.023571 0.164135 0.812159
159 1 0.108132 0.179156 0.739736
194 1 0.10622 0.25531 0.819472
160 1 0.0320222 0.252576 0.73694
205 1 0.0254414 0.353896 0.832339
197 1 0.199454 0.171446 0.80454
163 1 0.277254 0.172075 0.732806
164 1 0.181886 0.262835 0.732761
198 1 0.262305 0.259361 0.797583
175 1 0.288814 0.351239 0.737126
168 1 0.36917 0.270639 0.732644
167 1 0.444856 0.172989 0.736252
201 1 0.355192 0.179837 0.80803
202 1 0.446155 0.269867 0.820756
179 1 0.455236 0.337303 0.729314
172 1 0.0204152 0.41153 0.731334
171 1 0.102575 0.341094 0.73098
206 1 0.109733 0.424903 0.828646
30 1 0.273015 0.428891 0.989606
209 1 0.194518 0.349205 0.807022
210 1 0.285801 0.437643 0.809749
176 1 0.186411 0.439778 0.732832
215 1 0.434514 0.351986 0.903044
216 1 0.356804 0.444084 0.915145
155 1 0.428967 0.017278 0.729199
214 1 0.44492 0.428986 0.819386
180 1 0.37379 0.420625 0.720086
213 1 0.366645 0.33527 0.816891
183 1 0.128593 0.0150693 0.878713
1 1 0.0262746 0.0260208 0.980602
184 1 0.0318182 0.0930519 0.891023
2 1 0.116095 0.0950273 0.987134
195 1 0.108729 0.18445 0.911372
187 1 0.266263 0.0164373 0.898661
33 1 0.363749 0.360962 0.982433
188 1 0.186567 0.0972143 0.906496
6 1 0.28452 0.0993307 0.977427
9 1 0.368305 0.0240864 0.98463
10 1 0.442414 0.101395 0.986294
192 1 0.348743 0.106061 0.895566
25 1 0.0359015 0.351793 0.990417
13 1 0.0226162 0.181995 0.992259
327 1 0.116349 0.495887 0.56254
196 1 0.0276716 0.262598 0.896887
17 1 0.223255 0.194574 0.971881
18 1 0.279017 0.278843 0.985238
200 1 0.187263 0.277615 0.892983
199 1 0.280324 0.18459 0.892858
21 1 0.353884 0.178421 0.997698
203 1 0.456291 0.187555 0.917357
204 1 0.364924 0.260974 0.907894
22 1 0.456831 0.277462 0.980821
26 1 0.117558 0.448766 0.989659
207 1 0.10428 0.337096 0.908493
208 1 0.0364079 0.435693 0.910927
211 1 0.297341 0.347529 0.888277
29 1 0.17714 0.353873 0.987234
212 1 0.196957 0.427657 0.899871
147 1 0.112254 0.00350934 0.713811
181 1 0.0351603 0.000494409 0.809527
220 1 0.0280268 0.584502 0.0736376
254 1 0.123799 0.598674 0.164852
358 1 0.445225 0.917427 0.483597
219 1 0.115327 0.533446 0.0738612
224 1 0.194367 0.604374 0.0777513
258 1 0.279885 0.603097 0.146343
223 1 0.260748 0.520628 0.0669288
350 1 0.130801 0.936748 0.492441
228 1 0.358061 0.597566 0.0648908
261 1 0.365926 0.522389 0.154058
262 1 0.433239 0.598528 0.137714
227 1 0.446432 0.519559 0.0611542
231 1 0.0926781 0.67125 0.0700174
232 1 0.0179653 0.753191 0.0494182
266 1 0.11154 0.757393 0.159604
265 1 0.0229008 0.694291 0.160832
277 1 0.0472589 0.843016 0.157774
269 1 0.193287 0.684084 0.151988
236 1 0.192959 0.750518 0.0574645
235 1 0.293352 0.683898 0.0587928
270 1 0.281301 0.769489 0.136566
240 1 0.374813 0.78335 0.0622376
273 1 0.36354 0.680835 0.150441
239 1 0.446506 0.682153 0.0783394
274 1 0.433412 0.764077 0.155664
244 1 0.028656 0.909139 0.0627628
243 1 0.126045 0.837485 0.0586298
278 1 0.106963 0.926018 0.142964
329 1 0.204968 0.510987 0.479967
247 1 0.270633 0.85323 0.0613804
248 1 0.195649 0.930204 0.0659477
282 1 0.267175 0.925614 0.156631
281 1 0.184991 0.851455 0.157232
251 1 0.448278 0.860277 0.0616117
285 1 0.357998 0.854772 0.150001
252 1 0.358902 0.920326 0.0429031
286 1 0.421256 0.939908 0.14259
290 1 0.106275 0.587466 0.314737
256 1 0.0277934 0.596349 0.234857
324 1 0.352525 0.941332 0.391556
260 1 0.195986 0.590396 0.244106
305 1 0.188724 0.681952 0.309339
294 1 0.285129 0.605198 0.315416
259 1 0.267977 0.515807 0.225454
263 1 0.432448 0.521916 0.229126
264 1 0.354372 0.602153 0.228652
298 1 0.435983 0.60248 0.32525
297 1 0.348553 0.518574 0.303037
267 1 0.107529 0.671033 0.238633
268 1 0.0194582 0.76214 0.242507
313 1 0.0272628 0.845482 0.319099
302 1 0.0981122 0.740994 0.322935
301 1 0.0286729 0.664787 0.325311
272 1 0.208327 0.757091 0.232672
306 1 0.271189 0.751692 0.320567
271 1 0.282017 0.678725 0.2279
275 1 0.45046 0.675953 0.240424
276 1 0.354503 0.763877 0.233115
310 1 0.448894 0.764991 0.312945
309 1 0.374034 0.690025 0.320299
321 1 0.368722 0.838872 0.322676
279 1 0.111934 0.835675 0.246963
280 1 0.0283718 0.917885 0.235046
318 1 0.268598 0.92654 0.328668
283 1 0.271142 0.851019 0.241092
284 1 0.184132 0.916041 0.231828
317 1 0.190087 0.837089 0.31158
39 1 0.104388 0.997515 0.230659
287 1 0.44387 0.840114 0.239111
322 1 0.449661 0.935884 0.331313
288 1 0.356062 0.917076 0.255494
357 1 0.366197 0.839968 0.489288
293 1 0.203771 0.506628 0.315583
353 1 0.196752 0.820921 0.478694
292 1 0.0325261 0.582496 0.403794
291 1 0.127816 0.511845 0.408763
333 1 0.373736 0.508725 0.484597
330 1 0.273123 0.592073 0.495509
296 1 0.190551 0.603278 0.400485
325 1 0.0391639 0.521283 0.487798
295 1 0.283335 0.524489 0.393644
257 1 0.192388 0.509383 0.152695
354 1 0.279066 0.909366 0.480411
334 1 0.445016 0.590896 0.479275
300 1 0.371971 0.593291 0.39773
304 1 0.0292612 0.74935 0.408154
303 1 0.109743 0.674386 0.407372
338 1 0.101421 0.761231 0.489029
342 1 0.281518 0.740772 0.493455
319 1 0.267804 0.831469 0.395729
341 1 0.186531 0.67763 0.490771
308 1 0.19025 0.740076 0.399374
307 1 0.274936 0.677078 0.407805
346 1 0.4406 0.76041 0.470307
311 1 0.454213 0.677106 0.401645
345 1 0.369065 0.664507 0.481697
312 1 0.349958 0.758071 0.402837
323 1 0.439874 0.834262 0.404312
314 1 0.111098 0.925614 0.31779
316 1 0.0296339 0.924724 0.410019
315 1 0.113037 0.841344 0.405416
349 1 0.0188113 0.841559 0.487064
320 1 0.195457 0.957198 0.39743
43 1 0.275754 0.989766 0.242008
299 1 0.44718 0.505704 0.402272
77 1 0.183107 0.999146 0.301302
253 1 0.0395308 0.502486 0.147016
289 1 0.0288497 0.50297 0.291744
362 1 0.113866 0.601145 0.656077
328 1 0.0353472 0.58865 0.581675
371 1 0.437345 0.508129 0.731965
407 1 0.454022 0.514494 0.894312
332 1 0.192468 0.586612 0.569186
366 1 0.278159 0.592423 0.651569
343 1 0.279443 0.662896 0.57047
405 1 0.361635 0.515594 0.800305
336 1 0.37046 0.598913 0.567409
381 1 0.361466 0.673806 0.648072
369 1 0.372469 0.512345 0.644451
370 1 0.452764 0.600328 0.643903
250 1 0.438824 0.930388 0.983912
373 1 0.0342235 0.676973 0.649031
339 1 0.1137 0.683456 0.578993
340 1 0.0179069 0.760124 0.565758
374 1 0.105078 0.768633 0.654822
377 1 0.194065 0.669132 0.645335
344 1 0.194387 0.759448 0.569473
378 1 0.277074 0.76216 0.650426
355 1 0.280453 0.834149 0.559041
389 1 0.204259 0.844027 0.651069
347 1 0.467254 0.684728 0.567264
348 1 0.368663 0.739752 0.564966
382 1 0.452066 0.75688 0.652878
385 1 0.0346883 0.842254 0.647603
351 1 0.119344 0.842777 0.568963
386 1 0.11934 0.922612 0.638274
352 1 0.0432923 0.925204 0.562564
356 1 0.207787 0.924461 0.569922
390 1 0.281014 0.932465 0.654401
359 1 0.448503 0.83702 0.562564
393 1 0.364346 0.841407 0.651945
360 1 0.382153 0.921935 0.565429
394 1 0.453558 0.931037 0.648814
364 1 0.0294624 0.605918 0.738093
398 1 0.10655 0.594724 0.811358
361 1 0.0249569 0.508458 0.645439
368 1 0.190382 0.594542 0.736096
402 1 0.280375 0.590265 0.809167
401 1 0.183091 0.512381 0.819858
372 1 0.356207 0.601324 0.72777
406 1 0.441792 0.589566 0.807969
417 1 0.328359 0.686036 0.81595
375 1 0.116088 0.68501 0.741249
376 1 0.0284929 0.764077 0.723432
410 1 0.110688 0.758812 0.813736
409 1 0.0157612 0.672533 0.815491
379 1 0.261181 0.676564 0.724144
413 1 0.194231 0.679558 0.822427
380 1 0.18823 0.758025 0.722201
425 1 0.190951 0.849815 0.815131
391 1 0.278652 0.847647 0.740358
414 1 0.258464 0.766999 0.805844
383 1 0.44854 0.677559 0.723325
384 1 0.35738 0.764384 0.733744
418 1 0.442286 0.766092 0.8047
421 1 0.0461884 0.848096 0.813333
388 1 0.0221877 0.929904 0.733563
387 1 0.110444 0.855073 0.73155
422 1 0.117888 0.924264 0.818088
392 1 0.194954 0.941409 0.711119
426 1 0.275112 0.936304 0.811612
432 1 0.36053 0.933214 0.900198
395 1 0.444349 0.848986 0.731672
429 1 0.352403 0.849082 0.812755
396 1 0.354241 0.916765 0.726753
430 1 0.431988 0.924825 0.81832
365 1 0.190698 0.502838 0.643743
400 1 0.0318692 0.593988 0.899125
218 1 0.107639 0.590449 0.988237
399 1 0.115214 0.516013 0.897634
217 1 0.0292748 0.512263 0.989504
403 1 0.279999 0.517667 0.886941
404 1 0.195114 0.583281 0.890872
222 1 0.287128 0.60069 0.984395
221 1 0.203426 0.522482 0.977283
415 1 0.26466 0.69339 0.904342
408 1 0.367389 0.58518 0.900489
397 1 0.0245605 0.505806 0.827343
226 1 0.44133 0.607593 0.989632
229 1 0.0301379 0.673713 0.981992
230 1 0.115698 0.746403 0.983086
412 1 0.0253595 0.762892 0.879923
411 1 0.110921 0.680422 0.886048
241 1 0.0519081 0.837789 0.969376
423 1 0.129386 0.849443 0.900516
234 1 0.283238 0.759451 0.987768
233 1 0.19205 0.665488 0.975995
416 1 0.188382 0.76208 0.909847
238 1 0.459696 0.744438 0.985596
237 1 0.359159 0.690538 0.970865
419 1 0.433299 0.670435 0.898051
420 1 0.350694 0.757943 0.891269
242 1 0.117791 0.92048 0.990591
424 1 0.0400113 0.934746 0.893109
246 1 0.264483 0.932182 0.972076
427 1 0.277433 0.833193 0.890037
428 1 0.196549 0.929004 0.891768
245 1 0.199624 0.842725 0.984254
249 1 0.361674 0.837892 0.972735
335 1 0.452468 0.524898 0.560304
431 1 0.444445 0.848102 0.89746
367 1 0.26294 0.514307 0.726746
363 1 0.0993143 0.50549 0.728655
5 1 0.180185 0.998611 0.986842
225 1 0.369946 0.526101 0.988634
337 1 0.0212685 0.673261 0.501423
331 1 0.293749 0.50788 0.574992
326 1 0.108965 0.601616 0.50242
470 1 0.621079 0.104024 0.144121
436 1 0.516527 0.0955004 0.07026
515 1 0.942001 0.00487352 0.405806
539 1 0.946748 0.357928 0.403416
440 1 0.695977 0.0471431 0.0540073
474 1 0.78357 0.0773991 0.144628
444 1 0.862748 0.0987407 0.0619691
478 1 0.954552 0.0975924 0.148875
540 1 0.855553 0.433268 0.405827
447 1 0.617368 0.165868 0.057589
482 1 0.59685 0.252203 0.136044
448 1 0.535559 0.266297 0.0600351
443 1 0.949993 0.0205125 0.0707255
451 1 0.791379 0.186403 0.0621613
485 1 0.70845 0.163892 0.122164
452 1 0.701406 0.259433 0.0526432
486 1 0.792976 0.275431 0.15059
489 1 0.876948 0.168067 0.147267
456 1 0.880013 0.242183 0.0668054
455 1 0.948904 0.15933 0.0624111
490 1 0.949642 0.246905 0.152603
459 1 0.613471 0.348483 0.0631235
460 1 0.521758 0.439147 0.0719303
493 1 0.518383 0.34858 0.138981
497 1 0.696567 0.350151 0.144192
463 1 0.781185 0.348345 0.0670018
464 1 0.68119 0.432883 0.0627887
498 1 0.779271 0.435799 0.151694
467 1 0.948554 0.343398 0.0546106
468 1 0.864425 0.413895 0.0661366
501 1 0.882723 0.336851 0.145988
502 1 0.960103 0.420192 0.142022
535 1 0.787267 0.322701 0.387295
506 1 0.619374 0.0925854 0.306522
472 1 0.532371 0.105084 0.226563
469 1 0.523204 0.0159897 0.147861
471 1 0.608201 0.0155462 0.204387
570 1 0.773953 0.429146 0.485186
476 1 0.698931 0.0951408 0.218332
510 1 0.773992 0.100343 0.320035
435 1 0.603066 5.06888e-06 0.073469
480 1 0.850624 0.102642 0.232143
514 1 0.949035 0.0884766 0.324255
513 1 0.863001 0.00812872 0.317818
484 1 0.523158 0.25704 0.2104
517 1 0.528097 0.187879 0.296769
483 1 0.613568 0.181081 0.218678
518 1 0.611238 0.265121 0.286485
495 1 0.6058 0.331858 0.209348
521 1 0.700418 0.186294 0.307537
487 1 0.776323 0.192088 0.210267
488 1 0.69604 0.264384 0.200355
522 1 0.786913 0.25757 0.306085
525 1 0.867894 0.172631 0.327318
491 1 0.943784 0.164606 0.228524
492 1 0.869355 0.254623 0.224491
526 1 0.956585 0.256741 0.31288
496 1 0.520712 0.429132 0.234076
494 1 0.59937 0.432603 0.150582
529 1 0.525427 0.340716 0.307158
530 1 0.604319 0.419429 0.302503
499 1 0.778263 0.346938 0.227966
533 1 0.699059 0.340248 0.307462
534 1 0.792128 0.431157 0.315284
500 1 0.68625 0.42576 0.219319
573 1 0.857442 0.350821 0.471754
537 1 0.863714 0.349502 0.306682
503 1 0.946316 0.333555 0.22668
538 1 0.943422 0.437098 0.319915
504 1 0.868407 0.424274 0.203443
508 1 0.540314 0.0838695 0.390617
479 1 0.941139 0.0111791 0.234334
509 1 0.687719 0.0117059 0.312115
557 1 0.696684 0.155153 0.491536
512 1 0.688112 0.0930515 0.403379
546 1 0.77506 0.0883108 0.486293
523 1 0.778828 0.173612 0.402298
574 1 0.958798 0.44271 0.483409
545 1 0.686184 0.016288 0.481153
549 1 0.861724 0.0197152 0.484802
550 1 0.952327 0.0967942 0.482872
475 1 0.791241 0.00324841 0.232649
516 1 0.858925 0.0840881 0.395323
553 1 0.532726 0.172038 0.465427
569 1 0.706247 0.324063 0.488165
519 1 0.612799 0.169065 0.391104
520 1 0.533456 0.258283 0.385587
565 1 0.539364 0.3278 0.47887
511 1 0.762491 0.0102437 0.396909
558 1 0.784188 0.250685 0.479424
524 1 0.690216 0.259956 0.393293
561 1 0.871206 0.173049 0.480325
562 1 0.930317 0.270482 0.492019
527 1 0.953158 0.175771 0.407798
528 1 0.877794 0.257313 0.393169
542 1 0.598762 0.0906273 0.490766
531 1 0.613779 0.354092 0.3971
532 1 0.534928 0.428979 0.385
566 1 0.613156 0.423164 0.483907
536 1 0.701811 0.423272 0.378255
481 1 0.50508 0.173703 0.143399
554 1 0.622015 0.247389 0.487004
687 1 0.598797 0.49941 0.239232
505 1 0.532746 0.00731814 0.300078
544 1 0.517759 0.104156 0.570793
647 1 0.939702 0.354376 0.907773
555 1 0.609617 0.169324 0.574693
578 1 0.60718 0.102974 0.652734
577 1 0.527396 0.0200238 0.647815
548 1 0.681737 0.0847719 0.571708
582 1 0.78673 0.09193 0.651954
543 1 0.596407 0.00870263 0.561949
433 1 0.535166 0.0144161 0.984591
552 1 0.862418 0.0809032 0.576128
597 1 0.85744 0.179017 0.658385
586 1 0.942764 0.0974535 0.651436
585 1 0.872108 0.0198334 0.660621
623 1 0.951457 0.0120307 0.892869
556 1 0.540927 0.263148 0.575204
590 1 0.596434 0.271145 0.668582
589 1 0.528723 0.170232 0.663637
559 1 0.793164 0.177602 0.562769
593 1 0.69545 0.167391 0.642807
560 1 0.709646 0.254924 0.5656
594 1 0.784711 0.268648 0.654515
563 1 0.95051 0.183178 0.562022
564 1 0.862755 0.264283 0.572495
598 1 0.932437 0.250954 0.662109
567 1 0.619302 0.340357 0.563011
602 1 0.613757 0.427454 0.642436
568 1 0.518668 0.426749 0.558566
601 1 0.525112 0.356272 0.638623
587 1 0.948932 0.010196 0.733274
571 1 0.78537 0.363917 0.567988
605 1 0.698984 0.337458 0.650168
572 1 0.692723 0.425571 0.561889
606 1 0.778752 0.4187 0.670139
575 1 0.945191 0.368694 0.563156
609 1 0.85702 0.337518 0.663811
576 1 0.86942 0.435869 0.556015
610 1 0.94277 0.420978 0.6576
613 1 0.522883 0.00754182 0.833297
580 1 0.523993 0.0930274 0.73703
614 1 0.608046 0.0886382 0.822023
648 1 0.852779 0.429225 0.92443
584 1 0.704235 0.100188 0.716923
618 1 0.768314 0.0872384 0.825053
551 1 0.947713 0.0103184 0.544479
629 1 0.687707 0.166402 0.816535
588 1 0.85179 0.0634326 0.752829
622 1 0.937885 0.100745 0.810893
581 1 0.688082 0.00457711 0.648646
625 1 0.516313 0.178546 0.811332
591 1 0.612323 0.175179 0.733046
592 1 0.516306 0.252934 0.74116
626 1 0.608345 0.262233 0.80162
637 1 0.527508 0.347338 0.824968
596 1 0.693487 0.267223 0.733064
595 1 0.778501 0.176455 0.738302
630 1 0.763925 0.255629 0.82118
641 1 0.679838 0.342681 0.820195
599 1 0.940791 0.17933 0.739659
600 1 0.850351 0.258971 0.742288
634 1 0.954441 0.264489 0.819229
633 1 0.853003 0.16805 0.815093
603 1 0.616487 0.362321 0.731721
638 1 0.606641 0.418469 0.825118
604 1 0.529855 0.433679 0.725516
607 1 0.770203 0.342082 0.750536
608 1 0.696342 0.433708 0.738138
642 1 0.783469 0.432563 0.825003
643 1 0.760154 0.340757 0.890543
646 1 0.93791 0.430301 0.825118
645 1 0.849755 0.333232 0.826861
611 1 0.947546 0.33522 0.742579
612 1 0.864984 0.414404 0.746995
616 1 0.529971 0.0966151 0.904405
466 1 0.942081 0.432141 0.98717
465 1 0.845506 0.336628 0.980165
461 1 0.691986 0.355502 0.985893
615 1 0.606113 0.0189037 0.90049
620 1 0.703155 0.09971 0.905951
438 1 0.777861 0.0864682 0.981145
434 1 0.613457 0.0822375 0.991243
579 1 0.605524 0.00940642 0.725763
442 1 0.951082 0.101459 0.96474
624 1 0.860935 0.0958414 0.892788
441 1 0.868141 0.0166621 0.970055
445 1 0.530744 0.170913 0.984658
628 1 0.527786 0.267212 0.904117
627 1 0.60304 0.177999 0.895519
446 1 0.61735 0.256858 0.977599
449 1 0.685365 0.178026 0.970607
450 1 0.779188 0.260921 0.968915
631 1 0.779324 0.17048 0.900407
632 1 0.680393 0.251201 0.88621
454 1 0.951306 0.266964 0.98511
635 1 0.947586 0.181252 0.89254
636 1 0.856099 0.251535 0.885522
453 1 0.869593 0.17891 0.974772
639 1 0.609933 0.346706 0.907066
640 1 0.527888 0.430713 0.905458
457 1 0.532777 0.358585 0.979581
458 1 0.600471 0.430412 0.983665
462 1 0.764949 0.429379 0.98612
644 1 0.691618 0.426559 0.896067
803 1 0.957138 0.499791 0.742435
763 1 0.783824 0.499143 0.577877
547 1 0.773162 0.0128228 0.570811
686 1 0.617367 0.600597 0.169574
652 1 0.528629 0.595988 0.0833863
651 1 0.59699 0.520519 0.0698458
685 1 0.530365 0.515477 0.152895
656 1 0.695182 0.592975 0.0837648
690 1 0.788044 0.593743 0.146264
507 1 0.621501 0.99454 0.386101
667 1 0.750059 0.683498 0.0655374
655 1 0.765927 0.518568 0.062863
693 1 0.8512 0.5146 0.135685
660 1 0.848837 0.598279 0.0581715
694 1 0.94896 0.600511 0.15429
663 1 0.612911 0.682446 0.0866727
698 1 0.609061 0.758982 0.158913
664 1 0.527698 0.754323 0.0755966
697 1 0.526964 0.67964 0.157775
675 1 0.611996 0.847842 0.0575246
701 1 0.690543 0.686699 0.153314
668 1 0.67933 0.762194 0.0674535
702 1 0.777806 0.759931 0.150623
790 1 0.946843 0.922308 0.484841
705 1 0.86445 0.677222 0.144229
671 1 0.943195 0.672396 0.0471034
672 1 0.881022 0.751956 0.0667404
706 1 0.957031 0.773002 0.137672
710 1 0.607829 0.920041 0.1498
709 1 0.540852 0.834025 0.143142
676 1 0.531621 0.925115 0.0773084
679 1 0.767099 0.838585 0.0717099
713 1 0.691287 0.849517 0.152885
680 1 0.690011 0.925096 0.0744301
714 1 0.778716 0.916244 0.144173
439 1 0.782986 0.977671 0.053827
756 1 0.868232 0.93135 0.392682
717 1 0.857665 0.838604 0.141775
683 1 0.951423 0.848051 0.0490623
684 1 0.879767 0.925979 0.0517903
718 1 0.945242 0.917901 0.14583
725 1 0.693766 0.501634 0.305906
722 1 0.60517 0.590695 0.307216
688 1 0.530833 0.601396 0.24172
477 1 0.861873 0.996934 0.144149
541 1 0.535674 0.996768 0.468725
692 1 0.704562 0.59413 0.230886
726 1 0.781439 0.587973 0.309679
691 1 0.780117 0.513046 0.224299
696 1 0.848403 0.607627 0.22522
730 1 0.94989 0.580459 0.321525
741 1 0.879516 0.67226 0.337064
757 1 0.529638 0.507027 0.489609
729 1 0.871428 0.515726 0.309563
733 1 0.532563 0.690281 0.323868
699 1 0.602228 0.677801 0.23962
734 1 0.615176 0.760805 0.32135
700 1 0.522957 0.758594 0.22866
703 1 0.779634 0.6826 0.25747
704 1 0.699425 0.758109 0.246466
738 1 0.783702 0.770631 0.314494
737 1 0.690938 0.671373 0.322221
707 1 0.944469 0.679466 0.241097
708 1 0.870233 0.760253 0.215936
742 1 0.94625 0.763204 0.326705
745 1 0.520217 0.848232 0.311357
712 1 0.523216 0.927514 0.224246
711 1 0.603257 0.839757 0.234495
746 1 0.601561 0.911046 0.31354
715 1 0.789915 0.846788 0.226274
749 1 0.696179 0.833892 0.334576
716 1 0.703194 0.913949 0.239318
750 1 0.789393 0.923649 0.317767
753 1 0.865887 0.850896 0.306791
719 1 0.945413 0.837443 0.233075
720 1 0.872763 0.934376 0.236949
754 1 0.948926 0.92319 0.32875
695 1 0.953006 0.51137 0.217464
724 1 0.518945 0.581988 0.391113
758 1 0.61631 0.592881 0.477699
774 1 0.779288 0.757376 0.482347
721 1 0.517168 0.506553 0.304572
762 1 0.787292 0.599699 0.488636
728 1 0.692247 0.589436 0.386428
727 1 0.781348 0.51662 0.400996
739 1 0.776974 0.659218 0.392465
773 1 0.693066 0.676718 0.482353
731 1 0.947514 0.516908 0.405246
732 1 0.858611 0.591512 0.403609
765 1 0.864344 0.506224 0.478616
743 1 0.952822 0.673778 0.40481
766 1 0.940763 0.589894 0.480299
770 1 0.616026 0.766688 0.474587
769 1 0.535917 0.679436 0.470821
735 1 0.614346 0.684917 0.391793
736 1 0.528708 0.760278 0.399168
740 1 0.69956 0.747323 0.410398
473 1 0.70515 0.994186 0.164805
744 1 0.871687 0.762322 0.404885
761 1 0.702436 0.510049 0.484471
755 1 0.951993 0.848806 0.396156
777 1 0.867449 0.678997 0.476415
782 1 0.608011 0.926321 0.47532
781 1 0.534237 0.844522 0.473968
748 1 0.531823 0.921774 0.393206
747 1 0.604501 0.837372 0.394576
785 1 0.690602 0.849173 0.480547
786 1 0.776066 0.947576 0.481475
751 1 0.790506 0.840154 0.407217
752 1 0.699852 0.919415 0.393058
778 1 0.947741 0.750483 0.48122
659 1 0.948001 0.511207 0.0714505
789 1 0.853726 0.841395 0.497553
723 1 0.614493 0.508625 0.403102
689 1 0.688145 0.501099 0.140907
794 1 0.619533 0.586964 0.658794
760 1 0.539924 0.590083 0.560806
661 1 0.539543 0.677685 0.980897
799 1 0.789546 0.509419 0.740517
764 1 0.685563 0.575686 0.565291
798 1 0.766459 0.587832 0.640479
809 1 0.67539 0.68498 0.650786
833 1 0.696711 0.513099 0.820501
768 1 0.851424 0.587934 0.570197
802 1 0.942813 0.59834 0.639434
767 1 0.950659 0.529886 0.569386
801 1 0.872276 0.506974 0.660685
805 1 0.537634 0.686188 0.656454
771 1 0.603611 0.669883 0.560143
806 1 0.613687 0.777524 0.652687
772 1 0.538119 0.769673 0.549621
775 1 0.7658 0.679908 0.572246
776 1 0.67831 0.758852 0.562962
810 1 0.763578 0.76122 0.649991
779 1 0.932504 0.680703 0.576068
780 1 0.852173 0.75706 0.574093
813 1 0.840507 0.676198 0.645203
814 1 0.954545 0.7558 0.646333
817 1 0.521681 0.847016 0.648213
783 1 0.61211 0.85512 0.572925
784 1 0.530698 0.921231 0.550711
818 1 0.602328 0.918219 0.664166
821 1 0.696491 0.857156 0.646644
787 1 0.764875 0.836969 0.559099
788 1 0.69001 0.935318 0.552863
822 1 0.787672 0.935117 0.657774
791 1 0.942659 0.848219 0.573257
792 1 0.871346 0.931956 0.570627
825 1 0.855292 0.839804 0.634836
826 1 0.957088 0.938576 0.64399
830 1 0.621302 0.589678 0.80611
796 1 0.537702 0.610985 0.729965
829 1 0.529814 0.51245 0.802652
793 1 0.52279 0.525732 0.653199
800 1 0.704272 0.592419 0.734373
834 1 0.780795 0.589452 0.821218
837 1 0.868076 0.508049 0.814517
804 1 0.847702 0.598565 0.718196
838 1 0.933275 0.602392 0.821919
849 1 0.856567 0.672392 0.799491
864 1 0.868027 0.917969 0.911648
807 1 0.612573 0.689801 0.75384
808 1 0.518825 0.762132 0.731329
841 1 0.516638 0.674385 0.819909
842 1 0.609636 0.782664 0.825035
845 1 0.70966 0.67509 0.839494
811 1 0.771156 0.673085 0.725235
812 1 0.688004 0.755588 0.730635
846 1 0.774861 0.754525 0.818975
823 1 0.787922 0.839135 0.729595
857 1 0.694205 0.839145 0.797733
815 1 0.947646 0.668457 0.724199
816 1 0.859043 0.757718 0.723265
850 1 0.949541 0.744929 0.802129
861 1 0.870856 0.830424 0.810178
827 1 0.933351 0.84304 0.719323
820 1 0.528807 0.942685 0.744025
819 1 0.58763 0.840517 0.737365
853 1 0.520951 0.843551 0.823103
854 1 0.607859 0.921296 0.821933
824 1 0.684859 0.92621 0.737867
858 1 0.786649 0.907321 0.809256
862 1 0.944522 0.925918 0.815333
828 1 0.862406 0.927819 0.736181
653 1 0.687905 0.505945 0.99394
649 1 0.529225 0.51697 0.978963
832 1 0.514749 0.601552 0.90799
831 1 0.604862 0.525593 0.892091
666 1 0.769502 0.769752 0.983215
654 1 0.772809 0.604114 0.982047
836 1 0.686606 0.58384 0.907887
797 1 0.698901 0.504287 0.645194
658 1 0.946475 0.576717 0.988448
840 1 0.846065 0.57286 0.909029
839 1 0.941752 0.509725 0.912567
669 1 0.849754 0.672604 0.990545
662 1 0.612114 0.770749 0.97469
844 1 0.53405 0.760019 0.895998
843 1 0.61441 0.670419 0.888473
621 1 0.864184 0.994212 0.836187
665 1 0.69588 0.687301 0.977116
847 1 0.794293 0.674578 0.902605
848 1 0.700813 0.76273 0.895561
677 1 0.689083 0.847701 0.981741
851 1 0.95824 0.667267 0.898572
852 1 0.857099 0.763055 0.915528
670 1 0.94521 0.752114 0.970738
673 1 0.522254 0.832868 0.993168
856 1 0.531206 0.927537 0.906145
855 1 0.602775 0.847107 0.909079
674 1 0.595911 0.926674 0.994816
759 1 0.611845 0.503721 0.567721
678 1 0.779375 0.901719 0.975435
859 1 0.792962 0.840523 0.890327
860 1 0.697107 0.898455 0.887007
835 1 0.76621 0.512031 0.910237
682 1 0.965959 0.923909 0.965826
863 1 0.962603 0.844132 0.890204
619 1 0.776646 0.99139 0.897658
617 1 0.68885 0.9943 0.823475
437 1 0.6897 0.979326 0.969186
657 1 0.853585 0.504389 0.996112
681 1 0.85819 0.833348 0.998037
650 1 0.624372 0.610122 0.997923
795 1 0.613715 0.501933 0.734915
583 1 0.770513 0.999509 0.747256
