ITEM: TIMESTEP
4500
ITEM: NUMBER OF ATOMS
864
ITEM: BOX BOUNDS pp pp pp
0.0000000000000000e+00 3.1559999999999999e+01
0.0000000000000000e+00 3.1559999999999999e+01
0.0000000000000000e+00 3.1559999999999999e+01
ITEM: ATOMS id type xs ys zs
27 1 0.106964 0.196757 0.0902306
8 1 0.174947 0.0876882 0.087596
1 1 0.999465 0.0122968 0.00599418
3 1 0.0897918 0.00332207 0.0896946
149 1 0.175586 0.0110735 0.15865
146 1 0.0861059 0.0942345 0.161807
2 1 0.0904787 0.107661 1.00681
12 1 0.331622 0.081977 0.0827655
31 1 0.258886 0.181624 0.084302
7 1 0.241182 0.0133388 0.0726185
9 1 0.338738 0.00406128 0.984561
173 1 0.184809 0.174478 0.157227
150 1 0.261411 0.0872262 0.165209
154 1 0.434679 0.091425 0.165967
16 1 0.512847 0.0968211 0.0791394
11 1 0.427021 0.0178682 0.0799139
158 1 0.588995 0.0857297 0.159378
39 1 0.600222 0.177231 0.077393
185 1 0.6716 0.157367 0.176224
14 1 0.571799 0.0885314 -0.00952924
20 1 0.680999 0.0895654 0.0857632
43 1 0.747081 0.185256 0.0884776
162 1 0.757961 0.0743513 0.163122
18 1 0.751127 0.0996904 0.00169968
4 1 0.00486935 0.0910376 0.0740271
24 1 0.833741 0.0800812 0.0685504
47 1 0.90224 0.177568 0.0827515
23 1 0.912291 0.995863 0.0864684
22 1 0.917601 0.0977969 1.01128
45 1 0.820037 0.181738 -0.011475
32 1 0.177498 0.274113 0.099348
28 1 0.993112 0.261743 0.108527
36 1 0.342622 0.251996 0.0803606
55 1 0.279021 0.346802 0.094955
35 1 0.417208 0.170356 0.0857888
40 1 0.501929 0.240414 0.0768725
178 1 0.414724 0.243981 0.173204
63 1 0.574093 0.320789 0.0810742
181 1 0.504607 0.175185 0.154908
205 1 0.49027 0.313043 0.17136
44 1 0.672035 0.258675 0.0700716
48 1 0.829554 0.254834 0.0832399
67 1 0.742074 0.336601 0.0893446
189 1 0.821779 0.177273 0.165032
186 1 0.745271 0.253851 0.168033
46 1 0.914974 0.271633 -0.00566757
71 1 0.901594 0.336978 0.0922047
190 1 0.900438 0.246518 0.168466
51 1 0.077802 0.330491 0.0843008
56 1 0.193005 0.415953 0.0957592
53 1 0.181008 0.345186 0.0139693
52 1 0.00396542 0.423628 0.0881937
194 1 0.103785 0.422857 0.178041
221 1 0.177418 0.511809 0.174327
50 1 0.0901737 0.42825 1.00957
57 1 0.342937 0.35205 1.00827
198 1 0.255254 0.429937 0.182225
60 1 0.348748 0.438178 0.0823796
59 1 0.423959 0.34637 0.0815476
58 1 0.424307 0.414799 0.986357
85 1 0.491896 0.503055 -0.000897851
64 1 0.497324 0.426907 0.0763467
206 1 0.566913 0.397312 0.157063
87 1 0.577124 0.495729 0.0773584
62 1 0.57043 0.407965 0.993531
68 1 0.659007 0.407084 0.0724571
66 1 0.750694 0.413857 -0.00233518
72 1 0.822048 0.421231 0.0825942
210 1 0.726215 0.431271 0.146969
213 1 0.819384 0.340076 0.165381
95 1 0.922374 0.507185 0.0899608
214 1 0.919117 0.415636 0.16729
70 1 0.91549 0.408882 0.00489034
75 1 0.0896865 0.508894 0.0886003
241 1 0.993403 0.67677 0.167086
218 1 0.0933933 0.601537 0.17363
74 1 0.0830833 0.590498 0.9961
79 1 0.264994 0.501459 0.0895558
80 1 0.170922 0.582763 0.0828231
84 1 0.336812 0.585281 0.0765714
78 1 0.24883 0.574888 -0.00305816
222 1 0.253436 0.584745 0.159611
83 1 0.426824 0.504483 0.093099
226 1 0.419028 0.58637 0.174659
107 1 0.413568 0.670542 0.0928641
229 1 0.486838 0.507553 0.175926
81 1 0.357645 0.499615 1.00416
82 1 0.427242 0.592136 -0.00387097
88 1 0.506176 0.585301 0.0903176
92 1 0.662788 0.580133 0.0907752
89 1 0.663107 0.49395 1.00631
91 1 0.744225 0.507196 0.0766488
96 1 0.831994 0.578727 0.0867365
234 1 0.748695 0.592554 0.172788
237 1 0.840499 0.492931 0.159971
76 1 -0.00166257 0.586841 0.0829837
99 1 0.0922201 0.669861 0.0700229
98 1 0.0811876 0.749654 0.997203
104 1 0.164526 0.756605 0.074907
100 1 0.00196182 0.732265 0.065846
103 1 0.252212 0.669315 0.0727835
105 1 0.339556 0.654516 1.00146
249 1 0.330844 0.654611 0.165049
108 1 0.337565 0.755213 0.0920041
112 1 0.49736 0.762844 0.0836302
109 1 0.492833 0.677364 -0.00287023
106 1 0.402185 0.742579 0.00270158
111 1 0.579632 0.68006 0.0774427
254 1 0.582562 0.744484 0.152302
113 1 0.66566 0.654884 0.00366632
257 1 0.661618 0.672533 0.154968
116 1 0.657631 0.756604 0.0659712
115 1 0.750827 0.666888 0.077168
120 1 0.843498 0.761325 0.0725468
258 1 0.769339 0.731246 0.157735
285 1 0.833935 0.819505 0.158015
119 1 0.907882 0.667084 0.0957184
143 1 0.917375 0.834959 0.093157
141 1 0.833941 0.837089 0.997847
125 1 0.165304 0.834702 0.99272
123 1 0.0857013 0.832496 0.0681381
122 1 0.06364 0.91646 0.994568
128 1 0.15779 0.921222 0.0541541
5 1 0.16899 0.0125104 -0.000194551
127 1 0.244871 0.83716 0.0799855
269 1 0.165569 0.824288 0.172351
126 1 0.255402 0.926516 0.989779
132 1 0.343525 0.929413 0.0703742
131 1 0.42587 0.85377 0.0911185
136 1 0.495698 0.942619 0.0841184
130 1 0.420489 0.920536 -0.00173895
161 1 0.677242 0.000246257 0.151459
281 1 0.691547 0.816312 0.154186
15 1 0.593046 -0.00450791 0.0861448
135 1 0.593727 0.841369 0.078709
278 1 0.582516 0.90221 0.169594
140 1 0.676156 0.903552 0.0714321
133 1 0.492729 0.832042 1.00131
139 1 0.763432 0.834531 0.0771759
19 1 0.769285 0.995763 0.0760312
17 1 0.669878 0.00709816 0.00257388
138 1 0.745046 0.915786 0.988666
144 1 0.837447 0.920179 0.0855068
124 1 0.992836 0.916928 0.0879225
142 1 0.932598 0.913478 0.995419
147 1 0.0729385 0.99318 0.227074
290 1 0.0802972 0.0606994 0.321494
152 1 0.17732 0.0853515 0.234373
151 1 0.2627 0.00376139 0.239552
175 1 0.255176 0.153357 0.261917
153 1 0.318154 1.00113 0.152187
156 1 0.35393 0.0786735 0.24542
321 1 0.321558 0.155666 0.358006
155 1 0.427559 1.00282 0.245425
177 1 0.324352 0.173937 0.171096
160 1 0.509179 0.0686198 0.248928
164 1 0.659334 0.0781368 0.248358
302 1 0.588589 0.0502109 0.320621
159 1 0.589344 0.991368 0.23065
163 1 0.746843 -0.000229962 0.255933
168 1 0.840128 0.0812355 0.257274
187 1 0.74215 0.159523 0.257716
305 1 0.678527 0.985607 0.334601
166 1 0.891357 0.0943619 0.157551
313 1 0.988035 0.161315 0.319542
148 1 0.00282511 0.0730164 0.244052
310 1 0.93757 0.0638937 0.341316
289 1 0.00721155 0.989965 0.321495
171 1 0.0781995 0.16356 0.245136
170 1 0.0952477 0.268714 0.177926
172 1 -0.0194419 0.252724 0.251244
197 1 0.175983 0.340937 0.184068
174 1 0.260527 0.265974 0.164327
176 1 0.179895 0.240163 0.237851
199 1 0.256128 0.336088 0.251632
318 1 0.252909 0.23774 0.332022
341 1 0.170963 0.324921 0.327076
201 1 0.345826 0.339065 0.18501
179 1 0.411148 0.168173 0.253219
180 1 0.32615 0.237241 0.255997
322 1 0.404321 0.237205 0.334628
345 1 0.351674 0.333768 0.330011
183 1 0.585271 0.168238 0.253263
184 1 0.508633 0.237608 0.24714
182 1 0.599007 0.237309 0.164823
333 1 0.825321 0.169179 0.346704
209 1 0.664428 0.335215 0.158129
188 1 0.65639 0.253705 0.253873
192 1 0.828079 0.239488 0.265901
169 1 0.998214 0.178079 0.166997
191 1 0.909747 0.161521 0.246125
193 1 0.0175316 0.357465 0.177807
195 1 0.0853554 0.33676 0.248834
219 1 0.0820862 0.503698 0.248689
338 1 0.0868461 0.421389 0.342486
200 1 0.175929 0.411396 0.26976
223 1 0.255561 0.484769 0.263269
342 1 0.261017 0.400367 0.336358
204 1 0.347941 0.416386 0.262967
202 1 0.436727 0.413189 0.173262
203 1 0.432978 0.323131 0.258849
208 1 0.497476 0.403276 0.271317
346 1 0.417902 0.417731 0.352158
207 1 0.577179 0.324445 0.24733
212 1 0.652837 0.399442 0.235642
349 1 0.499037 0.314738 0.349244
211 1 0.739584 0.333566 0.243423
381 1 0.838666 0.487891 0.332735
215 1 0.902423 0.327974 0.251608
337 1 0.00349157 0.335349 0.332891
196 1 0.00915326 0.424993 0.274091
216 1 0.843285 0.412218 0.248938
358 1 0.917662 0.422785 0.340066
361 1 0.00017258 0.5089 0.340372
224 1 0.176282 0.591851 0.251531
243 1 0.0908605 0.668456 0.262969
362 1 0.085914 0.592183 0.332878
365 1 0.168691 0.509479 0.336082
389 1 0.176176 0.681598 0.332485
245 1 0.167553 0.676673 0.161993
247 1 0.258998 0.667982 0.248267
393 1 0.338513 0.673922 0.327959
369 1 0.334692 0.491714 0.33758
225 1 0.339971 0.49779 0.175366
228 1 0.339906 0.576923 0.245831
227 1 0.418228 0.499342 0.260933
251 1 0.40684 0.662659 0.250679
232 1 0.503045 0.590989 0.255623
230 1 0.583556 0.593883 0.169996
231 1 0.572952 0.498967 0.234977
233 1 0.647685 0.494308 0.152576
236 1 0.668438 0.581821 0.253933
373 1 0.495029 0.500733 0.336355
235 1 0.736946 0.498637 0.236562
240 1 0.835632 0.573472 0.268088
377 1 0.662309 0.489264 0.316994
217 1 1.01155 0.497195 0.160133
239 1 0.917929 0.502266 0.256011
220 1 0.0133543 0.593177 0.255511
238 1 0.906853 0.573861 0.181523
382 1 0.933811 0.585924 0.341433
263 1 0.922407 0.663174 0.255809
242 1 0.0833164 0.749889 0.159129
248 1 0.161892 0.752294 0.244607
386 1 0.0911991 0.744235 0.341307
385 1 0.00559287 0.681062 0.344834
273 1 0.341446 0.856978 0.158743
246 1 0.243873 0.754865 0.159223
390 1 0.256522 0.75968 0.331068
252 1 0.333416 0.74759 0.217862
250 1 0.42596 0.756817 0.167408
256 1 0.490363 0.749374 0.25089
253 1 0.493811 0.666528 0.157152
255 1 0.561647 0.680542 0.247758
398 1 0.590191 0.749238 0.338704
260 1 0.662721 0.727614 0.241949
279 1 0.605551 0.81953 0.232756
261 1 0.850197 0.658948 0.186177
259 1 0.757631 0.667994 0.251895
264 1 0.84948 0.744883 0.255628
283 1 0.760131 0.810433 0.245773
401 1 0.665072 0.672312 0.335879
262 1 0.914251 0.750494 0.173086
244 1 0.00120314 0.74544 0.259169
287 1 0.931162 0.826691 0.245535
406 1 0.912116 0.751467 0.340624
267 1 0.0756623 0.823058 0.239282
265 1 0.00549729 0.831852 0.155883
266 1 0.0904174 0.908197 0.149699
270 1 0.235103 0.921344 0.140495
272 1 0.163683 0.915813 0.237998
271 1 0.258699 0.858096 0.224951
414 1 0.258027 0.920823 0.324867
277 1 0.508556 0.835013 0.167427
276 1 0.339241 0.939411 0.245043
275 1 0.414747 0.836657 0.253759
274 1 0.426155 0.926155 0.162848
280 1 0.507733 0.917567 0.24287
157 1 0.5153 0.00505816 0.163131
284 1 0.684011 0.914466 0.235168
165 1 0.821797 -0.00737258 0.167861
282 1 0.744733 0.920319 0.15114
288 1 0.84567 0.917184 0.243191
167 1 0.918666 -0.00154098 0.227878
145 1 0.992599 0.0123956 0.149569
268 1 0.98569 0.915383 0.246676
286 1 0.921107 0.906433 0.163774
315 1 0.0891583 0.146827 0.432295
434 1 0.0811329 0.0405211 0.50623
317 1 0.146095 0.164469 0.332446
296 1 0.176135 0.0641579 0.412037
294 1 0.242112 0.0728109 0.325112
438 1 0.24843 0.0881096 0.488179
297 1 0.335135 0.00251872 0.335804
298 1 0.413576 0.0745573 0.328518
300 1 0.343547 0.0721549 0.426164
299 1 0.416579 0.979944 0.42643
442 1 0.4256 0.0856154 0.508186
441 1 0.334164 0.000497031 0.508485
304 1 0.513191 0.0798511 0.417596
308 1 0.66821 0.082181 0.409419
445 1 0.514862 1.01602 0.498425
306 1 0.743006 0.0850005 0.332686
331 1 0.744026 0.176221 0.407672
309 1 0.83139 0.99221 0.326289
307 1 0.748186 0.999271 0.420444
292 1 0.00177835 0.0578982 0.426437
312 1 0.837697 0.0755588 0.406962
454 1 0.904256 0.0764925 0.495295
314 1 0.0837727 0.249945 0.316351
316 1 0.015589 0.238129 0.415066
339 1 0.087362 0.331246 0.409971
458 1 0.0862144 0.235632 0.496493
320 1 0.150192 0.245643 0.405945
319 1 0.225061 0.167108 0.421094
324 1 0.342116 0.250786 0.41136
485 1 0.154895 0.338335 0.497751
461 1 0.163961 0.163567 0.518041
323 1 0.421528 0.154254 0.416748
469 1 0.500059 0.167039 0.503242
326 1 0.576532 0.2358 0.337628
325 1 0.491688 0.161517 0.32824
328 1 0.500549 0.240555 0.428853
327 1 0.582823 0.162739 0.412389
329 1 0.661506 0.164355 0.329598
330 1 0.738103 0.25053 0.324034
332 1 0.654066 0.257078 0.410752
474 1 0.748717 0.253041 0.499527
357 1 0.821846 0.334283 0.323306
336 1 0.828181 0.259067 0.396722
334 1 0.925268 0.246834 0.345507
335 1 0.930158 0.161063 0.4241
359 1 0.934312 0.331161 0.413571
481 1 0.0103034 0.326812 0.501884
482 1 0.0758431 0.426047 0.496691
363 1 0.096315 0.515562 0.411813
344 1 0.175966 0.398044 0.407105
343 1 0.256128 0.329627 0.421771
486 1 0.240701 0.412355 0.519475
347 1 0.420721 0.332761 0.413302
348 1 0.328863 0.412151 0.41911
490 1 0.399707 0.415711 0.510434
352 1 0.495438 0.421094 0.416345
489 1 0.316157 0.343045 0.506508
351 1 0.58881 0.349481 0.414575
350 1 0.585724 0.417421 0.335156
356 1 0.678318 0.426724 0.43454
494 1 0.569823 0.423744 0.514734
353 1 0.667133 0.347387 0.336513
355 1 0.735542 0.321373 0.416466
354 1 0.747256 0.422546 0.310165
498 1 0.759606 0.391695 0.500322
360 1 0.837075 0.402305 0.404255
340 1 -0.00428433 0.4283 0.420915
383 1 0.923483 0.499469 0.411962
505 1 0.984839 0.507838 0.501745
368 1 0.174218 0.590109 0.416312
364 1 0.0118721 0.580204 0.434128
533 1 0.181501 0.686658 0.500802
509 1 0.173585 0.501262 0.516815
506 1 0.0937298 0.599967 0.501634
367 1 0.247334 0.506471 0.427853
366 1 0.271062 0.577508 0.327031
372 1 0.334961 0.58674 0.409505
510 1 0.242407 0.58656 0.512447
371 1 0.416506 0.491533 0.428752
370 1 0.413271 0.581457 0.333107
395 1 0.408036 0.660234 0.415481
513 1 0.331166 0.493285 0.4901
375 1 0.579658 0.495336 0.41021
397 1 0.495853 0.652719 0.34598
374 1 0.582821 0.58307 0.33598
376 1 0.512468 0.566718 0.43197
380 1 0.65948 0.5899 0.415938
378 1 0.753659 0.601674 0.336803
379 1 0.760985 0.494235 0.405484
405 1 0.836572 0.665203 0.324394
403 1 0.751391 0.658977 0.439792
384 1 0.845295 0.585285 0.401296
407 1 0.915933 0.683879 0.424908
387 1 0.0864409 0.663882 0.424109
530 1 0.0880708 0.770362 0.506773
411 1 0.0893495 0.845146 0.419699
392 1 0.171237 0.758042 0.42458
391 1 0.261189 0.662802 0.414138
396 1 0.345204 0.759965 0.410788
415 1 0.243066 0.847479 0.40082
394 1 0.432038 0.754597 0.340714
421 1 0.499905 0.853087 0.323704
400 1 0.513579 0.735353 0.421537
419 1 0.444368 0.838689 0.412411
538 1 0.420663 0.729646 0.492213
425 1 0.669846 0.818408 0.334056
399 1 0.579261 0.656629 0.41955
423 1 0.57894 0.839367 0.412392
402 1 0.756543 0.732819 0.344183
404 1 0.66076 0.732498 0.420783
408 1 0.844735 0.759345 0.433356
429 1 0.845179 0.839723 0.330122
427 1 0.745042 0.804488 0.422121
549 1 0.835036 0.676301 0.503863
409 1 0.0166833 0.826399 0.328894
553 1 0.00111424 0.837168 0.502984
388 1 0.00228836 0.760359 0.425593
550 1 0.925619 0.754591 0.510852
293 1 0.168073 0.991535 0.320284
291 1 0.0791255 0.994339 0.412499
410 1 0.0760022 0.915416 0.324153
437 1 0.17983 0.992099 0.50511
413 1 0.158128 0.837881 0.323409
295 1 0.249516 0.977656 0.412242
416 1 0.160986 0.915478 0.405456
417 1 0.33441 0.842378 0.326844
558 1 0.251407 0.913259 0.519943
418 1 0.406152 0.912423 0.328881
420 1 0.332437 0.905594 0.422652
301 1 0.49653 -0.0125101 0.338095
422 1 0.590484 0.919393 0.315197
303 1 0.604411 0.98452 0.406316
424 1 0.516728 0.926779 0.414739
426 1 0.753722 0.903869 0.337773
428 1 0.669424 0.899541 0.407136
432 1 0.829391 0.901505 0.428666
311 1 0.916424 0.985198 0.421086
431 1 0.930643 0.834466 0.401246
430 1 0.919415 0.920401 0.326148
412 1 1.00194 0.912327 0.419899
433 1 0.974838 0.993546 0.509894
574 1 0.908327 0.90008 0.503584
436 1 0.995488 0.0817858 0.584303
435 1 0.0632728 0.987448 0.594898
578 1 0.0782869 0.0733866 0.657512
601 1 1.01054 0.168961 0.671402
440 1 0.162406 0.0733532 0.578903
459 1 0.0768288 0.161034 0.581535
444 1 0.334951 0.0870384 0.576507
609 1 0.33598 0.174914 0.678591
465 1 0.332534 0.159603 0.489399
586 1 0.403918 0.0963518 0.662854
443 1 0.424364 0.997761 0.577956
448 1 0.501362 0.0863009 0.585082
446 1 0.586401 0.0893501 0.504384
590 1 0.592843 0.0816097 0.676388
589 1 0.493871 0.0157148 0.674265
613 1 0.495996 0.16819 0.656758
450 1 0.769216 0.0967883 0.485229
452 1 0.672437 0.0969905 0.576319
449 1 0.660343 0.00756202 0.498816
451 1 0.761218 -0.00980831 0.584778
594 1 0.741895 0.0876642 0.669472
456 1 0.821507 0.0778913 0.580177
598 1 0.907445 0.0861762 0.66906
453 1 0.836532 0.991601 0.510505
455 1 0.907549 0.0095836 0.597707
457 1 -0.00107488 0.159792 0.506128
460 1 -0.00450794 0.239452 0.585815
483 1 0.0804154 0.314878 0.592022
625 1 0.988782 0.322076 0.668122
602 1 0.0806203 0.251806 0.675083
462 1 0.264677 0.237778 0.499466
463 1 0.264696 0.161034 0.585536
464 1 0.160173 0.241952 0.58263
606 1 0.251013 0.243949 0.674697
466 1 0.401244 0.257474 0.497716
468 1 0.328921 0.24774 0.590578
467 1 0.411551 0.177578 0.577835
491 1 0.407632 0.335796 0.580446
493 1 0.486589 0.343651 0.490013
610 1 0.420661 0.250901 0.660957
470 1 0.590389 0.249705 0.495898
471 1 0.575702 0.183412 0.582043
472 1 0.493539 0.264041 0.570187
476 1 0.657572 0.24715 0.592363
473 1 0.67293 0.172562 0.490792
475 1 0.754134 0.167313 0.574703
480 1 0.83909 0.241089 0.564492
477 1 0.84914 0.170956 0.491364
478 1 0.924361 0.245976 0.492761
479 1 0.921119 0.157869 0.589275
503 1 0.924771 0.328115 0.576832
622 1 0.908966 0.238507 0.657826
507 1 0.083507 0.49094 0.579039
484 1 0.989496 0.418385 0.578042
488 1 0.147647 0.398503 0.593696
653 1 0.158833 0.500392 0.665858
629 1 0.173254 0.330698 0.690248
487 1 0.243535 0.314401 0.581428
630 1 0.231248 0.412798 0.658209
511 1 0.253509 0.503431 0.586316
492 1 0.327298 0.417561 0.601189
496 1 0.493332 0.408695 0.592161
515 1 0.414223 0.502095 0.58457
657 1 0.328838 0.511919 0.671323
495 1 0.595871 0.333918 0.581416
638 1 0.582204 0.413561 0.660521
497 1 0.665352 0.33585 0.496512
519 1 0.584058 0.497521 0.588744
641 1 0.670187 0.344673 0.668699
499 1 0.744497 0.326608 0.584103
500 1 0.670678 0.426274 0.570461
523 1 0.749432 0.50081 0.587509
525 1 0.833601 0.496721 0.484323
501 1 0.844202 0.331792 0.501387
504 1 0.836107 0.403694 0.583449
502 1 0.915156 0.410964 0.491516
527 1 0.905912 0.493208 0.584356
645 1 0.839179 0.319807 0.64727
508 1 0.00767316 0.581508 0.576811
531 1 0.0921583 0.675883 0.582917
512 1 0.160827 0.585634 0.584218
529 1 0.0147198 0.679022 0.513555
516 1 0.334811 0.59549 0.582805
535 1 0.238964 0.668155 0.590546
654 1 0.239601 0.576423 0.659231
514 1 0.411755 0.581001 0.499052
520 1 0.496846 0.582042 0.599715
539 1 0.411849 0.667602 0.584009
521 1 0.654784 0.511161 0.496501
517 1 0.493788 0.496177 0.509816
518 1 0.574794 0.579122 0.511126
543 1 0.575138 0.661276 0.589332
661 1 0.495786 0.488484 0.664795
545 1 0.662064 0.669066 0.498697
524 1 0.66746 0.579213 0.596773
522 1 0.752915 0.566007 0.499417
547 1 0.751666 0.651633 0.575654
689 1 0.658726 0.656367 0.668325
526 1 0.910296 0.578135 0.483625
528 1 0.827813 0.576216 0.580402
551 1 0.927725 0.658756 0.571538
693 1 0.839946 0.65368 0.66484
555 1 0.0925966 0.847793 0.594218
532 1 1.00745 0.749667 0.585783
557 1 0.185451 0.833769 0.511561
536 1 0.168602 0.756992 0.58244
534 1 0.265105 0.771736 0.484459
678 1 0.255611 0.75497 0.658233
559 1 0.268198 0.8532 0.598997
561 1 0.370184 0.826676 0.494388
537 1 0.321503 0.67828 0.499601
540 1 0.33234 0.757275 0.576
544 1 0.505583 0.741467 0.590258
541 1 0.499151 0.65138 0.504816
542 1 0.577276 0.745166 0.506821
565 1 0.488345 0.812235 0.510888
567 1 0.583888 0.816877 0.584551
573 1 0.835207 0.827655 0.517289
548 1 0.665787 0.744106 0.582915
546 1 0.760031 0.747003 0.528377
552 1 0.850996 0.74421 0.589908
571 1 0.745095 0.830353 0.599064
575 1 0.918664 0.826567 0.590251
694 1 0.92078 0.73208 0.6833
554 1 0.0819606 0.923861 0.511461
556 1 0.996401 0.900842 0.596919
701 1 0.169051 0.835662 0.674069
577 1 0.987177 1.00094 0.672422
698 1 0.0736965 0.916811 0.688597
439 1 0.247675 0.00875956 0.585036
581 1 0.155497 -0.00912641 0.671062
560 1 0.176469 0.920347 0.600127
702 1 0.251124 0.930387 0.671901
562 1 0.435577 0.913138 0.506041
563 1 0.400247 0.839016 0.587617
564 1 0.336646 0.92745 0.590786
568 1 0.510557 0.91719 0.589455
706 1 0.43235 0.897753 0.666623
569 1 0.659682 0.828282 0.499824
447 1 0.590868 -0.00714772 0.578546
566 1 0.571212 0.908588 0.495099
570 1 0.744487 0.922949 0.501163
572 1 0.676858 0.914073 0.588765
576 1 0.833525 0.921396 0.586751
718 1 0.906518 0.911266 0.665894
580 1 0.0084431 0.0812562 0.75692
721 1 0.997501 0.00420837 0.836673
584 1 0.172297 0.075433 0.745251
603 1 0.0899938 0.164242 0.744999
722 1 0.0836639 0.0952051 0.835147
745 1 0.999508 0.171956 0.835891
725 1 0.161612 0.00055457 0.831853
582 1 0.240167 0.0939698 0.666476
726 1 0.243575 0.076642 0.829976
583 1 0.251067 0.00478045 0.758319
607 1 0.254747 0.166854 0.756334
587 1 0.419335 0.0065352 0.751822
588 1 0.33886 0.0848112 0.760956
611 1 0.409895 0.176893 0.764427
753 1 0.317529 0.18061 0.846299
729 1 0.33633 1.00424 0.82987
592 1 0.494305 0.0872889 0.749463
615 1 0.580253 0.168058 0.747868
596 1 0.66075 0.0846578 0.760209
765 1 0.826915 0.162335 0.832952
593 1 0.67158 0.00137113 0.65959
595 1 0.756693 0.997675 0.748584
600 1 0.825546 0.0813461 0.759362
599 1 0.920457 -0.0132505 0.751078
623 1 0.92295 0.165181 0.752986
742 1 0.92631 0.0799615 0.830508
597 1 0.828761 0.00781536 0.672943
741 1 0.833502 0.994131 0.831663
604 1 0.00315498 0.247407 0.757797
746 1 0.0846126 0.252774 0.841993
605 1 0.152531 0.165672 0.657655
608 1 0.155614 0.25485 0.755035
612 1 0.326955 0.260408 0.747436
750 1 0.24838 0.261844 0.845943
633 1 0.323091 0.329518 0.662454
637 1 0.496024 0.340971 0.669047
757 1 0.496703 0.173579 0.828364
616 1 0.499207 0.250403 0.753204
754 1 0.401244 0.253091 0.827523
614 1 0.577593 0.255627 0.665834
620 1 0.676612 0.264403 0.736817
639 1 0.585746 0.357146 0.749875
617 1 0.657231 0.163568 0.667995
621 1 0.831442 0.15986 0.660203
618 1 0.751464 0.24885 0.664132
619 1 0.755084 0.15996 0.752536
624 1 0.840513 0.24225 0.743547
766 1 0.902059 0.24011 0.826704
649 1 -0.00538297 0.487179 0.660906
627 1 0.0847044 0.333244 0.762122
626 1 0.0679017 0.401144 0.669087
770 1 0.0736455 0.422753 0.83392
628 1 0.987676 0.41201 0.757865
651 1 0.0752121 0.498507 0.754572
631 1 0.244555 0.353078 0.766679
632 1 0.159908 0.42582 0.752784
636 1 0.336929 0.416627 0.740087
777 1 0.323493 0.334657 0.823913
635 1 0.407742 0.332861 0.745131
634 1 0.409131 0.414357 0.663407
659 1 0.397529 0.497522 0.752671
785 1 0.668064 0.339684 0.82407
640 1 0.48716 0.415539 0.752177
642 1 0.745919 0.413927 0.665911
665 1 0.672761 0.502183 0.666912
643 1 0.757935 0.342181 0.751367
644 1 0.672573 0.41888 0.754056
667 1 0.747241 0.509794 0.752037
646 1 0.911063 0.418555 0.663316
669 1 0.843435 0.505471 0.670467
647 1 0.918892 0.328981 0.765074
648 1 0.836953 0.433354 0.748697
671 1 0.919676 0.511106 0.749573
650 1 0.0692912 0.575413 0.676369
656 1 0.17367 0.587721 0.745677
652 1 0.00772326 0.593373 0.757225
681 1 0.330307 0.672831 0.659809
797 1 0.166807 0.504898 0.839295
655 1 0.252518 0.503815 0.757593
679 1 0.251906 0.663947 0.739399
660 1 0.319151 0.581728 0.757832
677 1 0.157459 0.672698 0.658961
658 1 0.426626 0.585153 0.670787
664 1 0.497455 0.562194 0.762749
683 1 0.401983 0.6548 0.755043
662 1 0.570372 0.569864 0.684214
663 1 0.590055 0.488558 0.749729
806 1 0.574384 0.580027 0.837911
668 1 0.66947 0.583347 0.746933
666 1 0.759013 0.593436 0.672647
672 1 0.835532 0.586913 0.743028
691 1 0.741842 0.659116 0.750793
670 1 0.937359 0.577213 0.657146
695 1 0.928754 0.658221 0.753587
817 1 1.01548 0.657209 0.841475
673 1 0.00255441 0.66586 0.657243
674 1 0.0839962 0.769238 0.668355
675 1 0.0916979 0.665925 0.753153
818 1 0.0838807 0.747494 0.823593
705 1 0.337438 0.840359 0.674673
680 1 0.171864 0.751253 0.755045
684 1 0.33887 0.743265 0.759613
703 1 0.253419 0.831724 0.753685
682 1 0.41774 0.757349 0.653413
688 1 0.518814 0.756701 0.758936
709 1 0.525422 0.833414 0.668596
826 1 0.441296 0.740201 0.827221
685 1 0.493897 0.674818 0.69037
686 1 0.591833 0.741521 0.679665
687 1 0.587179 0.653073 0.754562
692 1 0.675995 0.734703 0.742182
690 1 0.755033 0.737741 0.664296
834 1 0.754818 0.738755 0.827722
717 1 0.840156 0.822722 0.680959
676 1 1.00883 0.745221 0.761565
696 1 0.826123 0.7332 0.751714
837 1 0.834129 0.662413 0.840821
579 1 0.0728681 0.993238 0.754742
697 1 0.983866 0.829165 0.676549
699 1 0.0807388 0.834714 0.760921
842 1 0.0871133 0.922124 0.843636
585 1 0.335552 0.00450738 0.667699
704 1 0.155421 0.924696 0.756293
846 1 0.239989 0.923569 0.83418
708 1 0.333999 0.916843 0.758003
707 1 0.432955 0.825438 0.744828
849 1 0.344222 0.835089 0.824076
853 1 0.491713 0.832769 0.834327
712 1 0.508682 0.918751 0.743037
850 1 0.415181 0.914745 0.814985
733 1 0.499452 1.00719 0.82077
710 1 0.587793 0.925331 0.669061
591 1 0.58387 1.00249 0.750623
711 1 0.590357 0.845041 0.76186
713 1 0.657806 0.835109 0.665757
716 1 0.669837 0.917857 0.735894
715 1 0.75639 0.821534 0.742023
714 1 0.750345 0.919304 0.671336
858 1 0.734949 0.932935 0.840709
719 1 0.902168 0.823358 0.761918
700 1 0.983464 0.90846 0.76702
720 1 0.825878 0.918811 0.741784
25 1 0.990606 0.189732 0.0246212
728 1 0.171094 0.0938103 0.916712
747 1 0.0829919 0.180063 0.926507
6 1 0.255898 0.0959134 0.998011
749 1 0.173457 0.168931 0.828909
732 1 0.33652 0.087954 0.912865
751 1 0.246327 0.179316 0.920994
10 1 0.426169 0.0849617 0.978142
730 1 0.42065 0.0867554 0.839758
37 1 0.486557 0.167442 1.00022
736 1 0.505361 0.0933141 0.915431
41 1 0.668958 0.169085 -0.011257
734 1 0.57065 0.0827197 0.828846
759 1 0.568481 0.174154 0.900737
735 1 0.576372 0.00723869 0.909045
740 1 0.660908 0.104645 0.907168
738 1 0.738842 0.0816816 0.829555
763 1 0.750376 0.165085 0.911479
739 1 0.753743 0.0105288 0.922434
724 1 -0.00972111 0.10896 0.926134
744 1 0.848449 0.0945934 0.915917
767 1 0.911465 0.170812 0.917721
743 1 0.923593 0.014678 0.923126
26 1 0.0674474 0.250174 1.00664
29 1 0.174008 0.174272 0.00119363
752 1 0.167654 0.264001 0.934475
771 1 0.0812478 0.343016 0.919515
30 1 0.259357 0.261807 0.0102892
33 1 0.338109 0.166913 1.00586
773 1 0.161478 0.333172 0.841197
756 1 0.331198 0.275349 0.91668
34 1 0.418844 0.254717 0.997268
61 1 0.493287 0.332722 0.991717
755 1 0.418621 0.175386 0.908354
779 1 0.423838 0.337748 0.909361
781 1 0.4957 0.334014 0.83559
760 1 0.495442 0.253052 0.921263
38 1 0.581662 0.249602 0.979881
758 1 0.587187 0.272241 0.822893
783 1 0.575647 0.333306 0.900588
65 1 0.663785 0.326893 0.987095
42 1 0.743992 0.253755 0.990058
761 1 0.662435 0.190615 0.817411
762 1 0.754867 0.256142 0.836469
764 1 0.657623 0.249866 0.90075
789 1 0.835287 0.356785 0.825794
769 1 0.00437175 0.333008 0.832625
748 1 -0.000879855 0.26401 0.921828
768 1 0.831028 0.252088 0.916878
791 1 0.920224 0.338913 0.910116
49 1 -0.00158209 0.342637 0.00527763
77 1 0.167346 0.502323 -0.00420222
776 1 0.163107 0.422562 0.92913
795 1 0.0824888 0.499404 0.924504
54 1 0.253446 0.42907 -0.00201325
774 1 0.242063 0.426718 0.844592
775 1 0.251008 0.339946 0.926362
780 1 0.331296 0.41498 0.911335
778 1 0.423418 0.409833 0.835363
805 1 0.503801 0.493233 0.83672
782 1 0.591694 0.420413 0.832526
784 1 0.508433 0.41412 0.91215
788 1 0.669378 0.4223 0.932398
786 1 0.750101 0.426562 0.840376
787 1 0.746441 0.335685 0.915651
69 1 0.819809 0.335768 0.00346761
792 1 0.832068 0.414353 0.916603
93 1 0.832986 0.489215 1.00056
790 1 0.916242 0.430726 0.839525
813 1 0.825103 0.499101 0.844981
772 1 0.00400614 0.416843 0.919844
793 1 0.00505183 0.502189 0.839188
73 1 -0.00617886 0.493876 0.00628137
97 1 -0.00714132 0.659813 0.99842
794 1 0.0913565 0.578181 0.837777
796 1 0.999857 0.582771 0.919395
819 1 0.0962152 0.670853 0.922075
101 1 0.168552 0.65935 0.99967
799 1 0.262763 0.50563 0.917193
800 1 0.175894 0.584851 0.917553
798 1 0.245418 0.588115 0.8316
804 1 0.338771 0.596989 0.917291
801 1 0.334208 0.494855 0.836136
829 1 0.501086 0.662791 0.840962
803 1 0.42215 0.504688 0.90747
802 1 0.404732 0.576369 0.830744
827 1 0.414503 0.668089 0.913305
808 1 0.50849 0.58523 0.916301
809 1 0.663008 0.518946 0.834021
807 1 0.57877 0.498514 0.911943
86 1 0.594704 0.577927 -0.00783316
810 1 0.751019 0.575631 0.83807
811 1 0.748507 0.501469 0.923805
812 1 0.671471 0.577149 0.919008
90 1 0.751536 0.585866 0.0100188
816 1 0.835481 0.57884 0.928937
94 1 0.919977 0.581181 0.00813795
815 1 0.916768 0.494647 0.928761
814 1 0.909545 0.581446 0.846559
843 1 0.0892296 0.819687 0.903573
823 1 0.245402 0.666104 0.924646
821 1 0.168386 0.671299 0.841206
824 1 0.177 0.74784 0.928065
102 1 0.261389 0.746677 0.998365
822 1 0.236992 0.750731 0.837366
828 1 0.341927 0.75706 0.908459
825 1 0.3104 0.673803 0.836802
832 1 0.532871 0.752428 0.900485
851 1 0.423371 0.844457 0.907206
110 1 0.585244 0.753688 0.986275
830 1 0.610778 0.747548 0.821119
831 1 0.592116 0.653464 0.911826
855 1 0.587001 0.841013 0.920211
137 1 0.665822 0.832749 0.993736
833 1 0.673971 0.658782 0.838637
835 1 0.768966 0.668546 0.926477
836 1 0.671249 0.729034 0.921812
114 1 0.74393 0.753822 0.000571373
857 1 0.671049 0.845356 0.851501
859 1 0.746437 0.821258 0.921033
121 1 -0.00671634 0.831551 0.994539
839 1 0.909654 0.655231 0.930234
820 1 1.00712 0.746277 0.907415
840 1 0.831365 0.748878 0.912984
117 1 0.828531 0.66118 0.0121557
118 1 0.910866 0.745453 0.994902
838 1 0.917498 0.732839 0.844219
841 1 -0.0152083 0.830668 0.836743
723 1 0.0740402 0.0218912 0.913788
844 1 -0.0101019 0.927054 0.91148
845 1 0.167043 0.841304 0.82764
727 1 0.258715 0.00801848 0.918743
847 1 0.26116 0.836237 0.91168
129 1 0.337432 0.837597 -0.0140144
848 1 0.15765 0.935937 0.930952
852 1 0.333008 0.922233 0.902999
13 1 0.503883 0.000147663 0.00128923
731 1 0.414478 0.00148751 0.906064
856 1 0.495453 0.927886 0.90247
134 1 0.574981 0.912977 0.998736
854 1 0.589236 0.9281 0.842166
860 1 0.653963 0.933544 0.927416
861 1 0.818024 0.841795 0.834501
737 1 0.657308 1.01562 0.83899
21 1 0.844404 0.99606 1.00109
862 1 0.90683 0.912131 0.844119
863 1 0.9159 0.821771 0.921541
864 1 0.827172 0.915141 0.92282
