ITEM: TIMESTEP
10750
ITEM: NUMBER OF ATOMS
864
ITEM: BOX BOUNDS pp pp pp
0.0000000000000000e+00 3.1559999999999999e+01
0.0000000000000000e+00 3.1559999999999999e+01
0.0000000000000000e+00 3.1559999999999999e+01
ITEM: ATOMS id type xs ys zs
4 1 0.00293482 0.0886525 0.0763024
451 1 0.737017 0.495926 0.0891659
8 1 0.168565 0.0929886 0.0870139
208 1 0.516276 0.426987 0.410779
285 1 0.830763 0.344401 0.496157
105 1 0.332587 0.162308 0.180582
9 1 0.341035 0.00730493 0.00342939
12 1 0.334772 0.0967838 0.0917667
16 1 0.503861 0.0966918 0.0858955
75 1 0.0819621 0.00383085 0.255997
234 1 0.737331 0.0820168 0.492344
86 1 0.570859 0.0855717 0.178795
216 1 0.830946 0.417946 0.417504
269 1 0.161953 0.338727 0.499116
53 1 0.173059 0.326198 0.0195315
7 1 0.251727 0.0203167 0.0780283
20 1 0.683759 0.0836671 0.0871239
24 1 0.813978 0.069645 0.0798057
587 1 0.423881 0.488184 0.414396
43 1 0.746485 0.172066 0.0837094
61 1 0.510334 0.337395 0.006137
11 1 0.416692 0.00988616 0.0922971
13 1 0.498949 0.00610336 0.00236519
196 1 0.0013728 0.423434 0.40273
27 1 0.085659 0.174164 0.0799189
32 1 0.164201 0.246953 0.0909184
28 1 0.00480471 0.251127 0.0636928
97 1 0.989279 0.181235 0.14988
34 1 0.428374 0.259067 0.0141532
149 1 0.165344 0.0116631 0.335787
31 1 0.248654 0.175616 0.0866814
36 1 0.342339 0.238725 0.0885596
95 1 0.928386 0.00466202 0.251181
161 1 0.668646 0.0028378 0.329122
35 1 0.424594 0.163096 0.0743855
5 1 0.175201 0.0209005 0.00953373
57 1 0.342114 0.328949 0.00949435
147 1 0.0874496 0.0245234 0.422043
40 1 0.502832 0.235097 0.0926407
39 1 0.601905 0.145774 0.0988772
110 1 0.591639 0.253081 0.18283
109 1 0.488319 0.166434 0.182823
163 1 0.75314 0.0157384 0.408929
44 1 0.660641 0.243216 0.0934115
153 1 0.326882 0.00110626 0.34612
67 1 0.742315 0.350426 0.0935827
137 1 0.674445 0.319272 0.178953
233 1 0.658643 0.00530329 0.496131
47 1 0.906667 0.17056 0.0700755
48 1 0.836558 0.2602 0.070828
51 1 0.0880541 0.339646 0.0871642
122 1 0.0881468 0.422335 0.164533
55 1 0.254453 0.334222 0.0955896
56 1 0.158032 0.425018 0.0794898
60 1 0.338621 0.406865 0.0887193
59 1 0.433374 0.328565 0.0897423
64 1 0.521576 0.413875 0.102171
58 1 0.417303 0.418744 0.0245111
41 1 0.66921 0.169133 0.00978446
63 1 0.579982 0.314152 0.0952165
54 1 0.248066 0.42054 0.0151511
30 1 0.26155 0.255868 0.00551846
33 1 0.346418 0.181215 0.00359888
212 1 0.66605 0.427573 0.410742
69 1 0.802101 0.342794 0.000908619
68 1 0.660066 0.412049 0.100709
266 1 0.0779992 0.405534 0.496283
52 1 0.0129057 0.418489 0.0800909
71 1 0.924984 0.342854 0.0761286
72 1 0.831756 0.41168 0.0967663
85 1 0.484833 0.00266605 0.178426
74 1 0.0715009 0.0955405 0.162305
80 1 0.159052 0.0865271 0.25105
76 1 0.00111358 0.094073 0.240466
169 1 0.992787 0.180505 0.341439
78 1 0.248589 0.0999102 0.171215
84 1 0.332369 0.0858551 0.270789
282 1 0.747172 0.415091 0.496794
177 1 0.339855 0.171204 0.344128
151 1 0.243639 0.0149192 0.421384
65 1 0.668998 0.337715 0.00618489
82 1 0.419389 0.0860587 0.176082
107 1 0.409238 0.165247 0.262964
181 1 0.497029 0.159956 0.355392
167 1 0.912189 0.00835165 0.416953
73 1 0.997307 0.00421459 0.171689
88 1 0.492421 0.0812011 0.25172
92 1 0.660413 0.0864788 0.246816
158 1 0.584345 0.0897738 0.333781
89 1 0.661051 0.00773168 0.173025
42 1 0.739312 0.24684 0.0112001
657 1 0.320402 0.49972 0.485562
90 1 0.751558 0.0839936 0.177384
115 1 0.764756 0.185427 0.249936
222 1 0.249066 0.0956195 0.499928
193 1 0.00746314 0.338629 0.332581
96 1 0.83661 0.0839036 0.237331
117 1 0.835372 0.164246 0.154578
94 1 0.915523 0.0853802 0.176137
119 1 0.902261 0.163775 0.263428
439 1 0.24425 0.494981 0.0836755
98 1 0.0769885 0.249423 0.163916
99 1 0.0825857 0.176816 0.24442
101 1 0.167102 0.178518 0.162683
104 1 0.150622 0.263141 0.247159
103 1 0.248443 0.179765 0.256777
102 1 0.25689 0.255065 0.162572
108 1 0.335871 0.259821 0.255613
106 1 0.410228 0.259335 0.180673
112 1 0.505339 0.247247 0.260226
113 1 0.667323 0.169836 0.177764
111 1 0.58785 0.172595 0.256667
116 1 0.665246 0.251411 0.257465
205 1 0.503189 0.353989 0.343857
114 1 0.760007 0.24341 0.154673
120 1 0.837359 0.260508 0.254031
139 1 0.758249 0.336084 0.251585
186 1 0.751757 0.263316 0.330165
121 1 0.982575 0.310137 0.164714
118 1 0.907724 0.243664 0.163183
141 1 0.837619 0.337148 0.171281
100 1 0.981117 0.238544 0.252926
190 1 0.917269 0.267331 0.332096
123 1 0.0629491 0.32166 0.232195
124 1 0.00926384 0.414652 0.242071
194 1 0.0890334 0.409842 0.327765
129 1 0.339529 0.338957 0.167687
125 1 0.155859 0.338503 0.175088
127 1 0.248258 0.343389 0.251437
128 1 0.162458 0.41011 0.256415
126 1 0.240759 0.41641 0.161302
132 1 0.334355 0.430661 0.247037
10 1 0.411794 0.0861684 0.00401283
130 1 0.421569 0.425323 0.180638
131 1 0.432263 0.338367 0.259305
133 1 0.492751 0.338135 0.181189
136 1 0.512024 0.426981 0.257025
202 1 0.432947 0.42287 0.328458
207 1 0.592542 0.335566 0.409461
135 1 0.583206 0.328501 0.262224
134 1 0.589925 0.426628 0.192218
140 1 0.673494 0.405772 0.260545
206 1 0.586585 0.423194 0.333869
138 1 0.752261 0.427075 0.186605
144 1 0.831632 0.429999 0.261858
213 1 0.843036 0.340529 0.331771
210 1 0.76138 0.421078 0.34094
453 1 0.827867 0.499892 0.00442276
142 1 0.930985 0.423002 0.169999
143 1 0.910527 0.342393 0.250568
214 1 0.92529 0.414003 0.335982
62 1 0.594549 0.404488 0.0152726
3 1 0.0839358 0.00215011 0.0784302
146 1 0.064082 0.102652 0.32303
511 1 0.242934 0.497069 0.269254
152 1 0.180316 0.102765 0.417364
157 1 0.503455 0.0115975 0.349137
445 1 0.496671 0.485134 0.0100616
150 1 0.25568 0.099851 0.334145
435 1 0.0803155 0.496851 0.08368
455 1 0.916725 0.497044 0.0973386
154 1 0.417902 0.0776928 0.353096
66 1 0.737024 0.418281 0.00926979
156 1 0.326916 0.101747 0.430255
160 1 0.505222 0.0826143 0.438688
179 1 0.415754 0.17747 0.421249
145 1 0.996665 0.00800721 0.334459
2 1 0.0772955 0.0817231 0.00294044
164 1 0.665865 0.0805197 0.411142
278 1 0.589241 0.420381 0.492029
189 1 0.834041 0.170062 0.336737
162 1 0.74239 0.0929752 0.325802
185 1 0.678189 0.175091 0.328736
187 1 0.753694 0.195951 0.407417
37 1 0.524747 0.163299 0.00256817
261 1 0.818537 0.156733 0.494756
148 1 0.0038372 0.0975103 0.419331
168 1 0.836741 0.0913081 0.414814
166 1 0.92918 0.0857136 0.342583
242 1 0.0858994 0.255541 0.499374
171 1 0.0959355 0.160456 0.418526
173 1 0.163671 0.179351 0.336318
170 1 0.0814204 0.249078 0.328215
195 1 0.0925863 0.344148 0.406873
79 1 0.244519 0.0049743 0.263438
45 1 0.828387 0.164245 0.0115737
176 1 0.156125 0.262115 0.407432
174 1 0.258143 0.263265 0.329302
175 1 0.249463 0.189132 0.412693
201 1 0.342402 0.347266 0.327277
180 1 0.338454 0.267558 0.424965
178 1 0.419812 0.269847 0.341855
184 1 0.503632 0.257832 0.419221
203 1 0.426137 0.354494 0.419772
209 1 0.672531 0.336475 0.347146
182 1 0.578691 0.244627 0.341517
183 1 0.57778 0.157954 0.430446
583 1 0.246461 0.487168 0.409521
87 1 0.581906 0.00894812 0.257821
211 1 0.760371 0.334346 0.412961
188 1 0.658496 0.246618 0.413047
192 1 0.843764 0.262069 0.420249
191 1 0.92493 0.170784 0.426197
215 1 0.917429 0.345779 0.417873
172 1 0.0153325 0.253542 0.421872
197 1 0.17089 0.333181 0.335101
200 1 0.173849 0.414694 0.42698
204 1 0.328125 0.408739 0.409814
199 1 0.246785 0.330323 0.406512
198 1 0.24583 0.407682 0.330422
23 1 0.919622 0.0173918 0.0877996
165 1 0.837076 0.00930189 0.3362
581 1 0.151476 0.494395 0.329393
281 1 0.663908 0.333043 0.489247
77 1 0.155867 0.00258384 0.16989
81 1 0.335892 0.0235831 0.182369
254 1 0.574561 0.254339 0.495405
257 1 0.676412 0.179122 0.493649
245 1 0.173703 0.177231 0.49253
14 1 0.590235 0.0816325 0.00645906
277 1 0.495349 0.364512 0.496389
159 1 0.581575 0.000322443 0.422548
29 1 0.170171 0.174058 0.00896364
250 1 0.426888 0.266638 0.499979
93 1 0.840831 0.00287981 0.161213
224 1 0.194016 0.0994348 0.593088
220 1 0.0120337 0.102943 0.596323
38 1 0.599813 0.254736 0.999669
219 1 0.0976574 0.0193751 0.593812
294 1 0.260498 0.0749878 0.680896
803 1 0.414144 0.49087 0.934377
228 1 0.344491 0.0788672 0.598415
232 1 0.488667 0.0797752 0.574045
265 1 0.00228607 0.32671 0.505617
6 1 0.263539 0.0961913 0.99967
729 1 0.332457 0.498124 0.68558
226 1 0.407917 0.0942152 0.507478
236 1 0.66334 0.0901359 0.586619
240 1 0.837826 0.0864763 0.571666
262 1 0.911014 0.24585 0.507501
289 1 0.0101071 0.0103028 0.681308
301 1 0.508474 0.00918538 0.66107
361 1 0.99424 0.00736472 0.824381
367 1 0.263633 0.0108175 0.920542
239 1 0.923985 0.0107734 0.595708
671 1 0.916879 0.493543 0.580753
243 1 0.10389 0.164409 0.581686
248 1 0.168464 0.254939 0.589039
649 1 0.00318102 0.49578 0.503608
247 1 0.267455 0.181603 0.593407
271 1 0.239723 0.341116 0.588434
252 1 0.351813 0.253169 0.588184
321 1 0.340033 0.172993 0.666706
799 1 0.261801 0.497839 0.924602
291 1 0.0848827 0.014606 0.771169
251 1 0.424351 0.177081 0.580386
275 1 0.415258 0.340223 0.583131
256 1 0.512021 0.260861 0.584883
322 1 0.417159 0.256424 0.67606
349 1 0.500301 0.326976 0.6797
223 1 0.25985 0.00805591 0.594507
255 1 0.57502 0.174019 0.588956
246 1 0.236974 0.25675 0.502686
260 1 0.655183 0.245313 0.568221
259 1 0.743293 0.160179 0.567587
264 1 0.836878 0.239666 0.571999
217 1 0.00654787 0.0294976 0.505221
653 1 0.163166 0.496552 0.511881
244 1 0.00554445 0.24114 0.582926
263 1 0.917873 0.167439 0.580117
313 1 0.99251 0.178751 0.681704
381 1 0.834277 0.00865928 0.840114
267 1 0.0873849 0.336363 0.597474
270 1 0.248967 0.420958 0.518601
338 1 0.0823276 0.422555 0.668854
22 1 0.924557 0.078969 0.987428
437 1 0.176858 0.495937 0.990236
383 1 0.927276 0.0070017 0.912534
18 1 0.744531 0.0766547 0.990177
272 1 0.162021 0.413871 0.593676
309 1 0.818512 0.0154247 0.674815
276 1 0.326907 0.420192 0.598567
280 1 0.484997 0.417407 0.594659
50 1 0.0928316 0.424585 0.987621
279 1 0.589079 0.337025 0.58316
284 1 0.665189 0.425434 0.582512
663 1 0.586039 0.498489 0.564214
283 1 0.742232 0.332055 0.573469
218 1 0.0970568 0.0964659 0.504288
288 1 0.830937 0.414745 0.573669
426 1 0.74133 0.414752 0.826259
287 1 0.915605 0.331912 0.580311
268 1 0.00679708 0.422853 0.588838
253 1 0.489521 0.179301 0.503892
290 1 0.0828748 0.0935536 0.677752
292 1 0.00823794 0.100129 0.75958
362 1 0.0879967 0.0961633 0.835968
296 1 0.165926 0.0985663 0.749197
300 1 0.338033 0.102382 0.756505
49 1 0.0141952 0.348445 0.99362
225 1 0.338439 0.00338862 0.509839
274 1 0.398056 0.419854 0.501472
293 1 0.17805 0.0106118 0.687976
221 1 0.174664 0.0105767 0.505813
237 1 0.840869 0.00260976 0.500029
298 1 0.430706 0.0889717 0.669872
273 1 0.332107 0.339681 0.504054
305 1 0.67554 0.0144562 0.66552
365 1 0.162979 0.0244836 0.83699
304 1 0.511681 0.0748895 0.743295
302 1 0.589618 0.0901955 0.666725
308 1 0.675374 0.0941076 0.746857
329 1 0.668254 0.169022 0.650383
306 1 0.746017 0.0922125 0.66396
331 1 0.748298 0.171518 0.737658
811 1 0.74346 0.488515 0.922327
311 1 0.918731 0.0230117 0.739574
312 1 0.835843 0.102906 0.748166
310 1 0.914161 0.0998394 0.669447
335 1 0.912125 0.180188 0.749277
314 1 0.0825317 0.25342 0.673684
315 1 0.0844876 0.172822 0.755041
317 1 0.169067 0.177227 0.674011
320 1 0.161198 0.254606 0.746508
319 1 0.246084 0.167899 0.746888
318 1 0.248806 0.259515 0.670942
389 1 0.168106 0.174565 0.84422
323 1 0.419159 0.175942 0.744211
324 1 0.32649 0.24508 0.753962
347 1 0.417808 0.329321 0.745642
325 1 0.498904 0.173993 0.660095
326 1 0.583104 0.262979 0.663235
328 1 0.500973 0.249392 0.747444
327 1 0.591351 0.172029 0.744138
332 1 0.664943 0.25667 0.733324
330 1 0.75204 0.256059 0.657654
333 1 0.83562 0.165093 0.659583
334 1 0.91316 0.255566 0.657191
336 1 0.833962 0.250678 0.736734
316 1 0.00474273 0.240262 0.773388
406 1 0.904229 0.255902 0.845755
737 1 0.678624 0.499715 0.65469
339 1 0.0799561 0.322332 0.77034
341 1 0.170488 0.347033 0.686663
343 1 0.263288 0.346175 0.754611
344 1 0.162337 0.418671 0.778788
342 1 0.245567 0.425603 0.682316
813 1 0.818515 0.487968 0.838438
345 1 0.335484 0.332486 0.676832
348 1 0.344201 0.420078 0.76875
346 1 0.405566 0.4173 0.684822
418 1 0.422467 0.414404 0.84354
352 1 0.504374 0.42445 0.730226
350 1 0.587794 0.442083 0.653146
351 1 0.582756 0.335592 0.745018
258 1 0.753851 0.255731 0.505992
805 1 0.511523 0.488391 0.831983
353 1 0.668226 0.336199 0.654099
354 1 0.759227 0.416221 0.667521
355 1 0.754031 0.320296 0.739969
356 1 0.668856 0.407049 0.745873
357 1 0.823717 0.333911 0.645378
360 1 0.843742 0.419721 0.741732
337 1 0.00435279 0.345096 0.662596
359 1 0.924136 0.317458 0.743108
340 1 0.996833 0.413014 0.749038
358 1 0.9178 0.409476 0.662922
409 1 0.984935 0.340914 0.832635
412 1 0.981522 0.422969 0.919409
249 1 0.328911 0.185759 0.501186
364 1 0.00270534 0.0764728 0.924554
368 1 0.174518 0.0949028 0.920995
366 1 0.251506 0.106249 0.849551
372 1 0.338345 0.0952996 0.926477
430 1 0.914474 0.431428 0.830991
230 1 0.586881 0.0819246 0.515887
370 1 0.426963 0.091334 0.840126
376 1 0.523369 0.0880034 0.914446
374 1 0.589709 0.0968056 0.835657
399 1 0.584193 0.181209 0.89794
431 1 0.907534 0.347751 0.932404
380 1 0.656077 0.0981313 0.9261
378 1 0.746141 0.0894076 0.830383
401 1 0.680135 0.184784 0.822227
403 1 0.751404 0.171449 0.918604
405 1 0.830728 0.171385 0.838882
235 1 0.760232 0.000859051 0.570135
384 1 0.823413 0.0994719 0.922371
382 1 0.908556 0.0892877 0.833504
721 1 0.990025 0.496821 0.669142
241 1 0.00817952 0.163914 0.505363
385 1 0.988197 0.159029 0.85389
387 1 0.0872782 0.168141 0.925205
386 1 0.0855922 0.238949 0.843235
393 1 0.343033 0.164639 0.844102
392 1 0.17619 0.253183 0.93039
390 1 0.254768 0.250383 0.834312
391 1 0.256267 0.181011 0.919098
396 1 0.339028 0.248163 0.912524
395 1 0.433981 0.164888 0.935537
397 1 0.499516 0.183468 0.839952
394 1 0.422098 0.258652 0.828513
400 1 0.505567 0.250544 0.944865
425 1 0.671521 0.328019 0.823801
421 1 0.493659 0.331488 0.838559
398 1 0.581261 0.257718 0.816606
402 1 0.758924 0.257684 0.842267
404 1 0.67009 0.258398 0.918141
408 1 0.831269 0.266942 0.927151
429 1 0.845919 0.355497 0.817978
407 1 0.914242 0.177047 0.925821
388 1 0.00214458 0.255489 0.914385
25 1 0.00226947 0.163116 0.991402
411 1 0.092131 0.326309 0.907707
410 1 0.0687778 0.412785 0.844972
416 1 0.170144 0.417002 0.902405
414 1 0.261847 0.427324 0.835533
413 1 0.174704 0.324925 0.834081
26 1 0.0804559 0.254582 0.98625
420 1 0.337278 0.398476 0.934372
417 1 0.344102 0.339237 0.828627
415 1 0.248866 0.34133 0.916811
419 1 0.426414 0.347329 0.934832
422 1 0.576289 0.408647 0.832352
423 1 0.58654 0.324168 0.906697
424 1 0.507573 0.416117 0.915712
428 1 0.648235 0.413171 0.914093
427 1 0.738095 0.348428 0.903439
432 1 0.829599 0.407374 0.917065
303 1 0.59392 0.0130709 0.744514
735 1 0.598558 0.495893 0.762007
377 1 0.654218 0.0130121 0.826012
286 1 0.920186 0.42292 0.505448
46 1 0.929007 0.270707 0.993666
297 1 0.34206 0.000855685 0.671207
371 1 0.429116 0.0100083 0.918003
295 1 0.259173 0.00244764 0.772678
375 1 0.583792 0.00322534 0.918479
238 1 0.926559 0.094327 0.509734
363 1 0.0861367 0.0192362 0.914436
809 1 0.668334 0.4941 0.841606
70 1 0.911444 0.427045 0.999051
661 1 0.47601 0.490577 0.511433
743 1 0.9192 0.498561 0.750135
739 1 0.746461 0.490548 0.745183
440 1 0.16543 0.584889 0.073471
506 1 0.0912318 0.590031 0.174274
433 1 0.998294 0.514207 0.011334
642 1 0.74921 0.921728 0.327569
444 1 0.337755 0.589719 0.101086
474 1 0.751881 0.741574 0.000350812
434 1 0.0766802 0.597742 0.000135911
517 1 0.503646 0.508914 0.16717
448 1 0.482663 0.592067 0.089385
442 1 0.416093 0.575078 0.0014848
525 1 0.838713 0.5013 0.17365
452 1 0.674254 0.578264 0.0814758
589 1 0.499926 0.511605 0.342353
710 1 0.58565 0.916069 0.494048
521 1 0.668401 0.502958 0.163323
519 1 0.594187 0.505249 0.265712
522 1 0.751467 0.592596 0.169653
640 1 0.503846 0.907192 0.420258
456 1 0.820695 0.568268 0.0930788
436 1 0.980176 0.588441 0.086538
526 1 0.913213 0.587503 0.177499
459 1 0.0640753 0.66726 0.0760001
529 1 0.0119469 0.657036 0.164811
464 1 0.160121 0.756663 0.0917167
460 1 0.994234 0.753176 0.0861306
669 1 0.847295 0.506843 0.491645
533 1 0.153475 0.666595 0.158092
628 1 0.00624887 0.937224 0.419665
463 1 0.242526 0.65643 0.0953313
468 1 0.321896 0.745022 0.095799
487 1 0.241487 0.840191 0.0908068
454 1 0.902794 0.581018 0.00882314
465 1 0.345852 0.677754 0.00364332
501 1 0.829233 0.844892 0.00661515
469 1 0.484556 0.664916 0.00280352
467 1 0.408001 0.67436 0.091455
472 1 0.504596 0.759094 0.0929288
538 1 0.42789 0.750551 0.171338
466 1 0.423779 0.76476 0.00969739
83 1 0.411464 0.996138 0.272602
471 1 0.585799 0.648419 0.0847054
476 1 0.668318 0.738457 0.0815303
495 1 0.584772 0.847555 0.086876
475 1 0.761318 0.665233 0.0816038
443 1 0.408258 0.504858 0.111926
499 1 0.740905 0.842221 0.0754343
646 1 0.920061 0.92483 0.350979
480 1 0.831182 0.760862 0.078663
479 1 0.909163 0.66818 0.0910793
579 1 0.0825292 0.512748 0.413472
549 1 0.834655 0.661845 0.160013
577 1 0.00835781 0.502766 0.333106
483 1 0.0872015 0.831639 0.0870683
484 1 0.996218 0.906717 0.0896124
554 1 0.0802844 0.914576 0.169307
553 1 0.994439 0.836454 0.179095
91 1 0.747485 0.992328 0.251946
488 1 0.174857 0.937052 0.0884984
492 1 0.313559 0.921831 0.0875374
558 1 0.256262 0.93117 0.183632
689 1 0.664406 0.679924 0.496954
491 1 0.400971 0.842346 0.084371
647 1 0.911661 0.850952 0.435773
562 1 0.40701 0.926879 0.169462
496 1 0.493093 0.929067 0.0812626
500 1 0.664975 0.932424 0.0992157
494 1 0.58189 0.921829 0.00617686
155 1 0.403393 0.997009 0.429728
645 1 0.841327 0.846583 0.353643
504 1 0.826423 0.92245 0.0794366
502 1 0.913547 0.919681 0.00266448
570 1 0.76082 0.904142 0.159467
635 1 0.419862 0.825632 0.41854
503 1 0.91314 0.832663 0.065585
662 1 0.569986 0.590779 0.495264
512 1 0.161391 0.584066 0.258644
648 1 0.825932 0.929168 0.424097
19 1 0.745866 0.993356 0.101765
510 1 0.238163 0.590688 0.168431
513 1 0.312604 0.510382 0.173067
514 1 0.425548 0.61035 0.174226
599 1 0.908828 0.505674 0.396601
516 1 0.336604 0.594146 0.255568
520 1 0.514386 0.593734 0.252734
515 1 0.418781 0.510995 0.254289
518 1 0.59239 0.576968 0.186061
524 1 0.679736 0.595118 0.262742
590 1 0.577597 0.587192 0.332611
470 1 0.577359 0.758723 0.0257768
547 1 0.756827 0.668688 0.257374
594 1 0.753743 0.595256 0.346576
621 1 0.843046 0.679556 0.345268
523 1 0.736985 0.511142 0.247592
508 1 0.0107655 0.592368 0.256799
528 1 0.834928 0.586152 0.254092
441 1 0.335511 0.500127 0.025245
530 1 0.0766347 0.753841 0.170088
531 1 0.0735297 0.684799 0.253771
532 1 0.000418252 0.761467 0.261075
605 1 0.161959 0.677522 0.345323
602 1 0.0714902 0.765986 0.345222
534 1 0.243026 0.755093 0.171202
535 1 0.241913 0.665358 0.246755
537 1 0.335679 0.684886 0.174927
536 1 0.15397 0.759246 0.267976
540 1 0.340775 0.76251 0.249795
541 1 0.516964 0.676589 0.172468
539 1 0.417807 0.675252 0.26266
544 1 0.510595 0.752475 0.254415
545 1 0.679417 0.667848 0.170901
543 1 0.586139 0.675824 0.247716
542 1 0.583845 0.761709 0.157398
548 1 0.679296 0.758351 0.255291
617 1 0.667925 0.67074 0.335771
546 1 0.745325 0.755958 0.164964
571 1 0.749898 0.843594 0.249891
618 1 0.746655 0.763776 0.340517
550 1 0.912852 0.75272 0.164262
552 1 0.814365 0.750122 0.24759
551 1 0.909692 0.679656 0.251049
622 1 0.917565 0.757433 0.344686
593 1 0.683764 0.510204 0.334898
555 1 0.0819365 0.838867 0.254853
557 1 0.162793 0.844963 0.157297
556 1 0.990697 0.912492 0.259312
561 1 0.332494 0.831179 0.169897
559 1 0.233965 0.834155 0.253021
560 1 0.154684 0.919614 0.255549
630 1 0.23808 0.920327 0.338313
563 1 0.412795 0.84801 0.251188
564 1 0.326917 0.914574 0.2515
565 1 0.494676 0.830822 0.169329
568 1 0.492681 0.918845 0.259665
634 1 0.414903 0.91142 0.33798
566 1 0.572966 0.925457 0.186583
567 1 0.580352 0.845431 0.250278
641 1 0.66634 0.850083 0.330672
569 1 0.66834 0.836773 0.161506
573 1 0.842885 0.835572 0.17163
572 1 0.664899 0.923215 0.23917
576 1 0.829301 0.923143 0.25665
575 1 0.908875 0.828657 0.254725
574 1 0.918838 0.910833 0.172116
625 1 0.993739 0.853883 0.364134
505 1 0.00590155 0.505024 0.150345
438 1 0.282121 0.592312 0.0152168
578 1 0.0774437 0.59328 0.335598
603 1 0.084461 0.664868 0.418114
584 1 0.167355 0.595071 0.41883
591 1 0.590153 0.507882 0.419269
580 1 0.0109428 0.588931 0.429351
493 1 0.506288 0.838494 0.00420199
582 1 0.242474 0.577628 0.345892
588 1 0.338042 0.577383 0.402809
473 1 0.672466 0.66 0.00342022
658 1 0.406744 0.577256 0.4878
457 1 0.981644 0.674635 0.0100084
586 1 0.425585 0.587729 0.335715
458 1 0.0654334 0.75037 0.00519604
527 1 0.929367 0.500501 0.250214
592 1 0.496694 0.604458 0.416962
615 1 0.584538 0.675952 0.411989
597 1 0.817838 0.505543 0.332221
596 1 0.665076 0.58459 0.422722
600 1 0.837884 0.597048 0.418827
595 1 0.751905 0.511216 0.420381
643 1 0.748253 0.849986 0.41696
461 1 0.162583 0.67698 0.00566613
638 1 0.581856 0.922635 0.333139
598 1 0.924657 0.589814 0.339784
601 1 0.996912 0.670064 0.339413
607 1 0.236812 0.687129 0.41651
609 1 0.321513 0.674446 0.340249
606 1 0.253809 0.756241 0.326599
608 1 0.165865 0.766717 0.42695
612 1 0.317447 0.758529 0.404393
509 1 0.15947 0.503058 0.173469
644 1 0.676484 0.928087 0.428193
613 1 0.497513 0.680554 0.332503
610 1 0.41518 0.767574 0.323442
611 1 0.4133 0.698984 0.401514
616 1 0.503305 0.761661 0.422307
706 1 0.420655 0.902118 0.498329
614 1 0.595194 0.758375 0.331206
639 1 0.581076 0.83925 0.41595
619 1 0.758222 0.68217 0.408866
507 1 0.0711242 0.509726 0.242764
620 1 0.663182 0.765902 0.422118
450 1 0.750721 0.577845 0.00134651
666 1 0.746153 0.599625 0.49013
623 1 0.922841 0.670129 0.423865
624 1 0.828471 0.765942 0.427591
604 1 0.987802 0.759874 0.429743
482 1 0.0862259 0.925381 0.00378082
489 1 0.319257 0.839561 0.00903673
626 1 0.0863852 0.918772 0.34095
629 1 0.161572 0.842771 0.342387
627 1 0.0801954 0.843205 0.434955
631 1 0.260332 0.845711 0.421574
632 1 0.164235 0.942953 0.424995
490 1 0.412922 0.920432 0.0126177
497 1 0.659503 0.841675 0.00316756
447 1 0.588917 0.50414 0.0730944
637 1 0.513659 0.832974 0.329292
633 1 0.322426 0.841662 0.323825
636 1 0.325946 0.927815 0.41911
701 1 0.175968 0.840535 0.495242
585 1 0.352167 0.500349 0.337456
15 1 0.583484 0.99596 0.0799448
722 1 0.0724366 0.583768 0.670698
1 1 0.990652 0.992129 0.9887
656 1 0.176883 0.589509 0.600844
679 1 0.255222 0.669934 0.570118
726 1 0.248033 0.587999 0.69048
749 1 0.156339 0.672713 0.669344
753 1 0.331737 0.666171 0.671494
859 1 0.753226 0.840696 0.930822
705 1 0.334766 0.838207 0.509533
660 1 0.323347 0.587052 0.555937
664 1 0.498615 0.588532 0.574188
797 1 0.157676 0.506333 0.846259
449 1 0.661809 0.502387 0.993261
815 1 0.916615 0.500964 0.922149
687 1 0.574232 0.668529 0.572231
801 1 0.343834 0.500786 0.852124
668 1 0.662825 0.59689 0.567043
738 1 0.738818 0.590614 0.657665
761 1 0.659826 0.66535 0.657298
21 1 0.825174 0.995511 0.989797
672 1 0.835489 0.583225 0.567489
652 1 0.00434302 0.587146 0.568466
693 1 0.816518 0.691258 0.507814
670 1 0.916701 0.592433 0.511682
675 1 0.0970382 0.673856 0.586611
699 1 0.0984057 0.846017 0.583557
676 1 0.994616 0.757196 0.57954
746 1 0.0882523 0.754878 0.663607
674 1 0.0895648 0.755418 0.512615
680 1 0.174292 0.772627 0.583251
717 1 0.843288 0.838731 0.510873
684 1 0.333001 0.761695 0.585864
683 1 0.409518 0.654758 0.582917
707 1 0.428978 0.832654 0.592722
754 1 0.414334 0.745905 0.662076
757 1 0.499624 0.655454 0.657884
855 1 0.575345 0.825147 0.91965
688 1 0.505441 0.756721 0.596339
692 1 0.647586 0.751688 0.590131
691 1 0.743351 0.666221 0.585685
696 1 0.829997 0.750432 0.611186
446 1 0.5875 0.580177 0.98568
765 1 0.825104 0.652121 0.671639
762 1 0.733385 0.758256 0.660816
695 1 0.918408 0.668112 0.587936
766 1 0.920488 0.752375 0.676959
770 1 0.0998708 0.926608 0.683692
698 1 0.0761272 0.942688 0.500876
702 1 0.257488 0.928785 0.510597
703 1 0.258504 0.847115 0.594947
725 1 0.16535 0.502369 0.673216
704 1 0.168189 0.921552 0.591884
229 1 0.495943 0.992058 0.503943
708 1 0.350033 0.910009 0.593443
777 1 0.344452 0.838894 0.677258
714 1 0.764365 0.914507 0.506357
731 1 0.424414 0.503642 0.759096
711 1 0.58465 0.847756 0.578966
712 1 0.496123 0.908783 0.59737
716 1 0.680979 0.906365 0.578879
715 1 0.765252 0.837088 0.594359
786 1 0.752703 0.921789 0.674143
795 1 0.0793807 0.504595 0.926559
665 1 0.678411 0.508533 0.503836
793 1 0.998545 0.505331 0.832212
719 1 0.926794 0.836193 0.584833
720 1 0.833403 0.927845 0.587338
700 1 0.0137188 0.951616 0.587863
498 1 0.742929 0.916699 0.999188
728 1 0.154743 0.583387 0.740735
745 1 0.00583956 0.666209 0.663295
747 1 0.0826415 0.668464 0.760098
732 1 0.334281 0.584251 0.76456
741 1 0.827835 0.515442 0.657653
730 1 0.415308 0.586821 0.683512
736 1 0.51377 0.582729 0.742957
825 1 0.328908 0.673884 0.839998
734 1 0.588782 0.572104 0.646873
759 1 0.597445 0.675003 0.767807
740 1 0.665048 0.58159 0.743855
651 1 0.0804259 0.506601 0.589754
667 1 0.755268 0.501865 0.57564
763 1 0.747723 0.658022 0.753638
744 1 0.826393 0.568209 0.765746
724 1 0.989594 0.582862 0.742035
742 1 0.912372 0.577722 0.663666
814 1 0.920006 0.582865 0.832325
485 1 0.172391 0.81372 0.996854
678 1 0.259804 0.746467 0.502711
752 1 0.173075 0.76153 0.750042
771 1 0.0859724 0.836696 0.760047
817 1 0.993988 0.667026 0.824328
750 1 0.25547 0.748705 0.668852
751 1 0.240719 0.674354 0.747781
773 1 0.18102 0.842619 0.67695
775 1 0.279188 0.835366 0.756167
821 1 0.161868 0.666143 0.841274
755 1 0.410087 0.666726 0.766566
756 1 0.332921 0.74478 0.748362
760 1 0.502108 0.736017 0.748993
779 1 0.423267 0.840091 0.763586
758 1 0.59602 0.764702 0.68447
781 1 0.501174 0.824938 0.686542
785 1 0.672528 0.841605 0.656551
764 1 0.680451 0.753286 0.760641
768 1 0.829679 0.740031 0.7319
837 1 0.833367 0.662586 0.817513
767 1 0.908993 0.657999 0.737715
748 1 0.987362 0.7501 0.756637
841 1 0.986128 0.829791 0.832642
791 1 0.916961 0.837707 0.740474
838 1 0.904881 0.749557 0.823135
677 1 0.172791 0.687558 0.511106
776 1 0.158894 0.91457 0.767078
774 1 0.261209 0.939405 0.675286
854 1 0.580021 0.916927 0.849061
845 1 0.171938 0.815141 0.838352
780 1 0.33799 0.918217 0.77051
846 1 0.260987 0.917522 0.846181
778 1 0.434228 0.915175 0.685814
850 1 0.423445 0.922335 0.843762
784 1 0.509422 0.942341 0.745967
462 1 0.266087 0.744922 0.994037
782 1 0.592129 0.916742 0.678804
783 1 0.583953 0.840186 0.760768
857 1 0.659205 0.849355 0.841683
858 1 0.752825 0.907074 0.842455
477 1 0.841644 0.667601 0.991884
789 1 0.841821 0.843324 0.66589
788 1 0.671064 0.919055 0.750055
787 1 0.740132 0.835392 0.758297
718 1 0.942328 0.941525 0.508086
769 1 0.00937404 0.835992 0.673238
790 1 0.935298 0.919521 0.653812
772 1 0.000544919 0.914648 0.75558
792 1 0.831994 0.922807 0.733598
227 1 0.427279 0.999352 0.601361
697 1 0.0111985 0.849437 0.52197
673 1 0.0127398 0.676866 0.51515
794 1 0.0749126 0.574399 0.835167
800 1 0.169091 0.577291 0.919963
650 1 0.101543 0.587271 0.507959
369 1 0.348112 0.999478 0.859994
819 1 0.0732306 0.659055 0.916232
486 1 0.241766 0.921461 0.985924
723 1 0.0946207 0.502716 0.752345
851 1 0.421827 0.835584 0.931537
798 1 0.250485 0.590493 0.824015
804 1 0.334829 0.591735 0.918638
685 1 0.496452 0.678777 0.5006
659 1 0.394166 0.501697 0.584456
802 1 0.428172 0.576042 0.842573
808 1 0.503652 0.590077 0.921022
827 1 0.412568 0.673994 0.926972
829 1 0.505249 0.656042 0.828037
860 1 0.656712 0.915419 0.921647
806 1 0.589309 0.587464 0.837141
655 1 0.248626 0.506491 0.597468
812 1 0.670663 0.587416 0.923698
379 1 0.740709 0.996639 0.9133
862 1 0.907708 0.918619 0.817426
810 1 0.73396 0.579164 0.83918
816 1 0.825374 0.565338 0.916966
709 1 0.500255 0.831916 0.513719
694 1 0.908208 0.745263 0.506812
373 1 0.504015 0.996753 0.837251
796 1 0.991388 0.594729 0.920054
17 1 0.671666 0.99581 0.999488
818 1 0.0833287 0.752553 0.834445
843 1 0.0886944 0.824625 0.920155
823 1 0.254791 0.653738 0.923359
824 1 0.171152 0.739032 0.91967
822 1 0.243057 0.745952 0.832448
828 1 0.341889 0.752523 0.919367
826 1 0.424467 0.743735 0.838784
832 1 0.496783 0.747398 0.924566
833 1 0.671382 0.672829 0.846173
853 1 0.498656 0.834831 0.834046
830 1 0.575051 0.759514 0.830197
831 1 0.576475 0.675789 0.93307
861 1 0.838736 0.833117 0.828292
835 1 0.765034 0.66925 0.911547
834 1 0.731003 0.77138 0.852872
840 1 0.828801 0.755047 0.914727
836 1 0.659988 0.757962 0.934105
807 1 0.587892 0.508818 0.908358
864 1 0.845597 0.912948 0.907313
839 1 0.900096 0.662257 0.904767
820 1 0.00533317 0.741346 0.921094
863 1 0.921686 0.8267 0.917891
686 1 0.57531 0.758009 0.506653
844 1 0.985985 0.918209 0.906806
654 1 0.221857 0.590997 0.505321
690 1 0.734372 0.765944 0.512088
842 1 0.0616318 0.920949 0.834006
848 1 0.151258 0.915463 0.925453
847 1 0.242291 0.827851 0.913783
849 1 0.336001 0.828738 0.853824
852 1 0.338802 0.91394 0.932045
231 1 0.605498 0.983547 0.581991
682 1 0.424433 0.757756 0.516164
856 1 0.502319 0.917676 0.926558
713 1 0.662213 0.839835 0.500688
733 1 0.496167 0.517294 0.652518
481 1 0.00468434 0.850724 0.987423
478 1 0.910676 0.754646 0.993564
681 1 0.340199 0.68058 0.502555
307 1 0.763688 0.99306 0.775392
727 1 0.254353 0.505487 0.760053
299 1 0.424164 0.993328 0.7567
