ITEM: TIMESTEP
8000
ITEM: NUMBER OF ATOMS
864
ITEM: BOX BOUNDS pp pp pp
0.0000000000000000e+00 3.1559999999999999e+01
0.0000000000000000e+00 3.1559999999999999e+01
0.0000000000000000e+00 3.1559999999999999e+01
ITEM: ATOMS id type xs ys zs
8 1 0.161179 0.0898079 0.0917969
3 1 0.0820299 -0.00306318 0.0940383
173 1 0.174849 0.17937 0.195004
27 1 0.065077 0.169057 0.0735839
169 1 0.98697 0.176563 0.153845
2 1 0.0849333 0.0831069 0.986051
150 1 0.26022 0.1098 0.174932
29 1 0.166394 0.160452 0.00535893
31 1 0.251619 0.171608 0.0896809
153 1 0.333351 0.00860817 0.159822
12 1 0.335391 0.110635 0.0871492
177 1 0.348013 0.190057 0.17301
16 1 0.497403 0.0823114 0.0797397
35 1 0.431014 0.169585 0.08838
33 1 0.338165 0.17764 0.980236
15 1 0.58083 0.00949662 0.0641163
39 1 0.585756 0.177921 0.0967932
14 1 0.574986 0.0940941 0.988002
20 1 0.662929 0.0853048 0.0731847
162 1 0.762464 0.0950316 0.171321
19 1 0.743816 0.0151761 0.0874392
24 1 0.831565 0.0787564 0.0780081
43 1 0.749086 0.164204 0.0765713
45 1 0.82107 0.169108 0.999615
18 1 0.738162 0.0911678 0.985768
4 1 -0.0121014 0.0786116 0.0709538
47 1 0.913981 0.172736 0.0672607
23 1 0.917165 1.00918 0.0900278
170 1 0.0742585 0.237888 0.155701
25 1 -0.0104806 0.16201 0.994036
51 1 0.0776523 0.321728 0.0749083
32 1 0.158225 0.254597 0.0821922
36 1 0.330976 0.245552 0.0596894
34 1 0.429103 0.252252 1.00056
40 1 0.503409 0.256472 0.0754135
181 1 0.497457 0.170118 0.177754
37 1 0.509014 0.171322 0.0119026
63 1 0.584189 0.32687 0.0686675
209 1 0.68016 0.336602 0.166334
44 1 0.678587 0.259378 0.0919415
67 1 0.760757 0.340526 0.08539
41 1 0.648431 0.166894 0.00857342
42 1 0.746006 0.237719 0.995865
28 1 0.985725 0.250232 0.0810743
193 1 0.991947 0.340019 0.14152
48 1 0.836912 0.247117 0.079212
71 1 0.900106 0.329074 0.0593576
190 1 0.911753 0.253889 0.163175
46 1 0.921807 0.244709 0.995768
52 1 0.988398 0.421757 0.0620298
217 1 0.00261149 0.489246 0.149265
56 1 0.163915 0.409034 0.0829978
75 1 0.0809998 0.499777 0.0688861
194 1 0.0884424 0.408324 0.170102
55 1 0.258892 0.32049 0.0661191
197 1 0.159657 0.325546 0.167215
60 1 0.343292 0.405163 0.106606
201 1 0.340338 0.312453 0.187401
198 1 0.247707 0.399702 0.154011
57 1 0.353677 0.34254 -0.00496995
54 1 0.257854 0.426075 0.00142575
59 1 0.430675 0.321386 0.0854378
83 1 0.429897 0.496807 0.0875902
64 1 0.508121 0.427041 0.0967589
225 1 0.360737 0.497098 0.165153
202 1 0.440465 0.411051 0.174803
206 1 0.591448 0.415722 0.193472
87 1 0.598534 0.491342 0.0799551
68 1 0.6795 0.407228 0.0841536
210 1 0.751533 0.423542 0.180868
72 1 0.842877 0.427037 0.0832124
70 1 0.906123 0.413501 0.981472
214 1 0.919097 0.424267 0.152269
99 1 0.0831662 0.657662 0.0764386
218 1 0.0806172 0.55872 0.156278
80 1 0.178378 0.582581 0.0822595
221 1 0.165235 0.491638 0.149144
76 1 -0.00146643 0.574905 0.0794862
79 1 0.276275 0.487831 0.0863662
222 1 0.270198 0.568371 0.150435
103 1 0.257552 0.654782 0.0949003
84 1 0.354155 0.572457 0.0775547
107 1 0.41881 0.662635 0.0819869
88 1 0.513829 0.566666 0.0829936
226 1 0.433159 0.583331 0.173634
229 1 0.5078 0.505749 0.175177
233 1 0.66619 0.490689 0.169024
230 1 0.602002 0.57512 0.163649
257 1 0.665684 0.668313 0.169131
92 1 0.67416 0.589083 0.0851823
91 1 0.751188 0.488569 0.0840519
234 1 0.749809 0.592762 0.159908
96 1 0.825056 0.581599 0.0887713
115 1 0.739227 0.672816 0.0813509
237 1 0.833684 0.500851 0.165047
95 1 0.916849 0.507016 0.0817513
94 1 0.917617 0.586516 0.00665527
238 1 0.920013 0.585437 0.167542
93 1 0.828116 0.511744 1.00764
100 1 0.0122892 0.761554 0.0721364
242 1 0.0945571 0.742904 0.145841
245 1 0.159754 0.657961 0.159952
104 1 0.185018 0.759616 0.0979344
127 1 0.263483 0.842312 0.0651422
108 1 0.344039 0.738389 0.0912065
131 1 0.424452 0.830579 0.0695478
249 1 0.345121 0.652365 0.164821
250 1 0.437232 0.733798 0.164795
111 1 0.585762 0.668684 0.0812506
112 1 0.515861 0.743866 0.0768517
135 1 0.588213 0.83258 0.0834045
110 1 0.597273 0.738849 0.995948
253 1 0.508525 0.660685 0.16817
116 1 0.6589 0.751323 0.0828417
114 1 0.735926 0.744114 1.00524
120 1 0.833691 0.752018 0.0663619
139 1 0.751348 0.846223 0.0563413
137 1 0.661426 0.839319 0.992476
117 1 0.839367 0.655893 0.00865627
119 1 0.921608 0.675964 0.0776988
262 1 0.905226 0.755295 0.167594
285 1 0.826472 0.836296 0.15877
123 1 0.101986 0.835102 0.0990374
128 1 0.166557 0.916912 0.07326
122 1 0.0853124 0.908986 0.00185991
266 1 0.106427 0.923353 0.167171
7 1 0.265319 0.0180932 0.0817323
126 1 0.256016 0.941992 0.00660088
270 1 0.286981 0.914571 0.17855
9 1 0.33847 0.0105418 1.00741
11 1 0.417068 0.000503974 0.081113
132 1 0.348456 0.920246 0.0790543
274 1 0.426576 0.911813 0.153184
157 1 0.498471 0.00298316 0.165453
161 1 0.655945 0.00167302 0.15714
136 1 0.498353 0.909005 0.0840643
278 1 0.573794 0.931267 0.162454
134 1 0.581894 0.918543 0.995207
140 1 0.658553 0.91588 0.0753574
138 1 0.74704 0.942087 0.987999
141 1 0.838117 0.832649 0.994577
144 1 0.83151 0.910593 0.0763101
143 1 0.915293 0.831971 0.0789547
124 1 0.0128078 0.925028 0.0833721
146 1 0.0707694 0.109031 0.168881
148 1 0.994209 0.104923 0.255215
147 1 0.108957 0.00538526 0.234983
171 1 0.0811626 0.18729 0.247319
290 1 0.0894478 0.0975194 0.323425
149 1 0.192288 -0.00490158 0.16047
152 1 0.185851 0.100807 0.252586
175 1 0.253485 0.185662 0.263858
293 1 0.160846 1.00192 0.322847
294 1 0.262923 0.0918498 0.332632
154 1 0.416244 0.09949 0.165647
321 1 0.340714 0.160538 0.351808
156 1 0.342219 0.108552 0.251845
179 1 0.418859 0.1756 0.256522
160 1 0.501891 0.0882327 0.254096
155 1 0.423071 0.00724971 0.237221
298 1 0.417094 0.0735445 0.331619
158 1 0.579092 0.0739348 0.16169
164 1 0.671302 0.0923172 0.23292
305 1 0.667732 -0.00889952 0.312005
183 1 0.586664 0.169169 0.234996
159 1 0.587721 0.00428126 0.241982
189 1 0.852336 0.162042 0.154318
306 1 0.742026 0.0800122 0.324092
163 1 0.742169 0.00346351 0.237932
309 1 0.829243 0.99161 0.316935
145 1 0.00824164 0.0130331 0.171159
168 1 0.834912 0.0839076 0.239058
166 1 0.921574 0.0788192 0.172067
167 1 0.921889 0.00217633 0.24986
165 1 0.838513 -0.0051433 0.171833
313 1 0.979266 0.183513 0.332588
195 1 0.0695081 0.328249 0.260402
176 1 0.159729 0.264949 0.264569
172 1 0.989722 0.260832 0.236962
337 1 1.00381 0.337861 0.339307
174 1 0.248126 0.260671 0.16387
180 1 0.341786 0.240538 0.279338
199 1 0.254236 0.315353 0.263462
318 1 0.243494 0.247873 0.347175
345 1 0.33954 0.333239 0.345394
205 1 0.500166 0.320951 0.183938
178 1 0.431075 0.249326 0.168878
325 1 0.5075 0.171849 0.322462
322 1 0.422717 0.249406 0.352353
182 1 0.587022 0.267511 0.159131
185 1 0.68377 0.173537 0.165031
184 1 0.516363 0.245617 0.25556
329 1 0.676858 0.167362 0.342974
326 1 0.609349 0.25366 0.343729
207 1 0.601796 0.333414 0.264198
353 1 0.676905 0.346373 0.355167
188 1 0.675123 0.256642 0.245051
186 1 0.766635 0.249687 0.177183
187 1 0.751179 0.166381 0.250484
211 1 0.731238 0.345164 0.25905
213 1 0.839341 0.343228 0.156994
192 1 0.843017 0.262688 0.249715
191 1 0.916939 0.18355 0.251297
333 1 0.826853 0.163701 0.319927
334 1 0.913977 0.277754 0.334873
196 1 0.00432947 0.42479 0.240271
365 1 0.171068 0.501759 0.33118
200 1 0.177503 0.412226 0.250592
204 1 0.338166 0.408414 0.2565
203 1 0.432386 0.331955 0.266232
349 1 0.514775 0.311556 0.345603
346 1 0.417479 0.415923 0.348018
208 1 0.502982 0.407663 0.265192
212 1 0.669891 0.428984 0.268779
354 1 0.753097 0.412862 0.348462
235 1 0.754698 0.517302 0.237541
215 1 0.922158 0.349724 0.235761
216 1 0.831244 0.434307 0.247329
239 1 0.909603 0.489358 0.24371
357 1 0.830491 0.351167 0.320092
219 1 0.102536 0.502329 0.241964
224 1 0.178865 0.577647 0.234232
362 1 0.0859609 0.587006 0.321479
223 1 0.262395 0.490993 0.214233
247 1 0.245879 0.667478 0.231807
369 1 0.33065 0.486631 0.34801
366 1 0.248225 0.592288 0.308907
227 1 0.417561 0.483944 0.265178
373 1 0.515478 0.489318 0.34704
228 1 0.346209 0.570584 0.262376
232 1 0.503959 0.580333 0.261149
251 1 0.426738 0.66605 0.264735
231 1 0.601422 0.510125 0.246721
255 1 0.590129 0.667229 0.252245
236 1 0.670971 0.591496 0.240262
259 1 0.763209 0.666515 0.238447
261 1 0.845463 0.668073 0.150734
220 1 -0.00502497 0.585828 0.232698
240 1 0.828668 0.592903 0.231511
382 1 0.914363 0.577549 0.326591
243 1 0.0849544 0.658929 0.234716
389 1 0.16663 0.664935 0.316501
386 1 0.0850948 0.741455 0.320035
244 1 -0.00571038 0.746321 0.226882
246 1 0.269415 0.756589 0.170087
248 1 0.156658 0.753939 0.234597
390 1 0.258143 0.746039 0.330153
271 1 0.2591 0.826824 0.254695
277 1 0.494992 0.822137 0.155441
252 1 0.351903 0.742611 0.250711
394 1 0.433912 0.759957 0.345562
273 1 0.359259 0.82387 0.157629
275 1 0.438982 0.830536 0.256239
254 1 0.586448 0.746072 0.165425
256 1 0.507589 0.741175 0.252338
398 1 0.577962 0.73641 0.355892
260 1 0.673599 0.752807 0.237309
281 1 0.683202 0.838031 0.150188
258 1 0.752125 0.755023 0.151172
402 1 0.745398 0.744411 0.324421
241 1 1.0122 0.667867 0.144125
263 1 0.91361 0.673801 0.242957
264 1 0.829791 0.761734 0.250701
287 1 0.918968 0.836451 0.245604
267 1 0.0843158 0.845333 0.249742
269 1 0.194187 0.866915 0.161905
410 1 0.0850337 0.930192 0.318409
413 1 0.167588 0.826078 0.321084
151 1 0.258579 -0.0029808 0.262385
417 1 0.33958 0.822178 0.323791
272 1 0.184861 0.915512 0.261901
414 1 0.252729 0.913412 0.351573
276 1 0.354475 0.904052 0.248128
280 1 0.494773 0.9242 0.237142
279 1 0.588188 0.83821 0.242607
283 1 0.747615 0.848626 0.252989
282 1 0.74214 0.929512 0.15495
284 1 0.662188 0.908576 0.22983
426 1 0.752923 0.929488 0.324066
265 1 -0.0068199 0.834576 0.164003
288 1 0.823174 0.911127 0.235634
286 1 0.908914 0.91684 0.163396
268 1 1.34085e-05 0.922891 0.241353
409 1 0.00647329 0.824488 0.3132
289 1 0.00439978 0.993366 0.327803
315 1 0.0885007 0.156102 0.413636
292 1 1.0086 0.0903168 0.404683
434 1 0.0775309 0.0828035 0.500994
433 1 0.996044 0.998251 0.493651
296 1 0.168028 0.0868868 0.405749
319 1 0.244632 0.169211 0.426018
438 1 0.255696 0.0720893 0.489835
300 1 0.350162 0.0750877 0.415081
442 1 0.415827 0.0824501 0.496602
441 1 0.33813 0.00418183 0.497991
302 1 0.59172 0.0913997 0.3228
304 1 0.507431 0.0831324 0.386312
308 1 0.670689 0.0822137 0.413231
446 1 0.59495 0.0749663 0.490408
331 1 0.75978 0.173077 0.421868
307 1 0.727535 0.988546 0.408271
449 1 0.67418 0.999284 0.510037
450 1 0.755946 0.0800549 0.489741
312 1 0.812551 0.0587337 0.402941
310 1 0.916212 0.0843673 0.328295
454 1 0.915077 0.0788403 0.497806
453 1 0.835181 0.998056 0.495019
457 1 -0.00257549 0.156298 0.49793
314 1 0.0657082 0.245662 0.358338
339 1 0.0808749 0.332784 0.420594
320 1 0.169354 0.266045 0.422698
317 1 0.157294 0.182673 0.327143
465 1 0.332458 0.161279 0.503436
324 1 0.331561 0.236689 0.421093
341 1 0.176109 0.333217 0.337425
462 1 0.247907 0.247215 0.508961
323 1 0.431679 0.159092 0.416311
347 1 0.423237 0.350119 0.438423
466 1 0.42655 0.248613 0.494352
328 1 0.521977 0.236546 0.422075
489 1 0.332383 0.322533 0.505965
469 1 0.508499 0.141781 0.479477
327 1 0.604694 0.171645 0.422219
351 1 0.587695 0.325539 0.429891
332 1 0.686306 0.253122 0.422502
473 1 0.679461 0.170715 0.503872
470 1 0.581893 0.241093 0.519915
330 1 0.747755 0.256909 0.337973
336 1 0.835983 0.256408 0.412324
474 1 0.764297 0.257822 0.512163
477 1 0.826485 0.162588 0.517717
316 1 0.990671 0.232903 0.435435
335 1 0.895193 0.164016 0.413885
478 1 0.892905 0.242411 0.504393
501 1 0.834815 0.342712 0.50628
359 1 0.919802 0.328413 0.428017
338 1 0.0868269 0.422496 0.340372
361 1 1.00786 0.501267 0.333726
344 1 0.165596 0.401106 0.427636
340 1 0.996253 0.414782 0.415247
509 1 0.160533 0.490018 0.50507
342 1 0.249465 0.417009 0.336179
343 1 0.262031 0.332466 0.42083
348 1 0.337628 0.411764 0.436101
513 1 0.325482 0.495586 0.517735
367 1 0.239881 0.492959 0.428525
493 1 0.517286 0.318542 0.5027
352 1 0.508331 0.421908 0.427531
371 1 0.413909 0.497452 0.426134
497 1 0.666673 0.323294 0.507937
350 1 0.589016 0.402897 0.349906
356 1 0.672599 0.415305 0.439572
355 1 0.755897 0.334645 0.42407
379 1 0.748411 0.498114 0.413794
377 1 0.657048 0.501006 0.346071
381 1 0.824228 0.498525 0.329868
481 1 0.990052 0.332725 0.509598
360 1 0.8294 0.422564 0.417206
358 1 0.913828 0.424226 0.329323
502 1 0.913571 0.414741 0.499832
363 1 0.0811742 0.490233 0.421598
364 1 0.00870901 0.59483 0.401959
387 1 0.0796283 0.672829 0.403983
506 1 0.0728634 0.571358 0.485439
393 1 0.33404 0.655724 0.340381
368 1 0.150318 0.588546 0.407634
510 1 0.246236 0.585221 0.489215
391 1 0.261635 0.660243 0.406862
370 1 0.421035 0.579565 0.353217
372 1 0.332243 0.571754 0.42162
395 1 0.409689 0.668823 0.42635
376 1 0.510736 0.579804 0.42946
374 1 0.590088 0.586588 0.343057
375 1 0.585428 0.500326 0.421852
399 1 0.599958 0.663888 0.42551
380 1 0.673138 0.57979 0.42725
401 1 0.668696 0.655041 0.328362
378 1 0.74541 0.589785 0.324071
384 1 0.826519 0.589531 0.400747
405 1 0.833472 0.680046 0.319343
383 1 0.929382 0.500703 0.409217
530 1 0.0829535 0.755895 0.480921
388 1 1.00869 0.765719 0.401337
411 1 0.0903327 0.829648 0.396699
392 1 0.161826 0.743594 0.393233
396 1 0.330995 0.753643 0.411739
538 1 0.414662 0.74305 0.50049
419 1 0.40774 0.836758 0.420482
397 1 0.505019 0.657886 0.352288
421 1 0.518005 0.834563 0.3361
400 1 0.500295 0.76194 0.427558
404 1 0.673731 0.74072 0.415639
423 1 0.589272 0.83211 0.406621
403 1 0.750095 0.665882 0.391734
429 1 0.82881 0.846552 0.330303
408 1 0.832167 0.752322 0.403292
427 1 0.730073 0.829966 0.393482
385 1 0.00218006 0.668504 0.313934
407 1 0.918513 0.667226 0.405587
406 1 0.924067 0.748936 0.336255
431 1 0.930807 0.832468 0.399201
553 1 0.010892 0.836693 0.492266
291 1 0.0772537 1.00938 0.405469
412 1 0.00520828 0.919317 0.4125
554 1 0.079731 0.921776 0.500599
415 1 0.242883 0.829877 0.407489
295 1 0.233058 0.0018993 0.403525
416 1 0.161994 0.913223 0.401571
437 1 0.148637 0.00895876 0.483012
297 1 0.327888 1.00614 0.34142
299 1 0.433671 -0.00233601 0.41623
420 1 0.341883 0.911926 0.40783
418 1 0.428013 0.913487 0.330987
424 1 0.512909 0.905753 0.412689
301 1 0.505468 0.994279 0.323888
422 1 0.576806 0.919014 0.320517
303 1 0.578694 0.992796 0.421449
569 1 0.666913 0.838901 0.488357
566 1 0.583285 0.924793 0.499504
425 1 0.667219 0.838019 0.322643
573 1 0.828549 0.844447 0.488522
428 1 0.654812 0.911695 0.406203
432 1 0.816746 0.919681 0.4034
430 1 0.913801 0.9163 0.325044
311 1 0.923404 -0.00144914 0.405248
574 1 0.911482 0.914844 0.481475
578 1 0.078044 0.0739715 0.664276
436 1 -0.00229853 0.081921 0.579838
461 1 0.166672 0.166679 0.501476
440 1 0.150964 0.0905051 0.581435
463 1 0.253414 0.152152 0.576606
582 1 0.24623 0.0830082 0.661511
439 1 0.229984 0.0060751 0.571415
444 1 0.320458 0.075345 0.581911
467 1 0.408474 0.158606 0.582625
585 1 0.316579 1.00488 0.668293
445 1 0.510079 1.00545 0.506962
448 1 0.480561 0.0727867 0.581982
447 1 0.589445 0.00475964 0.579115
452 1 0.679839 0.0827664 0.577716
593 1 0.668648 0.989675 0.661476
590 1 0.58066 0.078082 0.666525
451 1 0.756319 0.00554753 0.587184
594 1 0.738488 0.0884295 0.671582
456 1 0.8417 0.0708053 0.58298
455 1 0.935446 -0.00947648 0.58029
597 1 0.859359 1.00415 0.665375
598 1 0.928389 0.0871436 0.671369
458 1 0.0876692 0.245057 0.497223
459 1 0.0832214 0.170395 0.57907
460 1 0.998231 0.238197 0.575797
464 1 0.168057 0.244095 0.591525
485 1 0.154008 0.324906 0.515354
487 1 0.251401 0.334248 0.594985
606 1 0.249294 0.243347 0.661614
468 1 0.340296 0.245711 0.575502
491 1 0.416797 0.327957 0.584597
610 1 0.42214 0.235725 0.659069
471 1 0.590096 0.148402 0.58183
472 1 0.490937 0.228954 0.573332
476 1 0.675148 0.241456 0.585555
495 1 0.587635 0.340032 0.591609
475 1 0.760092 0.165256 0.599602
617 1 0.674763 0.172884 0.665459
641 1 0.665709 0.323285 0.663448
618 1 0.752276 0.254199 0.669814
499 1 0.76427 0.329636 0.589578
479 1 0.914155 0.162673 0.587831
480 1 0.844676 0.23984 0.610563
503 1 0.914498 0.327304 0.586046
622 1 0.931033 0.257081 0.664686
483 1 0.0742243 0.320545 0.609432
482 1 0.0816909 0.414493 0.503592
484 1 0.993709 0.420579 0.583495
507 1 0.0821072 0.507532 0.578005
625 1 -0.00608273 0.340526 0.684846
486 1 0.24197 0.40797 0.498848
488 1 0.166413 0.409159 0.600205
490 1 0.414636 0.428561 0.523726
492 1 0.32693 0.403634 0.582143
515 1 0.427061 0.500443 0.595737
517 1 0.500687 0.497531 0.504305
496 1 0.503133 0.407536 0.599206
494 1 0.576383 0.406111 0.501473
519 1 0.580047 0.496912 0.578345
638 1 0.594442 0.426715 0.666031
525 1 0.842442 0.507367 0.499745
498 1 0.759971 0.41693 0.509137
500 1 0.67372 0.409935 0.592966
523 1 0.761536 0.489559 0.582946
645 1 0.838877 0.333092 0.67224
504 1 0.846472 0.421665 0.594922
646 1 0.929982 0.416102 0.671498
527 1 0.922734 0.511511 0.580737
669 1 0.843022 0.514976 0.649486
505 1 0.994222 0.500396 0.489076
529 1 0.000306888 0.674772 0.488379
531 1 0.088807 0.663598 0.570792
533 1 0.169403 0.674341 0.491126
512 1 0.182728 0.5913 0.568523
511 1 0.233508 0.490764 0.582954
516 1 0.342641 0.580608 0.596641
681 1 0.339306 0.665598 0.657677
514 1 0.403774 0.567587 0.506875
539 1 0.426201 0.666331 0.598258
541 1 0.502969 0.673569 0.488447
521 1 0.66817 0.499732 0.503566
520 1 0.496369 0.590611 0.580562
518 1 0.583092 0.579314 0.504246
524 1 0.667101 0.592747 0.580595
522 1 0.749846 0.596111 0.500579
545 1 0.680754 0.67189 0.502985
549 1 0.838559 0.665027 0.482518
547 1 0.767554 0.681782 0.575368
508 1 1.00721 0.595769 0.576335
673 1 1.0028 0.680914 0.651023
526 1 0.921284 0.58216 0.486129
528 1 0.848412 0.602364 0.565115
670 1 0.917395 0.60388 0.655306
532 1 0.0193239 0.751708 0.566022
536 1 0.158771 0.750936 0.567934
555 1 0.0850956 0.838784 0.58569
557 1 0.164902 0.82926 0.48178
534 1 0.261186 0.733859 0.492318
535 1 0.241275 0.673588 0.581269
559 1 0.238688 0.830586 0.569082
537 1 0.326049 0.641022 0.509574
561 1 0.330715 0.836894 0.492877
540 1 0.331225 0.741769 0.56677
544 1 0.516086 0.754159 0.573371
705 1 0.320733 0.855793 0.662347
543 1 0.585571 0.675813 0.575199
542 1 0.598824 0.758666 0.496674
686 1 0.582497 0.771111 0.660503
567 1 0.592915 0.842434 0.569375
565 1 0.500438 0.835118 0.506749
709 1 0.483957 0.828636 0.668914
548 1 0.670974 0.753719 0.596265
546 1 0.748527 0.763728 0.501489
690 1 0.759245 0.762972 0.669868
550 1 0.92043 0.753215 0.478035
551 1 0.934887 0.686924 0.556543
552 1 0.853578 0.75721 0.577162
694 1 0.912566 0.766105 0.664557
577 1 0.00999677 -0.0210873 0.655548
435 1 0.0923675 -0.00757157 0.586528
698 1 0.099539 0.926624 0.673909
558 1 0.259247 0.933602 0.477143
560 1 0.17433 0.920712 0.538799
581 1 0.178574 -0.0039325 0.66375
702 1 0.217854 0.888362 0.66848
562 1 0.427572 0.92098 0.493954
443 1 0.400573 -0.00599336 0.574356
563 1 0.411474 0.825963 0.574693
564 1 0.31666 0.914466 0.564971
706 1 0.414612 0.905322 0.652559
568 1 0.502644 0.920339 0.58067
572 1 0.678222 0.913465 0.577654
710 1 0.589533 0.920461 0.657473
570 1 0.744398 0.917253 0.495262
571 1 0.753757 0.828769 0.580898
717 1 0.83018 0.846137 0.665738
576 1 0.842504 0.913291 0.583203
714 1 0.754873 0.925301 0.656394
697 1 1.01411 0.845667 0.655365
575 1 0.935985 0.833587 0.562759
556 1 0.00478492 0.909313 0.577763
718 1 0.918338 0.914846 0.6526
584 1 0.167399 0.079764 0.758968
580 1 0.00759972 0.0892044 0.743648
579 1 0.0872103 0.0094039 0.757143
603 1 0.0906797 0.159685 0.754447
749 1 0.164543 0.169885 0.842255
722 1 0.0894841 0.0738108 0.849165
605 1 0.158665 0.152471 0.663639
609 1 0.328181 0.171584 0.672883
607 1 0.251794 0.156496 0.748344
588 1 0.330505 0.081704 0.75036
583 1 0.263996 0.980169 0.751942
753 1 0.331959 0.17823 0.832289
586 1 0.398441 0.0864532 0.661629
587 1 0.418931 1.00351 0.723653
611 1 0.407496 0.162744 0.750315
730 1 0.416355 0.0943397 0.828061
592 1 0.495012 0.0701476 0.750281
734 1 0.583381 0.0740185 0.833655
615 1 0.596345 0.158314 0.749698
596 1 0.646617 0.069238 0.749174
619 1 0.766357 0.168152 0.739847
595 1 0.756481 -0.0144766 0.737514
600 1 0.842521 0.0696643 0.747236
623 1 0.934525 0.171271 0.738142
599 1 0.92941 0.00523722 0.743435
601 1 0.00615217 0.166657 0.663514
602 1 0.0973021 0.251837 0.689418
604 1 0.0100591 0.253081 0.756115
608 1 0.179401 0.242126 0.752972
746 1 0.0956401 0.246593 0.837607
629 1 0.181276 0.328156 0.684947
750 1 0.244583 0.260947 0.839658
631 1 0.263895 0.35184 0.764478
612 1 0.322071 0.265133 0.752582
637 1 0.497918 0.312578 0.652511
613 1 0.500307 0.155809 0.670175
616 1 0.511703 0.246792 0.740956
754 1 0.413133 0.254155 0.824113
614 1 0.575005 0.236348 0.632914
639 1 0.591561 0.323415 0.738038
620 1 0.666416 0.252902 0.754393
643 1 0.744341 0.334383 0.755285
621 1 0.83925 0.15088 0.674302
624 1 0.847856 0.257036 0.747444
647 1 0.917549 0.353667 0.761414
766 1 0.926759 0.255655 0.819668
626 1 0.0728353 0.424803 0.669484
649 1 -0.00489135 0.505536 0.662984
627 1 0.0773828 0.34343 0.760142
653 1 0.156299 0.49691 0.667969
651 1 0.0838939 0.494907 0.751792
770 1 0.0823737 0.418115 0.853868
633 1 0.329055 0.320845 0.662423
630 1 0.253264 0.416482 0.679253
773 1 0.152778 0.331802 0.837712
632 1 0.173024 0.423335 0.749068
636 1 0.339472 0.425014 0.756097
774 1 0.252493 0.43769 0.831989
657 1 0.315811 0.497992 0.667062
634 1 0.394007 0.418247 0.666458
635 1 0.428358 0.3213 0.739354
659 1 0.409235 0.501252 0.742863
640 1 0.502942 0.39683 0.714218
661 1 0.506086 0.498363 0.665425
663 1 0.60705 0.510559 0.746736
782 1 0.604305 0.423421 0.830867
785 1 0.658712 0.320591 0.848058
805 1 0.513399 0.490239 0.810845
644 1 0.679421 0.420632 0.745868
642 1 0.760518 0.426619 0.663941
809 1 0.673773 0.508917 0.822113
667 1 0.761822 0.519348 0.735406
786 1 0.757806 0.432487 0.814431
628 1 -0.00876811 0.422447 0.769019
648 1 0.839611 0.424996 0.743882
790 1 0.897102 0.437758 0.832568
671 1 0.907676 0.511052 0.738457
793 1 1.01544 0.510841 0.835796
650 1 0.0971089 0.588134 0.647036
797 1 0.153342 0.497162 0.823762
794 1 0.0738438 0.588111 0.832285
654 1 0.255057 0.591627 0.661012
655 1 0.241309 0.507196 0.747932
656 1 0.163235 0.579329 0.738265
660 1 0.32435 0.568473 0.745567
658 1 0.421694 0.587543 0.674257
683 1 0.427155 0.663883 0.743487
685 1 0.510272 0.673836 0.665619
664 1 0.511143 0.59507 0.755858
662 1 0.577269 0.588591 0.659305
806 1 0.5963 0.591945 0.831259
668 1 0.669841 0.598065 0.745185
665 1 0.673583 0.52068 0.663879
666 1 0.767647 0.59664 0.653516
689 1 0.656144 0.665188 0.663454
691 1 0.751937 0.669917 0.732194
813 1 0.838478 0.519016 0.825707
810 1 0.761427 0.596717 0.821787
652 1 1.02039 0.583046 0.7266
672 1 0.842468 0.597284 0.752243
695 1 0.924588 0.685302 0.737337
814 1 0.9245 0.589942 0.839139
674 1 0.0865488 0.738915 0.66535
677 1 0.172766 0.674854 0.665248
675 1 0.081815 0.670796 0.759529
818 1 0.104677 0.769642 0.831516
680 1 0.15962 0.741476 0.747191
821 1 0.181689 0.66032 0.828419
679 1 0.260104 0.6697 0.757876
701 1 0.166201 0.808711 0.653304
678 1 0.247468 0.747859 0.666934
822 1 0.259188 0.743377 0.837006
684 1 0.347446 0.734992 0.758175
682 1 0.395469 0.761555 0.663196
826 1 0.414421 0.745245 0.846339
707 1 0.419066 0.830923 0.750236
687 1 0.578462 0.673862 0.742922
688 1 0.48926 0.748847 0.761116
711 1 0.567633 0.843068 0.743715
853 1 0.495038 0.824625 0.835503
829 1 0.496079 0.678449 0.830897
833 1 0.677392 0.676681 0.839364
857 1 0.670272 0.823726 0.813696
692 1 0.665672 0.753669 0.734147
696 1 0.841147 0.746109 0.74756
834 1 0.755312 0.761428 0.835858
693 1 0.842893 0.687547 0.653571
676 1 0.00719661 0.749947 0.742898
837 1 0.836119 0.673148 0.82225
838 1 0.93186 0.761202 0.822309
699 1 0.102071 0.834127 0.738439
845 1 0.185286 0.841849 0.839009
842 1 0.0849449 0.930218 0.828509
704 1 0.172532 0.927966 0.763324
703 1 0.254677 0.819736 0.743962
725 1 0.184575 1.00782 0.846992
846 1 0.262147 0.908802 0.83527
708 1 0.337291 0.900563 0.751856
729 1 0.3397 0.0115876 0.836865
849 1 0.342708 0.816498 0.832484
733 1 0.493185 0.993571 0.8224
589 1 0.512982 0.996602 0.657872
712 1 0.491557 0.919207 0.743164
591 1 0.584758 0.988409 0.749765
854 1 0.576457 0.91015 0.829729
713 1 0.676941 0.836946 0.666658
715 1 0.767462 0.862142 0.75252
716 1 0.667092 0.918028 0.742435
720 1 0.858887 0.923108 0.766138
858 1 0.757637 0.920087 0.840977
719 1 0.923534 0.843652 0.745312
700 1 0.0143326 0.919094 0.733339
862 1 0.952598 0.918716 0.822082
745 1 0.00953523 0.168244 0.835125
728 1 0.170702 0.0925579 0.918559
747 1 0.0770835 0.176671 0.912356
723 1 0.101746 0.995141 0.923825
6 1 0.246775 0.0926545 -0.00231961
726 1 0.258197 0.0877104 0.839652
751 1 0.241492 0.17632 0.901
732 1 0.351029 0.080341 0.917138
10 1 0.421381 0.0848488 0.00895112
736 1 0.488435 0.0736396 0.909101
755 1 0.42682 0.176546 0.916995
17 1 0.662797 0.999129 -0.00252896
757 1 0.499022 0.171074 0.81168
13 1 0.489449 -0.0016277 0.999208
759 1 0.576538 0.155707 0.89595
21 1 0.831766 0.00906451 0.989118
738 1 0.760415 0.0641406 0.81624
741 1 0.862264 0.992083 0.839986
740 1 0.662321 0.100332 0.906238
744 1 0.828006 0.0862326 0.897396
763 1 0.757416 0.164683 0.908609
737 1 0.657656 0.996675 0.836147
742 1 0.917696 0.105066 0.823659
721 1 -0.00363417 0.00646191 0.825644
765 1 0.837729 0.175552 0.82997
22 1 0.906786 0.0793732 0.986539
724 1 1.00278 0.0886564 0.911292
767 1 0.919161 0.169714 0.91007
743 1 0.933281 0.981004 0.924281
26 1 0.0748619 0.246966 -0.00244561
53 1 0.175225 0.329908 1.00643
771 1 0.0849801 0.32349 0.920241
30 1 0.243548 0.237663 -0.00278386
752 1 0.166341 0.24371 0.926484
775 1 0.265064 0.33902 0.933113
756 1 0.33879 0.268306 0.915547
61 1 0.497585 0.329288 0.998064
781 1 0.525381 0.35018 0.828768
758 1 0.578155 0.248466 0.839728
38 1 0.575802 0.244454 0.987571
760 1 0.487222 0.256361 0.917574
762 1 0.758388 0.252578 0.819787
789 1 0.840005 0.337495 0.82728
761 1 0.691418 0.152635 0.809652
764 1 0.663089 0.238719 0.912279
65 1 0.686786 0.331733 -0.00280404
787 1 0.752708 0.320661 0.904347
49 1 -0.000579976 0.323984 0.999619
748 1 1.00164 0.250744 0.921278
768 1 0.826527 0.24472 0.917936
69 1 0.82313 0.32813 0.988571
791 1 0.906844 0.326191 0.918685
50 1 0.0734241 0.410234 -0.0179841
769 1 0.998434 0.345528 0.857991
795 1 0.0890423 0.496653 0.924884
801 1 0.348617 0.504773 0.829626
777 1 0.352248 0.338015 0.822823
776 1 0.177884 0.41706 0.914734
780 1 0.332862 0.422477 0.899856
778 1 0.429053 0.420948 0.809865
779 1 0.421709 0.350927 0.895777
58 1 0.434705 0.41201 0.00125469
81 1 0.349405 0.473599 -0.00813039
803 1 0.428877 0.487869 0.905823
784 1 0.520374 0.428107 0.930168
783 1 0.586219 0.333081 0.918349
85 1 0.50237 0.501337 0.00170225
62 1 0.611235 0.409763 0.992092
807 1 0.585163 0.503152 0.902171
788 1 0.681747 0.409545 0.908288
89 1 0.683035 0.49716 0.990907
66 1 0.75784 0.424527 0.98391
811 1 0.759569 0.502897 0.899906
73 1 0.990467 0.501891 0.989867
772 1 0.992421 0.436768 0.915764
792 1 0.831611 0.410768 0.907054
74 1 0.0928312 0.587283 0.995042
97 1 0.0112178 0.658913 0.987847
77 1 0.178824 0.503573 0.00448611
800 1 0.16909 0.589474 0.913253
101 1 0.16756 0.668972 0.00514527
819 1 0.0854903 0.672166 0.902668
78 1 0.251614 0.581866 0.000561061
798 1 0.257644 0.582576 0.833984
799 1 0.254658 0.501877 0.919438
82 1 0.422005 0.564695 0.980595
804 1 0.332336 0.573684 0.92409
802 1 0.430647 0.585105 0.82223
808 1 0.508529 0.579507 0.911866
827 1 0.424916 0.655508 0.919393
86 1 0.597945 0.564582 -0.000357956
812 1 0.670652 0.583663 0.911672
90 1 0.750387 0.57887 0.99265
815 1 0.901477 0.511292 0.915392
816 1 0.83116 0.587207 0.920894
796 1 -0.00165533 0.589952 0.917677
839 1 0.912453 0.667586 0.920315
817 1 1.00246 0.670177 0.83455
98 1 0.0847909 0.765607 0.982932
824 1 0.170688 0.757928 0.912305
105 1 0.32889 0.656951 0.997668
102 1 0.248004 0.747392 -0.00243039
823 1 0.253614 0.653573 0.919889
106 1 0.412145 0.732828 0.99381
129 1 0.340754 0.819254 -0.0194264
825 1 0.348209 0.650047 0.839227
828 1 0.340966 0.728882 0.913147
851 1 0.424258 0.834722 0.914632
109 1 0.502024 0.668618 -0.00220331
113 1 0.668683 0.660091 1.00037
133 1 0.507914 0.832764 0.99963
830 1 0.585243 0.754446 0.821851
831 1 0.598767 0.660431 0.914836
832 1 0.520349 0.742617 0.913534
855 1 0.581166 0.825502 0.909276
835 1 0.756032 0.671493 0.917627
836 1 0.671149 0.74617 0.918512
840 1 0.842425 0.755786 0.901088
820 1 0.00846751 0.769812 0.898218
118 1 0.907206 0.747277 0.98601
125 1 0.171584 0.844178 -0.00966504
5 1 0.168914 0.0145709 1.00927
1 1 0.00494493 1.00025 1.00527
841 1 0.0228075 0.84634 0.812632
843 1 0.104288 0.850863 0.911854
848 1 0.191923 0.922028 0.91448
121 1 0.993989 0.835563 0.996472
727 1 0.260058 0.00359621 0.9105
847 1 0.251639 0.828055 0.92122
852 1 0.331919 0.910351 0.921294
850 1 0.426509 0.901564 0.832363
731 1 0.414341 0.988315 0.911674
130 1 0.416146 0.917654 0.997713
735 1 0.584828 0.00891967 0.926722
856 1 0.503037 0.914913 0.921591
860 1 0.66134 0.92176 0.904832
861 1 0.843778 0.839492 0.837167
739 1 0.741541 0.00915667 0.908955
859 1 0.758034 0.819662 0.92402
864 1 0.839215 0.916796 0.928843
863 1 0.917314 0.829232 0.914363
844 1 0.01657 0.919049 0.914035
142 1 0.924171 0.91786 1.01764
