ITEM: TIMESTEP
500
ITEM: NUMBER OF ATOMS
864
ITEM: BOX BOUNDS pp pp pp
0.0000000000000000e+00 3.1559999999999999e+01
0.0000000000000000e+00 3.1559999999999999e+01
0.0000000000000000e+00 3.1559999999999999e+01
ITEM: ATOMS id type xs ys zs
266 1 0.0878787 0.414046 0.482296
286 1 0.911736 0.409859 0.499523
273 1 0.335073 0.336878 0.498327
4 1 0.989359 0.084602 0.0777793
46 1 0.940452 0.256156 0.00082745
517 1 0.504265 0.497386 0.149089
216 1 0.836296 0.418766 0.412779
8 1 0.169459 0.0767898 0.07501
242 1 0.0853768 0.248258 0.490517
85 1 0.514364 0.00181399 0.178298
215 1 0.937709 0.341035 0.402649
12 1 0.34341 0.0911963 0.0769582
159 1 0.580087 0.0104876 0.415118
589 1 0.501021 0.494233 0.329692
214 1 0.912535 0.425274 0.336675
16 1 0.500501 0.0765548 0.0848683
213 1 0.835248 0.338842 0.338287
225 1 0.321739 0.00503338 0.488887
278 1 0.591263 0.410498 0.490542
20 1 0.670953 0.0721988 0.067891
212 1 0.676171 0.413928 0.414513
149 1 0.169279 0.00408293 0.327403
211 1 0.752149 0.327452 0.417812
24 1 0.826493 0.0720731 0.0793024
229 1 0.48871 0.0165928 0.495222
270 1 0.25301 0.418232 0.497297
27 1 0.0872224 0.157718 0.0855639
28 1 0.0151946 0.247788 0.0817795
521 1 0.673637 0.499027 0.163021
515 1 0.421486 0.498382 0.238375
31 1 0.23065 0.161801 0.0791237
32 1 0.153733 0.253864 0.0898459
57 1 0.312031 0.334515 0.00474709
163 1 0.750849 0.00112888 0.430464
35 1 0.42611 0.161138 0.105691
36 1 0.32357 0.23654 0.086629
234 1 0.743824 0.0827309 0.49881
455 1 0.916618 0.49267 0.086688
39 1 0.577441 0.179111 0.0884324
40 1 0.502918 0.256439 0.0669556
653 1 0.178559 0.499373 0.493909
70 1 0.918155 0.411112 0.00460022
43 1 0.743511 0.160865 0.0708204
44 1 0.682156 0.245943 0.0849615
269 1 0.175655 0.322393 0.499693
45 1 0.855311 0.184249 0.00947128
47 1 0.926681 0.161481 0.0822239
48 1 0.837384 0.247919 0.0918396
155 1 0.404894 0.0116661 0.405764
254 1 0.587579 0.246655 0.485235
51 1 0.088975 0.339943 0.0784781
52 1 0.00328205 0.406908 0.0907867
669 1 0.840036 0.498779 0.498876
585 1 0.343354 0.493895 0.336587
55 1 0.23789 0.329809 0.0821471
56 1 0.170533 0.424916 0.0827809
161 1 0.672019 0.00967793 0.339153
199 1 0.256136 0.341411 0.401494
59 1 0.414268 0.328765 0.0660051
60 1 0.321886 0.419323 0.0781551
198 1 0.25689 0.42519 0.328886
197 1 0.174936 0.341179 0.341495
63 1 0.617211 0.337561 0.0804657
64 1 0.498463 0.415027 0.0807524
599 1 0.913618 0.491629 0.425541
196 1 0.00158294 0.440564 0.417807
67 1 0.766436 0.340426 0.093481
68 1 0.685903 0.424831 0.0890784
95 1 0.919047 0.000439765 0.254331
195 1 0.0895214 0.340709 0.403846
71 1 0.921677 0.33231 0.0875583
72 1 0.843895 0.410687 0.0853332
210 1 0.7617 0.426502 0.338485
74 1 0.0939481 0.0685796 0.163537
11 1 0.422452 0.000772839 0.0865871
76 1 0.995037 0.0908548 0.254308
505 1 0.00195095 0.49806 0.164623
78 1 0.224852 0.0934625 0.163348
439 1 0.253908 0.498705 0.0907687
80 1 0.162923 0.0831495 0.253409
209 1 0.661802 0.34036 0.331675
82 1 0.419913 0.0698544 0.162419
208 1 0.512345 0.429299 0.424246
84 1 0.344019 0.0710136 0.244693
3 1 0.0834319 0.00116019 0.0795097
86 1 0.599484 0.0926863 0.155448
277 1 0.500455 0.338367 0.489836
88 1 0.520615 0.0862787 0.250996
207 1 0.589338 0.33274 0.410628
90 1 0.748449 0.0736811 0.156303
206 1 0.58762 0.431443 0.329495
92 1 0.672959 0.0949764 0.241659
151 1 0.24787 0.00648703 0.409756
94 1 0.91055 0.0732582 0.153978
205 1 0.496327 0.348665 0.338706
96 1 0.819367 0.0716803 0.24523
97 1 0.00366818 0.155626 0.158818
98 1 0.0628774 0.248128 0.181319
99 1 0.0792277 0.164199 0.261382
100 1 0.992379 0.264441 0.267466
101 1 0.149911 0.168222 0.17523
102 1 0.240256 0.245144 0.164962
103 1 0.250066 0.167918 0.247411
104 1 0.159413 0.245211 0.251893
105 1 0.323429 0.165911 0.166043
106 1 0.416543 0.261769 0.147764
107 1 0.416784 0.178818 0.237615
108 1 0.324385 0.244798 0.246304
109 1 0.513017 0.184583 0.176058
110 1 0.583763 0.267702 0.169735
111 1 0.586917 0.180257 0.25373
112 1 0.504602 0.259546 0.249171
113 1 0.671466 0.176854 0.167547
114 1 0.758122 0.253953 0.164109
115 1 0.770555 0.164443 0.229858
116 1 0.682336 0.249088 0.248942
117 1 0.82522 0.15891 0.145831
118 1 0.922947 0.247832 0.156718
119 1 0.916617 0.153505 0.217296
120 1 0.848365 0.239581 0.249109
121 1 0.998229 0.336927 0.16016
122 1 0.0947606 0.418493 0.169619
123 1 0.0835963 0.336166 0.260714
124 1 0.0149441 0.426092 0.250299
125 1 0.149499 0.332856 0.176326
126 1 0.233567 0.420855 0.176925
127 1 0.243773 0.340058 0.251183
128 1 0.163603 0.417246 0.262269
129 1 0.311717 0.32943 0.163157
130 1 0.406016 0.41102 0.162641
131 1 0.417023 0.331696 0.234804
132 1 0.339606 0.418038 0.24404
133 1 0.498651 0.332402 0.165214
134 1 0.592464 0.416183 0.155993
135 1 0.577052 0.347832 0.250354
136 1 0.499685 0.423117 0.241428
137 1 0.684503 0.336749 0.181478
138 1 0.765182 0.417342 0.184203
139 1 0.764226 0.348149 0.268444
140 1 0.66409 0.425479 0.243337
141 1 0.840951 0.324408 0.175865
142 1 0.928447 0.42016 0.171296
143 1 0.923944 0.34373 0.249082
144 1 0.840976 0.420456 0.258778
204 1 0.337374 0.408931 0.423099
146 1 0.0796497 0.0752653 0.324313
33 1 0.305949 0.171788 0.00111462
148 1 0.0155023 0.067682 0.412244
203 1 0.411565 0.321598 0.416561
150 1 0.255216 0.0764727 0.326194
69 1 0.845698 0.313748 0.00768798
152 1 0.15805 0.0744513 0.412567
7 1 0.260439 0.0109975 0.0989092
154 1 0.408764 0.0997635 0.330329
26 1 0.0991428 0.237872 0.0021544
156 1 0.326228 0.0941196 0.406128
202 1 0.41452 0.41374 0.329896
158 1 0.588799 0.0803463 0.327086
145 1 0.995293 0.00144028 0.336025
160 1 0.483197 0.0918189 0.412609
241 1 0.014937 0.155727 0.499158
162 1 0.762395 0.0996968 0.339367
201 1 0.336516 0.344695 0.326865
164 1 0.654546 0.0829149 0.423216
200 1 0.180869 0.42784 0.416467
166 1 0.910936 0.0677588 0.355646
226 1 0.402782 0.0962997 0.487866
168 1 0.831802 0.0875113 0.446613
169 1 0.989221 0.170332 0.333874
170 1 0.0832735 0.248608 0.328654
171 1 0.0859502 0.154686 0.404465
172 1 0.00660494 0.252954 0.409116
173 1 0.164171 0.157576 0.333549
174 1 0.241269 0.259984 0.333926
175 1 0.249021 0.162702 0.402889
176 1 0.161957 0.256967 0.401288
177 1 0.327823 0.170878 0.326138
178 1 0.420113 0.266014 0.32916
179 1 0.403002 0.174121 0.411519
180 1 0.330364 0.255949 0.409883
181 1 0.501665 0.170535 0.332639
182 1 0.590346 0.260795 0.324602
183 1 0.576198 0.149403 0.414946
184 1 0.504594 0.259983 0.399839
185 1 0.660964 0.165655 0.32422
186 1 0.768366 0.228139 0.326657
187 1 0.777497 0.169828 0.419049
188 1 0.667859 0.249328 0.412227
189 1 0.857618 0.167017 0.327092
190 1 0.915384 0.258397 0.337012
191 1 0.909168 0.153933 0.420347
192 1 0.847525 0.245725 0.42849
193 1 0.010853 0.361059 0.328057
194 1 0.0920114 0.433073 0.335518
222 1 0.241417 0.0873705 0.490562
265 1 0.00996718 0.3364 0.498058
230 1 0.586565 0.0741875 0.498823
451 1 0.76506 0.480748 0.072184
525 1 0.846872 0.491944 0.179285
37 1 0.515528 0.167023 0.00566529
245 1 0.163778 0.16343 0.482877
246 1 0.26295 0.253644 0.490605
253 1 0.508141 0.173356 0.489997
73 1 0.000760526 0.00423448 0.172471
250 1 0.399938 0.252173 0.495996
157 1 0.496925 0.00103617 0.318714
19 1 0.754149 0.000307518 0.0701168
657 1 0.346735 0.489176 0.499774
41 1 0.642336 0.17149 0.000304482
432 1 0.842526 0.411309 0.91399
58 1 0.411971 0.412477 0.995115
305 1 0.64989 0.000831499 0.662272
220 1 0.992904 0.0697704 0.583024
431 1 0.918644 0.332557 0.912506
14 1 0.586302 0.0779986 0.99859
361 1 0.999349 0.00453882 0.831342
224 1 0.166009 0.0817328 0.573367
428 1 0.683549 0.4062 0.906851
38 1 0.585537 0.275568 0.987377
227 1 0.404462 0.00837532 0.57704
228 1 0.326387 0.0913013 0.587322
34 1 0.409682 0.227455 0.993678
10 1 0.401046 0.0969399 0.992837
231 1 0.571362 0.00115857 0.588428
232 1 0.482655 0.0858649 0.576402
733 1 0.490105 0.490889 0.666219
281 1 0.679865 0.336448 0.500781
427 1 0.759242 0.336996 0.899149
236 1 0.665988 0.0955405 0.590404
729 1 0.338693 0.487161 0.668543
238 1 0.927821 0.0780729 0.513025
424 1 0.49607 0.420228 0.903884
240 1 0.821267 0.0722191 0.592758
723 1 0.0712114 0.498954 0.736096
667 1 0.772343 0.498507 0.592399
243 1 0.0866666 0.160042 0.578828
244 1 0.00499336 0.25501 0.580859
731 1 0.420857 0.487054 0.758864
18 1 0.74426 0.078864 0.993523
247 1 0.2434 0.160585 0.577299
248 1 0.181828 0.242661 0.568753
297 1 0.329895 0.00132254 0.660616
291 1 0.0777451 0.00582521 0.758581
251 1 0.39938 0.175972 0.583452
252 1 0.330931 0.252914 0.584634
365 1 0.169941 0.00282657 0.836393
218 1 0.0722294 0.0766513 0.511937
255 1 0.581561 0.173716 0.57356
256 1 0.4899 0.260889 0.572034
50 1 0.0816115 0.418157 0.993412
381 1 0.824988 0.00159206 0.839178
259 1 0.757846 0.165421 0.577213
260 1 0.649094 0.244015 0.596505
29 1 0.167207 0.162951 0.988365
54 1 0.252815 0.417709 0.992942
263 1 0.941795 0.175183 0.572194
264 1 0.830916 0.250738 0.577612
655 1 0.268371 0.49835 0.580012
396 1 0.315806 0.26056 0.924662
267 1 0.106651 0.338572 0.570194
268 1 0.0123207 0.409802 0.577558
395 1 0.398956 0.16531 0.904395
449 1 0.686881 0.488562 0.981702
271 1 0.246012 0.332103 0.582263
272 1 0.173175 0.42139 0.590284
392 1 0.163256 0.257062 0.903533
739 1 0.765217 0.497644 0.751206
275 1 0.414344 0.335815 0.574981
276 1 0.344354 0.41113 0.58526
391 1 0.244542 0.165377 0.901906
371 1 0.409558 0.0130593 0.92193
279 1 0.59468 0.326599 0.578176
280 1 0.489978 0.405555 0.585692
388 1 0.00155758 0.25465 0.906368
387 1 0.0937458 0.172543 0.910907
283 1 0.754159 0.327077 0.583947
284 1 0.673421 0.397694 0.58099
384 1 0.83474 0.0772898 0.922449
453 1 0.848148 0.494819 0.994379
287 1 0.928229 0.336972 0.582607
288 1 0.838153 0.406034 0.576456
22 1 0.925701 0.0879254 0.991118
290 1 0.0718801 0.0720659 0.669713
423 1 0.60242 0.326154 0.900769
292 1 0.990681 0.0828024 0.746585
420 1 0.330622 0.421112 0.913579
362 1 0.0874183 0.0891254 0.833823
419 1 0.400667 0.317045 0.932813
294 1 0.24304 0.0787869 0.666603
261 1 0.849491 0.165384 0.518678
296 1 0.166338 0.0745056 0.757315
805 1 0.505562 0.494637 0.827394
366 1 0.254267 0.0832759 0.827434
416 1 0.160044 0.427207 0.917977
298 1 0.42148 0.104414 0.653618
301 1 0.484676 0.00748115 0.658294
300 1 0.334209 0.0816615 0.727381
415 1 0.240807 0.342322 0.920247
370 1 0.404081 0.097269 0.82746
412 1 0.00390933 0.418385 0.902389
302 1 0.570704 0.102647 0.681284
303 1 0.5645 0.00588309 0.755739
304 1 0.484636 0.0818663 0.746974
411 1 0.0920799 0.342267 0.902833
374 1 0.586438 0.0975389 0.820871
249 1 0.325162 0.167913 0.501201
306 1 0.75256 0.0681552 0.681968
408 1 0.844225 0.246791 0.91858
308 1 0.660241 0.0770517 0.741335
407 1 0.928948 0.165626 0.922986
378 1 0.753319 0.0885686 0.821263
404 1 0.683497 0.252503 0.919595
310 1 0.912499 0.0949482 0.652778
735 1 0.588612 0.498278 0.754468
312 1 0.859605 0.0952159 0.741948
403 1 0.765833 0.17477 0.913566
382 1 0.913705 0.0720736 0.833641
313 1 0.0067435 0.15865 0.662306
314 1 0.0882176 0.254167 0.656634
315 1 0.0830538 0.164603 0.74401
316 1 0.00511986 0.257053 0.743803
385 1 0.00408039 0.17647 0.833359
386 1 0.0815398 0.257902 0.819392
317 1 0.145468 0.154624 0.661603
318 1 0.236671 0.24819 0.658138
319 1 0.238956 0.166718 0.739014
320 1 0.157788 0.256952 0.739881
389 1 0.165246 0.16846 0.821318
390 1 0.239846 0.258885 0.826035
321 1 0.334459 0.169009 0.668111
322 1 0.403183 0.248848 0.676539
323 1 0.397368 0.173054 0.746994
324 1 0.319257 0.247973 0.747932
393 1 0.324864 0.178029 0.83023
394 1 0.410693 0.255494 0.836455
325 1 0.498576 0.176111 0.636038
326 1 0.573504 0.26333 0.667253
327 1 0.565187 0.176687 0.756584
328 1 0.481779 0.240204 0.749167
397 1 0.481524 0.167368 0.835067
398 1 0.583181 0.247842 0.839396
329 1 0.659574 0.161802 0.681297
330 1 0.74093 0.242194 0.665122
331 1 0.762364 0.170916 0.750526
332 1 0.665414 0.241973 0.766465
401 1 0.68299 0.165011 0.838377
402 1 0.781908 0.250514 0.827025
333 1 0.831402 0.178624 0.658837
334 1 0.920924 0.251002 0.665436
335 1 0.930211 0.174065 0.75182
336 1 0.854846 0.248312 0.753812
405 1 0.859843 0.170683 0.835924
406 1 0.927353 0.273255 0.828533
337 1 0.00355985 0.336838 0.663168
338 1 0.0882768 0.408738 0.658516
339 1 0.0816972 0.339218 0.732319
340 1 0.0104013 0.419021 0.749208
409 1 0.0104215 0.334737 0.824947
410 1 0.083823 0.434899 0.831053
341 1 0.165904 0.334238 0.664892
342 1 0.25897 0.42187 0.67459
343 1 0.248157 0.330645 0.744217
344 1 0.168755 0.425407 0.739007
413 1 0.161074 0.359334 0.826126
414 1 0.242389 0.423549 0.845556
345 1 0.339639 0.335941 0.667578
346 1 0.416083 0.415645 0.666076
347 1 0.429723 0.328957 0.759274
348 1 0.333935 0.412789 0.748369
417 1 0.32977 0.335415 0.83151
418 1 0.413571 0.40769 0.832007
349 1 0.492221 0.333092 0.672153
350 1 0.582086 0.399993 0.68151
351 1 0.579416 0.338009 0.767882
352 1 0.500471 0.41477 0.763991
421 1 0.495752 0.332557 0.841033
422 1 0.600164 0.412553 0.834044
353 1 0.669964 0.322486 0.663676
354 1 0.760001 0.419884 0.665498
355 1 0.76019 0.326016 0.737517
356 1 0.673939 0.399807 0.74473
425 1 0.67918 0.324819 0.820455
426 1 0.755817 0.410218 0.823898
357 1 0.843322 0.331443 0.657841
358 1 0.926617 0.417908 0.654937
359 1 0.927379 0.332888 0.733176
360 1 0.8377 0.411131 0.737466
429 1 0.8375 0.337651 0.823554
430 1 0.908816 0.414937 0.823978
400 1 0.489843 0.234515 0.91567
364 1 0.00393567 0.088031 0.911039
399 1 0.572817 0.17496 0.917212
368 1 0.175263 0.0729116 0.906809
25 1 0.0143254 0.169656 0.998839
372 1 0.330194 0.0762948 0.904376
223 1 0.246129 0.00147828 0.590436
376 1 0.499636 0.0938477 0.913233
721 1 0.00422439 0.496863 0.644626
380 1 0.657275 0.1017 0.924095
2 1 0.0905305 0.0915648 0.988267
62 1 0.594023 0.417971 0.997896
651 1 0.098959 0.492825 0.585974
811 1 0.767728 0.498808 0.912187
311 1 0.910491 0.00272197 0.745318
671 1 0.909452 0.495208 0.577364
282 1 0.75253 0.418542 0.505689
795 1 0.0730637 0.498652 0.920866
665 1 0.674157 0.497579 0.511877
65 1 0.680742 0.341886 0.992941
257 1 0.668498 0.161338 0.500572
441 1 0.334928 0.499216 0.990673
53 1 0.16169 0.345199 0.997419
741 1 0.850032 0.492397 0.667967
6 1 0.243689 0.0910017 0.981054
375 1 0.581467 0.00993442 0.894646
49 1 0.012512 0.330509 0.993416
373 1 0.481613 0.0104743 0.84102
801 1 0.345819 0.489676 0.835247
809 1 0.680967 0.495193 0.839985
815 1 0.924015 0.494015 0.913566
285 1 0.817382 0.329663 0.506921
377 1 0.679174 0.00270391 0.83022
66 1 0.772863 0.403148 0.989
30 1 0.23338 0.257704 0.992882
5 1 0.166402 0.0101833 0.990233
258 1 0.738074 0.241694 0.50754
661 1 0.500708 0.494591 0.504907
61 1 0.501007 0.333275 0.960671
274 1 0.426388 0.411839 0.503135
42 1 0.759029 0.248985 0.993636
807 1 0.586209 0.499209 0.912016
445 1 0.51033 0.480521 0.998494
262 1 0.931565 0.259316 0.500248
295 1 0.258981 0.000186902 0.757929
648 1 0.818483 0.914998 0.402057
587 1 0.420396 0.508911 0.416454
646 1 0.907912 0.918022 0.343635
436 1 0.994508 0.59455 0.0863422
81 1 0.338613 0.977195 0.168475
702 1 0.256869 0.911071 0.494772
435 1 0.0888289 0.515837 0.0996559
440 1 0.17217 0.576317 0.0906164
644 1 0.661501 0.919397 0.429045
705 1 0.331258 0.838415 0.498762
89 1 0.670427 0.993954 0.164155
444 1 0.32597 0.589498 0.103636
461 1 0.158916 0.659938 0.00244414
698 1 0.0873087 0.904215 0.49717
686 1 0.589048 0.752743 0.494398
448 1 0.516105 0.586621 0.0712935
642 1 0.730036 0.917341 0.342088
437 1 0.179564 0.50242 0.00359065
640 1 0.489389 0.922434 0.418906
452 1 0.679777 0.585371 0.0682987
638 1 0.579446 0.925432 0.356725
77 1 0.16817 0.99435 0.159088
636 1 0.332814 0.91477 0.415812
456 1 0.838464 0.572226 0.083721
658 1 0.413144 0.590678 0.488919
485 1 0.160813 0.836359 0.00564015
459 1 0.077823 0.660203 0.0833915
460 1 0.997081 0.74035 0.0669864
481 1 0.993853 0.833223 0.00663432
483 1 0.0716082 0.826026 0.0892364
15 1 0.584039 0.98547 0.0988728
438 1 0.265014 0.577631 0.00100028
463 1 0.235265 0.655235 0.0807781
464 1 0.169447 0.752881 0.0919456
681 1 0.333865 0.679342 0.473656
487 1 0.246669 0.841834 0.0766168
694 1 0.924597 0.746237 0.491064
23 1 0.928335 0.998304 0.0791703
467 1 0.412141 0.649231 0.0864621
468 1 0.333962 0.742339 0.0857807
83 1 0.41723 0.983127 0.240042
491 1 0.404129 0.818197 0.0779773
79 1 0.245682 0.991227 0.247599
498 1 0.758916 0.914986 0.00767221
471 1 0.597087 0.661501 0.0840739
472 1 0.495314 0.727203 0.0817715
527 1 0.922407 0.508197 0.252448
495 1 0.608963 0.807057 0.0795104
713 1 0.670124 0.831886 0.496736
434 1 0.0894706 0.57282 0.00955636
475 1 0.774218 0.66002 0.0787035
476 1 0.689491 0.74219 0.0750535
693 1 0.840102 0.657136 0.49358
499 1 0.745251 0.830928 0.0838575
75 1 0.0949534 0.984414 0.257631
443 1 0.39732 0.507571 0.0784633
479 1 0.890812 0.661611 0.0900774
480 1 0.824487 0.754906 0.0692299
581 1 0.165665 0.52353 0.334163
503 1 0.922706 0.843034 0.0868819
482 1 0.0844848 0.904563 0.00249485
484 1 0.00228015 0.918976 0.0864752
501 1 0.846621 0.830816 0.00701833
488 1 0.16811 0.926707 0.0747142
670 1 0.911987 0.581503 0.4993
492 1 0.32589 0.926616 0.0726135
494 1 0.585088 0.911594 0.000609361
496 1 0.494021 0.898265 0.0757993
497 1 0.670557 0.840163 0.00110551
500 1 0.67041 0.915662 0.0790822
457 1 0.0142877 0.652977 0.00572816
504 1 0.829512 0.912121 0.0771109
583 1 0.264008 0.502153 0.427445
506 1 0.0814405 0.591526 0.168638
597 1 0.836805 0.507348 0.338614
508 1 0.997557 0.583126 0.239828
9 1 0.324348 0.997581 0.00404656
510 1 0.250068 0.579617 0.177456
167 1 0.907644 0.990958 0.423174
512 1 0.164912 0.597231 0.25658
634 1 0.417236 0.891405 0.317958
514 1 0.423704 0.57327 0.166136
632 1 0.17908 0.921093 0.408545
516 1 0.344848 0.578424 0.245668
513 1 0.338711 0.504498 0.169238
518 1 0.601919 0.56989 0.153953
630 1 0.246647 0.910981 0.322336
520 1 0.501309 0.573193 0.244821
147 1 0.0990996 0.989584 0.416
522 1 0.765324 0.579737 0.165136
502 1 0.90857 0.91978 0.0065218
524 1 0.678098 0.584218 0.243158
628 1 0.00459068 0.909124 0.41932
526 1 0.912637 0.577299 0.164507
626 1 0.0871664 0.905746 0.345011
528 1 0.846932 0.584512 0.242139
529 1 0.986316 0.670672 0.162749
530 1 0.0889314 0.756268 0.172449
531 1 0.0687178 0.66815 0.235709
532 1 0.995722 0.754481 0.240298
553 1 0.996137 0.850493 0.163171
555 1 0.07776 0.835954 0.254404
533 1 0.159667 0.667558 0.164267
534 1 0.253233 0.743767 0.161269
535 1 0.248809 0.67214 0.256381
536 1 0.158774 0.74487 0.256476
557 1 0.164799 0.832558 0.157313
559 1 0.240165 0.833727 0.242532
537 1 0.338002 0.662651 0.17589
538 1 0.408394 0.746544 0.171746
539 1 0.432613 0.658926 0.25321
540 1 0.32541 0.758033 0.237125
561 1 0.332348 0.827476 0.15836
563 1 0.423751 0.83001 0.232301
541 1 0.500838 0.672598 0.176473
542 1 0.578787 0.736086 0.168904
543 1 0.59248 0.649378 0.244047
544 1 0.504967 0.747404 0.251311
565 1 0.51432 0.828617 0.159542
567 1 0.582531 0.828621 0.24725
545 1 0.673162 0.653216 0.153065
546 1 0.754256 0.737217 0.176441
547 1 0.761024 0.6626 0.255928
548 1 0.660693 0.748664 0.242836
569 1 0.672285 0.823165 0.163529
571 1 0.737894 0.839382 0.258639
549 1 0.83271 0.658452 0.172133
550 1 0.920795 0.751031 0.153353
551 1 0.923812 0.674181 0.246647
552 1 0.85071 0.745066 0.24574
573 1 0.823069 0.838057 0.169297
575 1 0.917162 0.838681 0.245891
554 1 0.0838038 0.917602 0.166189
556 1 0.996456 0.917147 0.258959
558 1 0.246305 0.911315 0.165596
560 1 0.165448 0.905707 0.256473
562 1 0.416294 0.908438 0.153672
564 1 0.339789 0.896769 0.236667
566 1 0.582535 0.913022 0.169914
568 1 0.506209 0.902051 0.244573
570 1 0.745215 0.920035 0.163786
572 1 0.663618 0.917763 0.254985
574 1 0.902922 0.926162 0.166323
576 1 0.825685 0.910076 0.254557
93 1 0.817167 0.992252 0.160862
578 1 0.0813958 0.606595 0.331429
579 1 0.0933772 0.510736 0.417426
580 1 0.00674359 0.589295 0.42059
591 1 0.588323 0.502478 0.432948
582 1 0.27018 0.588642 0.327258
647 1 0.918295 0.822183 0.425309
584 1 0.173129 0.594405 0.420323
91 1 0.733453 0.994197 0.250313
586 1 0.415632 0.585169 0.341815
714 1 0.752895 0.894716 0.490736
588 1 0.327793 0.584014 0.40972
645 1 0.834223 0.825687 0.324783
590 1 0.583203 0.578709 0.329374
466 1 0.423881 0.741408 0.0073036
592 1 0.517514 0.574338 0.420816
593 1 0.667966 0.500883 0.330558
594 1 0.756281 0.582992 0.337104
624 1 0.835554 0.745507 0.420431
596 1 0.666714 0.570133 0.418903
623 1 0.916126 0.674975 0.417019
598 1 0.920636 0.572516 0.352765
710 1 0.576598 0.924999 0.487594
600 1 0.837553 0.587062 0.415378
601 1 0.00013422 0.681721 0.332072
602 1 0.085446 0.744062 0.330334
603 1 0.0895628 0.659875 0.425751
604 1 0.998983 0.755168 0.40946
625 1 0.981248 0.823575 0.332332
627 1 0.0920941 0.833991 0.422511
605 1 0.177084 0.669655 0.342694
606 1 0.251154 0.752158 0.321468
607 1 0.254227 0.669155 0.413267
608 1 0.161641 0.745374 0.427669
629 1 0.176086 0.828146 0.344768
631 1 0.255321 0.825167 0.431796
609 1 0.339302 0.66987 0.329091
610 1 0.416737 0.76087 0.305936
611 1 0.414118 0.670636 0.403092
612 1 0.354916 0.752977 0.405305
633 1 0.328722 0.834245 0.333062
635 1 0.424078 0.840389 0.413148
613 1 0.512194 0.655145 0.339504
614 1 0.584915 0.736996 0.325246
615 1 0.585075 0.657711 0.41915
616 1 0.502891 0.753354 0.414542
637 1 0.515019 0.826609 0.328141
639 1 0.587573 0.836218 0.421337
617 1 0.662952 0.663816 0.343849
618 1 0.757503 0.747123 0.337531
619 1 0.748757 0.66241 0.41484
620 1 0.669648 0.736274 0.419889
641 1 0.661692 0.830866 0.33886
643 1 0.74307 0.815792 0.415043
621 1 0.845355 0.658732 0.325329
622 1 0.909546 0.751118 0.340039
493 1 0.509711 0.81675 0.0044184
87 1 0.597366 0.99997 0.235024
509 1 0.164342 0.509993 0.174143
577 1 0.0099086 0.510136 0.335741
519 1 0.593055 0.51106 0.250487
507 1 0.0797283 0.517898 0.255275
447 1 0.600117 0.510229 0.0670828
595 1 0.747313 0.506715 0.424137
462 1 0.250648 0.751899 0.00531958
458 1 0.083888 0.753243 0.00575353
690 1 0.756622 0.742812 0.499085
523 1 0.761164 0.505182 0.257962
674 1 0.0707997 0.737209 0.497012
511 1 0.265922 0.509917 0.257317
465 1 0.33093 0.665513 0.00174309
433 1 0.00170263 0.504772 0.0235865
153 1 0.330291 0.990163 0.317698
709 1 0.50372 0.84283 0.493646
685 1 0.50349 0.659575 0.482607
217 1 0.00173947 0.994755 0.493481
233 1 0.660196 0.999464 0.498312
706 1 0.417017 0.940052 0.491932
165 1 0.831597 0.999356 0.328563
864 1 0.823169 0.908088 0.92097
743 1 0.920532 0.503127 0.746169
793 1 0.00274837 0.501065 0.830479
652 1 0.999393 0.573843 0.578346
649 1 0.0197095 0.503582 0.504909
474 1 0.76193 0.761363 0.983976
860 1 0.662118 0.931901 0.911857
656 1 0.169004 0.578316 0.586445
856 1 0.511488 0.902432 0.924529
17 1 0.658798 0.999483 0.987102
654 1 0.250789 0.587769 0.502585
660 1 0.344895 0.568436 0.575902
852 1 0.334023 0.9301 0.918752
662 1 0.597409 0.592915 0.507542
848 1 0.164684 0.912802 0.927889
664 1 0.502688 0.591116 0.571748
844 1 0.999228 0.914576 0.915403
450 1 0.758481 0.567689 0.997691
489 1 0.332294 0.837648 0.989234
668 1 0.682125 0.590094 0.585156
293 1 0.157271 0.992896 0.66939
803 1 0.420108 0.500909 0.922126
863 1 0.911663 0.83217 0.923873
672 1 0.839553 0.59904 0.585558
379 1 0.751047 0.99592 0.915436
473 1 0.6762 0.670004 0.991485
675 1 0.0998396 0.664881 0.575003
676 1 0.00151435 0.741956 0.58581
309 1 0.833128 0.989561 0.666323
699 1 0.0790188 0.822526 0.588476
666 1 0.763844 0.596735 0.502096
307 1 0.747511 0.994271 0.755331
679 1 0.277626 0.660159 0.568245
680 1 0.172765 0.75125 0.590713
701 1 0.166884 0.821056 0.514723
703 1 0.247932 0.825139 0.586354
682 1 0.429293 0.758412 0.50041
727 1 0.261595 0.515073 0.763295
683 1 0.419529 0.666104 0.571546
684 1 0.335923 0.757377 0.587495
446 1 0.587418 0.575713 0.983154
707 1 0.422484 0.83835 0.575466
21 1 0.830096 0.995351 0.991249
469 1 0.506241 0.661372 0.996085
687 1 0.587524 0.654699 0.595846
688 1 0.508911 0.738539 0.565096
673 1 0.000409461 0.648522 0.509964
711 1 0.584196 0.817194 0.581284
689 1 0.66931 0.667324 0.501484
383 1 0.919693 0.98376 0.901444
691 1 0.754735 0.669892 0.583762
692 1 0.6803 0.752678 0.579823
369 1 0.349861 0.986391 0.833331
715 1 0.757372 0.827663 0.592292
697 1 0.00921453 0.82722 0.505386
478 1 0.924693 0.737809 0.994966
695 1 0.929021 0.658284 0.593117
696 1 0.842589 0.738759 0.586793
813 1 0.835062 0.500682 0.830985
719 1 0.913399 0.827427 0.580573
659 1 0.427643 0.501436 0.585845
700 1 0.00409167 0.915012 0.606653
237 1 0.836231 0.999564 0.508323
704 1 0.176334 0.922021 0.589967
454 1 0.930371 0.590884 0.998625
708 1 0.334117 0.925583 0.574911
799 1 0.244046 0.503259 0.922095
712 1 0.501398 0.920984 0.570847
13 1 0.504478 0.998421 0.987394
716 1 0.649152 0.920209 0.576415
477 1 0.842734 0.676448 0.991294
720 1 0.831994 0.919575 0.589412
725 1 0.174858 0.508065 0.665387
722 1 0.0988865 0.577991 0.671887
840 1 0.851479 0.738766 0.908591
724 1 0.00554673 0.575181 0.75221
239 1 0.913604 0.995611 0.590137
794 1 0.087579 0.58496 0.828587
663 1 0.584086 0.504574 0.593956
726 1 0.272465 0.570818 0.661761
797 1 0.162757 0.50492 0.821217
728 1 0.180068 0.585662 0.747624
678 1 0.258338 0.753323 0.512264
798 1 0.254185 0.585847 0.851304
677 1 0.169991 0.672694 0.502992
730 1 0.414066 0.582764 0.654791
486 1 0.24418 0.917649 0.999622
732 1 0.349921 0.58523 0.753752
839 1 0.930595 0.662143 0.918716
802 1 0.4259 0.566312 0.832877
235 1 0.742418 0.996001 0.590693
734 1 0.577422 0.588972 0.690539
859 1 0.745142 0.842243 0.92621
736 1 0.491774 0.592435 0.755727
717 1 0.843971 0.829047 0.501314
806 1 0.588279 0.583802 0.826111
836 1 0.66427 0.749297 0.905683
738 1 0.765537 0.586665 0.670568
650 1 0.0905111 0.580135 0.504873
740 1 0.678401 0.558304 0.742303
718 1 0.936374 0.911498 0.510773
810 1 0.754131 0.571912 0.818895
442 1 0.427157 0.588163 0.985811
742 1 0.917141 0.577504 0.665544
835 1 0.757436 0.664725 0.918729
744 1 0.83449 0.575938 0.751142
855 1 0.600405 0.832941 0.912691
814 1 0.919086 0.583034 0.829803
745 1 0.008862 0.644401 0.668309
746 1 0.100979 0.727789 0.662161
747 1 0.0920687 0.657949 0.752524
748 1 0.0124797 0.72743 0.737628
769 1 0.997166 0.827225 0.668105
771 1 0.101155 0.82646 0.756921
817 1 0.00732832 0.66105 0.834293
818 1 0.0992739 0.759933 0.841848
841 1 0.0141663 0.831643 0.843515
749 1 0.20189 0.655124 0.646443
750 1 0.269424 0.749742 0.665787
751 1 0.273661 0.672445 0.758536
752 1 0.188423 0.733188 0.727185
773 1 0.174069 0.83362 0.677337
775 1 0.243051 0.830078 0.754627
821 1 0.18483 0.663349 0.827724
822 1 0.243302 0.763231 0.832453
845 1 0.163666 0.841887 0.843292
753 1 0.338307 0.656451 0.656548
754 1 0.418157 0.764931 0.665795
755 1 0.404555 0.673243 0.747752
756 1 0.340908 0.767273 0.747282
777 1 0.318964 0.847952 0.656893
779 1 0.433149 0.833758 0.750605
825 1 0.350178 0.674145 0.846822
826 1 0.420613 0.752456 0.843651
849 1 0.340035 0.839764 0.848864
757 1 0.486682 0.671357 0.668205
758 1 0.583207 0.748737 0.670644
759 1 0.584857 0.666459 0.766746
760 1 0.495986 0.753165 0.765117
781 1 0.502436 0.824282 0.655635
783 1 0.569377 0.841046 0.743502
829 1 0.494439 0.671042 0.828241
830 1 0.587796 0.756821 0.82554
853 1 0.496514 0.826762 0.839142
761 1 0.674385 0.66513 0.675348
762 1 0.75918 0.74674 0.669191
763 1 0.763673 0.664965 0.744051
764 1 0.657964 0.752863 0.749419
785 1 0.663051 0.828568 0.669054
787 1 0.740748 0.820027 0.74438
833 1 0.680314 0.66415 0.811656
834 1 0.747958 0.743238 0.841901
857 1 0.672459 0.837453 0.82391
765 1 0.838701 0.67216 0.660661
766 1 0.92275 0.748738 0.677889
767 1 0.921197 0.662499 0.750127
768 1 0.836294 0.753696 0.763874
789 1 0.828437 0.827381 0.683777
791 1 0.92079 0.826784 0.73903
837 1 0.821505 0.659296 0.835507
838 1 0.936894 0.745305 0.83286
861 1 0.829899 0.825869 0.846155
770 1 0.0931805 0.904613 0.670061
772 1 0.00837524 0.904962 0.758052
842 1 0.0803209 0.919251 0.838011
774 1 0.243844 0.922873 0.674992
776 1 0.155154 0.924889 0.756442
846 1 0.244216 0.911516 0.832694
778 1 0.409441 0.901513 0.676547
780 1 0.3316 0.907966 0.756875
850 1 0.429388 0.909967 0.854592
782 1 0.569685 0.922118 0.669459
784 1 0.501108 0.918037 0.757347
854 1 0.576983 0.913468 0.841551
786 1 0.744676 0.899472 0.668808
788 1 0.648003 0.925768 0.745554
858 1 0.753617 0.92054 0.838371
790 1 0.906925 0.90953 0.670126
792 1 0.834061 0.915654 0.768186
862 1 0.92397 0.899364 0.827161
832 1 0.50573 0.750958 0.918504
796 1 0.00591643 0.579186 0.9152
219 1 0.0702078 0.981753 0.573353
800 1 0.152917 0.573425 0.921281
363 1 0.0743282 0.994819 0.911808
804 1 0.33746 0.574177 0.911438
470 1 0.590176 0.736687 0.996478
808 1 0.508694 0.583665 0.911026
367 1 0.252868 0.997319 0.907877
812 1 0.674873 0.591828 0.898495
1 1 0.00833773 0.994034 0.998247
816 1 0.848144 0.578421 0.922902
819 1 0.0822361 0.659748 0.924868
820 1 0.00892581 0.752244 0.923739
843 1 0.0759095 0.831798 0.927561
823 1 0.249153 0.664952 0.922272
824 1 0.170117 0.767502 0.923147
847 1 0.247333 0.835043 0.916797
827 1 0.432128 0.669796 0.920333
828 1 0.342326 0.756146 0.916673
851 1 0.427669 0.836074 0.93293
831 1 0.582743 0.676158 0.910183
490 1 0.419126 0.929974 0.993789
221 1 0.155198 0.998224 0.509781
299 1 0.413854 0.988386 0.740735
737 1 0.674689 0.500106 0.647169
289 1 0.985319 0.98471 0.677582
