ITEM: TIMESTEP
12250
ITEM: NUMBER OF ATOMS
864
ITEM: BOX BOUNDS pp pp pp
0.0000000000000000e+00 3.1559999999999999e+01
0.0000000000000000e+00 3.1559999999999999e+01
0.0000000000000000e+00 3.1559999999999999e+01
ITEM: ATOMS id type xs ys zs
27 1 0.0831935 0.160041 0.0885285
101 1 0.165028 0.172948 0.164398
581 1 0.179925 0.490482 0.335959
585 1 0.347297 0.489216 0.33818
8 1 0.161645 0.0857693 0.0922573
12 1 0.324003 0.100469 0.0947
82 1 0.429069 0.0886666 0.162583
447 1 0.585566 0.486745 0.0751477
217 1 0.00210596 0.00115886 0.4989
11 1 0.411287 0.00832064 0.0870483
16 1 0.505623 0.0814276 0.07325
20 1 0.664144 0.0882169 0.0816517
93 1 0.830635 0.00569827 0.177001
24 1 0.834699 0.0789193 0.0800799
90 1 0.743093 0.0883087 0.159148
19 1 0.743928 0.0131032 0.0792303
4 1 0.00485678 0.0925042 0.0838783
94 1 0.897905 0.0885873 0.180745
599 1 0.924643 0.494553 0.421852
26 1 0.0841534 0.251064 0.0078984
53 1 0.163009 0.327605 0.00237324
32 1 0.158346 0.253021 0.0825557
66 1 0.745684 0.418551 0.00623719
31 1 0.246053 0.162527 0.0736631
443 1 0.406782 0.49774 0.0866819
36 1 0.329063 0.256468 0.0822476
35 1 0.409946 0.167533 0.0817559
106 1 0.413856 0.262445 0.168362
109 1 0.495573 0.16971 0.15744
40 1 0.474484 0.259656 0.0804617
39 1 0.568512 0.169343 0.0843554
44 1 0.645374 0.246933 0.080086
216 1 0.82975 0.403059 0.429583
37 1 0.501299 0.173156 0.00460202
221 1 0.170619 0.00579178 0.497073
43 1 0.742654 0.168167 0.0895237
28 1 0.994598 0.244583 0.0856444
48 1 0.813779 0.241219 0.0835217
47 1 0.90509 0.169043 0.1008
71 1 0.910339 0.352838 0.0810185
46 1 0.907897 0.248526 0.0154202
95 1 0.91884 0.00379238 0.255538
51 1 0.0820308 0.328096 0.110518
56 1 0.168324 0.427664 0.112705
519 1 0.594986 0.498675 0.246181
50 1 0.0782169 0.409255 0.0200678
55 1 0.222542 0.342199 0.0933377
54 1 0.227101 0.42341 0.0191138
126 1 0.253862 0.437001 0.180058
521 1 0.670803 0.493154 0.158386
59 1 0.402333 0.343552 0.067859
133 1 0.492909 0.342453 0.15975
60 1 0.315348 0.417557 0.088982
64 1 0.486356 0.41529 0.074805
210 1 0.751036 0.410749 0.333191
63 1 0.565923 0.322109 0.0846479
134 1 0.575906 0.409532 0.160991
68 1 0.65349 0.405377 0.0889435
67 1 0.745227 0.342653 0.0913548
72 1 0.826067 0.421984 0.0807747
137 1 0.667693 0.334109 0.166027
83 1 0.423984 0.00697958 0.240614
234 1 0.759255 0.0977323 0.496961
52 1 0.99245 0.415946 0.0814537
74 1 0.0909085 0.0925312 0.174592
80 1 0.166963 0.0941484 0.258095
78 1 0.250356 0.0956848 0.185921
84 1 0.357824 0.0829987 0.236624
150 1 0.265805 0.0983079 0.308384
153 1 0.333934 0.0115906 0.336434
2 1 0.087942 0.0928953 0.00742847
154 1 0.42642 0.0780646 0.331629
177 1 0.348628 0.172222 0.337264
270 1 0.260924 0.409714 0.493212
86 1 0.582422 0.089622 0.16996
88 1 0.502339 0.0926509 0.25093
158 1 0.582196 0.0799624 0.340913
85 1 0.50906 0.0154527 0.165092
185 1 0.666147 0.169146 0.328918
87 1 0.577509 0.0057385 0.2512
230 1 0.569085 0.0749671 0.499751
92 1 0.666536 0.0845131 0.241731
76 1 0.998809 0.083644 0.255089
96 1 0.836542 0.0722799 0.265188
25 1 0.00112194 0.169345 0.00858519
98 1 0.0600284 0.234395 0.165686
99 1 0.0772092 0.170004 0.262932
100 1 0.986477 0.268362 0.263563
102 1 0.237024 0.254419 0.161773
103 1 0.236548 0.180176 0.242982
105 1 0.338253 0.180715 0.172037
104 1 0.150368 0.25533 0.239339
127 1 0.241638 0.350993 0.245626
173 1 0.164793 0.173252 0.357221
108 1 0.334554 0.249795 0.265325
107 1 0.424202 0.177669 0.251006
112 1 0.499712 0.261467 0.233508
131 1 0.414947 0.345041 0.249683
178 1 0.413988 0.261278 0.361671
110 1 0.580259 0.257732 0.166208
111 1 0.576047 0.166624 0.256104
116 1 0.661657 0.245302 0.249344
181 1 0.499677 0.176131 0.344204
114 1 0.744392 0.251493 0.172003
115 1 0.757124 0.168824 0.250416
113 1 0.654046 0.170246 0.162873
120 1 0.844963 0.243683 0.256836
97 1 0.99494 0.158414 0.177908
118 1 0.905362 0.251285 0.171572
117 1 0.830492 0.166789 0.173767
119 1 0.927473 0.167974 0.27468
143 1 0.90759 0.341852 0.250101
125 1 0.156346 0.33898 0.182435
595 1 0.750198 0.48966 0.423885
122 1 0.0603897 0.435865 0.183753
123 1 0.0731324 0.331431 0.259121
124 1 0.982178 0.416339 0.251827
128 1 0.160139 0.419183 0.244977
214 1 0.922969 0.420253 0.341794
198 1 0.259413 0.421572 0.331974
511 1 0.259323 0.499408 0.261682
129 1 0.322057 0.328039 0.158234
132 1 0.328943 0.406632 0.250031
130 1 0.404679 0.413826 0.160308
136 1 0.501492 0.42886 0.250889
135 1 0.575644 0.333842 0.247343
140 1 0.668144 0.412336 0.248305
139 1 0.770641 0.33123 0.241315
138 1 0.760144 0.415711 0.182149
144 1 0.837358 0.424468 0.254592
18 1 0.749324 0.100488 0.00342116
215 1 0.92335 0.349451 0.434427
121 1 0.989308 0.348843 0.163739
141 1 0.831936 0.320921 0.150773
142 1 0.91611 0.432159 0.16907
451 1 0.752877 0.495094 0.0788478
149 1 0.173504 0.0112133 0.326528
30 1 0.237731 0.262469 0.0073722
146 1 0.0654397 0.0908373 0.351238
152 1 0.168086 0.0875471 0.420448
69 1 0.823622 0.330606 0.000935671
151 1 0.258159 0.0293258 0.40578
156 1 0.337591 0.0916584 0.417946
175 1 0.236581 0.181315 0.437557
229 1 0.497425 0.00113302 0.499181
160 1 0.491032 0.0742567 0.414997
179 1 0.424419 0.173437 0.423226
155 1 0.411246 0.0137472 0.430297
161 1 0.676719 0.0185826 0.336641
164 1 0.659847 0.0854283 0.43151
183 1 0.577147 0.173093 0.430623
225 1 0.320887 0.00502797 0.489905
274 1 0.422896 0.415749 0.498435
163 1 0.766431 0.00769184 0.42693
162 1 0.753937 0.0881577 0.346179
73 1 0.0143534 0.0139698 0.165386
75 1 0.0777837 0.00591928 0.262854
196 1 0.0196782 0.421104 0.424295
49 1 0.994209 0.329207 0.00563058
148 1 0.98802 0.0895524 0.433624
168 1 0.840133 0.0971567 0.433837
166 1 0.925877 0.0928138 0.35371
169 1 0.0033538 0.18713 0.347617
170 1 0.0918134 0.253393 0.33632
171 1 0.0798087 0.180248 0.43071
172 1 0.000947553 0.256006 0.436567
197 1 0.179231 0.341843 0.323528
523 1 0.755223 0.496443 0.261094
176 1 0.166835 0.260932 0.420128
174 1 0.24691 0.251119 0.321686
199 1 0.249473 0.334855 0.408064
577 1 0.0123728 0.49366 0.328906
201 1 0.328908 0.340377 0.336562
180 1 0.332716 0.240528 0.42915
184 1 0.506707 0.251417 0.424565
182 1 0.59434 0.259429 0.347432
188 1 0.671102 0.259828 0.429916
583 1 0.251816 0.491094 0.418816
186 1 0.736948 0.248234 0.347274
213 1 0.836072 0.340051 0.331354
187 1 0.73886 0.170369 0.417101
189 1 0.847993 0.165791 0.341222
192 1 0.836988 0.250838 0.427617
190 1 0.914296 0.252806 0.354346
191 1 0.929092 0.176156 0.431569
195 1 0.0809543 0.329832 0.408865
193 1 0.986681 0.336727 0.350884
194 1 0.0723001 0.408606 0.32218
200 1 0.150416 0.42117 0.412046
79 1 0.257676 0.0097361 0.250303
203 1 0.437 0.336144 0.416947
589 1 0.50327 0.498149 0.342034
77 1 0.162176 0.0136994 0.185839
202 1 0.441368 0.416135 0.336208
208 1 0.510118 0.411305 0.420795
204 1 0.359794 0.403653 0.413883
3 1 0.0857146 0.0113432 0.0861112
207 1 0.600651 0.335 0.418795
593 1 0.655726 0.490283 0.348494
205 1 0.497906 0.301437 0.324397
212 1 0.659842 0.42479 0.434452
65 1 0.663052 0.318708 0.00215175
206 1 0.567707 0.405224 0.33014
209 1 0.670519 0.33345 0.323356
23 1 0.929668 0.0106673 0.0722913
81 1 0.34145 0.00233194 0.175046
211 1 0.756132 0.328268 0.425339
5 1 0.166051 0.00407459 0.00758317
220 1 0.98969 0.0898713 0.592439
290 1 0.0863552 0.0886267 0.674524
317 1 0.159524 0.168608 0.67066
663 1 0.584257 0.497153 0.591214
224 1 0.159645 0.0823444 0.600678
228 1 0.333091 0.0672198 0.578588
294 1 0.225421 0.0851443 0.678609
33 1 0.332883 0.17257 0.999433
232 1 0.498354 0.0796189 0.5835
250 1 0.421644 0.256066 0.505479
297 1 0.318321 0.0031008 0.67831
251 1 0.417738 0.171063 0.579883
45 1 0.835064 0.169654 0.996667
282 1 0.764314 0.418222 0.51248
302 1 0.584132 0.0810849 0.663337
655 1 0.256004 0.492651 0.569273
236 1 0.652472 0.0806195 0.576444
255 1 0.589526 0.163298 0.584775
305 1 0.66952 0.00900177 0.660577
259 1 0.746104 0.169535 0.591116
306 1 0.746628 0.0929577 0.680055
235 1 0.752595 0.0131706 0.588354
240 1 0.825136 0.0912951 0.595539
238 1 0.910619 0.0944118 0.51039
310 1 0.927041 0.0979026 0.679412
309 1 0.836473 0.0170249 0.673513
222 1 0.249838 0.0950146 0.519361
237 1 0.841443 0.0096369 0.51374
243 1 0.0811939 0.181669 0.592349
244 1 0.996158 0.258226 0.588206
248 1 0.162246 0.266542 0.59294
241 1 0.000402429 0.176541 0.510699
242 1 0.0909295 0.270134 0.500751
245 1 0.157971 0.172494 0.502658
247 1 0.236584 0.180417 0.591833
252 1 0.34336 0.269175 0.594
21 1 0.839158 0.00295814 0.998403
271 1 0.256527 0.338337 0.594743
739 1 0.732119 0.491371 0.76489
275 1 0.435171 0.331728 0.597715
345 1 0.328287 0.335019 0.671707
256 1 0.496027 0.245498 0.592139
279 1 0.578452 0.348643 0.583976
260 1 0.658898 0.259566 0.594244
329 1 0.67008 0.175447 0.677284
257 1 0.673059 0.166241 0.513048
254 1 0.575508 0.256192 0.513879
258 1 0.757024 0.259635 0.510827
261 1 0.836059 0.185402 0.515964
285 1 0.843601 0.335382 0.51462
263 1 0.920223 0.174918 0.59844
264 1 0.84223 0.251174 0.592581
287 1 0.924262 0.342465 0.598839
262 1 0.914831 0.25056 0.512754
266 1 0.0884557 0.424866 0.50604
267 1 0.0851064 0.34554 0.587436
268 1 0.995894 0.43176 0.583297
432 1 0.826539 0.431514 0.936778
338 1 0.0862607 0.416319 0.669779
249 1 0.334754 0.175031 0.522467
265 1 0.999634 0.341362 0.516037
272 1 0.171989 0.426598 0.58651
342 1 0.252714 0.431121 0.675475
29 1 0.172139 0.173374 0.998157
671 1 0.913088 0.498744 0.601331
276 1 0.33702 0.416447 0.585138
70 1 0.929674 0.43409 0.998895
42 1 0.745793 0.251654 0.99344
273 1 0.351574 0.332997 0.506732
277 1 0.506797 0.334409 0.500757
280 1 0.49659 0.409156 0.594498
58 1 0.416938 0.425372 0.989057
727 1 0.240314 0.492437 0.758879
284 1 0.661204 0.410599 0.596782
283 1 0.759106 0.342707 0.589686
288 1 0.836704 0.416528 0.597438
226 1 0.424892 0.0906203 0.502193
358 1 0.90235 0.425593 0.678319
286 1 0.919581 0.430026 0.509208
362 1 0.091933 0.0946254 0.838874
289 1 0.990408 0.0128294 0.665349
296 1 0.159769 0.0822258 0.760762
300 1 0.322406 0.0887359 0.747553
62 1 0.562357 0.424838 0.990599
319 1 0.239907 0.179833 0.754664
298 1 0.401611 0.0684446 0.673923
304 1 0.488213 0.0754206 0.740238
323 1 0.405742 0.164848 0.749406
397 1 0.495895 0.161731 0.82673
374 1 0.598731 0.0944613 0.84975
327 1 0.577686 0.153097 0.744596
401 1 0.675262 0.171305 0.834846
303 1 0.569446 0.0104784 0.756896
381 1 0.828076 0.0161491 0.833794
308 1 0.661947 0.0790723 0.746131
378 1 0.750129 0.0914344 0.828496
307 1 0.748682 0.00667665 0.748599
292 1 0.997863 0.0906859 0.743948
311 1 0.910866 0.0135671 0.756357
312 1 0.839234 0.09348 0.75198
314 1 0.068347 0.270757 0.67457
315 1 0.0844009 0.157083 0.753843
320 1 0.159725 0.253701 0.73357
318 1 0.257478 0.248183 0.676485
324 1 0.3332 0.251854 0.759471
390 1 0.245086 0.254666 0.852806
393 1 0.321736 0.174746 0.842138
321 1 0.328152 0.152982 0.646611
322 1 0.422324 0.254736 0.684282
328 1 0.513049 0.242495 0.747876
347 1 0.428703 0.338251 0.751841
325 1 0.491459 0.165334 0.671975
326 1 0.589403 0.235932 0.677573
332 1 0.672025 0.256306 0.74804
349 1 0.508638 0.323829 0.668231
351 1 0.584778 0.329942 0.749104
330 1 0.751927 0.257012 0.658174
331 1 0.748754 0.180465 0.748033
333 1 0.831316 0.166085 0.664773
402 1 0.756266 0.249023 0.840951
334 1 0.913843 0.264512 0.671502
313 1 0.00678426 0.182221 0.681996
335 1 0.911292 0.174375 0.754268
336 1 0.822501 0.25722 0.753421
316 1 0.00211262 0.274407 0.763294
405 1 0.830203 0.165494 0.832614
339 1 0.0789312 0.352553 0.773921
409 1 0.996385 0.348889 0.843105
343 1 0.252369 0.349047 0.748576
341 1 0.167291 0.341906 0.6733
344 1 0.166902 0.424225 0.758987
348 1 0.345005 0.413049 0.751391
417 1 0.324791 0.337514 0.835006
414 1 0.255326 0.410408 0.841908
346 1 0.416512 0.41988 0.670166
418 1 0.411624 0.418358 0.836238
13 1 0.500695 0.00132402 0.997731
350 1 0.582852 0.419874 0.673594
353 1 0.663556 0.332185 0.673696
352 1 0.506304 0.423573 0.750834
356 1 0.649115 0.424782 0.774945
426 1 0.747913 0.414338 0.845144
354 1 0.726135 0.420576 0.681895
355 1 0.743834 0.326906 0.748138
429 1 0.83902 0.336864 0.835445
218 1 0.080535 0.0845947 0.519634
357 1 0.828896 0.333158 0.671746
337 1 0.997709 0.350489 0.674395
359 1 0.909232 0.34268 0.750359
340 1 0.998248 0.425333 0.752139
360 1 0.819159 0.427313 0.770097
278 1 0.564405 0.413658 0.505663
377 1 0.671207 0.0134221 0.83678
389 1 0.161076 0.176686 0.831431
246 1 0.25465 0.276 0.511907
367 1 0.239734 0.00126342 0.914926
368 1 0.170987 0.0908021 0.921696
366 1 0.244098 0.0850238 0.842752
372 1 0.328282 0.0804185 0.916252
369 1 0.320911 0.00655705 0.838419
291 1 0.0752968 0.00479514 0.742443
373 1 0.502455 0.0170849 0.835818
370 1 0.410776 0.0901256 0.830446
376 1 0.504561 0.0962478 0.922742
395 1 0.407209 0.156947 0.916372
733 1 0.49559 0.49722 0.657825
1 1 0.0129931 0.00216026 0.995701
14 1 0.590111 0.0945095 0.99917
430 1 0.900635 0.425985 0.848606
379 1 0.747542 0.000881305 0.909583
380 1 0.680437 0.0891431 0.922975
384 1 0.821822 0.0872808 0.919402
253 1 0.495818 0.179458 0.505111
22 1 0.907197 0.0960578 0.987549
6 1 0.249619 0.0828017 0.996619
364 1 0.00310874 0.0878501 0.922069
382 1 0.908097 0.0887097 0.846529
361 1 0.994626 0.0160879 0.83888
387 1 0.0916871 0.167393 0.919813
386 1 0.0777528 0.25218 0.836574
392 1 0.164639 0.253514 0.923714
388 1 0.0133461 0.250912 0.925978
431 1 0.91184 0.341273 0.923212
391 1 0.255711 0.170891 0.924472
396 1 0.330286 0.254888 0.916281
61 1 0.4916 0.327569 0.992059
34 1 0.414862 0.238385 0.991721
394 1 0.411917 0.245266 0.837351
399 1 0.579387 0.186277 0.914463
400 1 0.491474 0.245855 0.914388
398 1 0.578248 0.255807 0.835926
38 1 0.573859 0.257852 0.995571
41 1 0.654934 0.177064 0.992887
403 1 0.755179 0.178962 0.920809
404 1 0.666628 0.251536 0.910076
408 1 0.844506 0.244559 0.911094
385 1 0.987767 0.1657 0.831012
406 1 0.917331 0.248381 0.832789
407 1 0.93234 0.182369 0.921185
412 1 0.0113234 0.435464 0.923869
411 1 0.096994 0.329994 0.908932
410 1 0.0885254 0.430757 0.838117
420 1 0.333794 0.428679 0.912385
415 1 0.237642 0.340787 0.913457
413 1 0.170785 0.339857 0.815595
416 1 0.166795 0.428798 0.922547
17 1 0.671437 0.00475793 0.991772
419 1 0.411689 0.325427 0.918043
424 1 0.489668 0.423206 0.912533
421 1 0.505788 0.346963 0.845389
422 1 0.594974 0.428967 0.85498
425 1 0.675408 0.334826 0.83038
423 1 0.584834 0.33387 0.909545
383 1 0.921837 0.000439797 0.922143
428 1 0.661676 0.417537 0.944851
427 1 0.744263 0.315609 0.908026
281 1 0.660828 0.333773 0.507631
219 1 0.0650952 0.000662283 0.588291
801 1 0.338531 0.49922 0.823389
269 1 0.172478 0.339596 0.501382
233 1 0.679441 0.00782174 0.505834
10 1 0.408354 0.0649856 0.985176
57 1 0.308725 0.355869 0.988306
440 1 0.177262 0.593915 0.0927692
642 1 0.758966 0.926222 0.343931
434 1 0.0939213 0.589167 0.0185751
444 1 0.325042 0.599271 0.0865916
167 1 0.914155 0.998077 0.421416
461 1 0.159117 0.676364 0.000223328
438 1 0.243417 0.583209 0.00295087
439 1 0.244217 0.514636 0.0973954
448 1 0.497534 0.579016 0.0751352
634 1 0.41547 0.931483 0.332702
514 1 0.411821 0.577218 0.152826
490 1 0.413962 0.933737 0.014884
452 1 0.680831 0.571209 0.0861789
693 1 0.835026 0.65297 0.493001
518 1 0.583561 0.579773 0.153028
446 1 0.585917 0.603968 0.00869043
522 1 0.748907 0.572264 0.173261
681 1 0.333935 0.665496 0.49461
502 1 0.920237 0.92634 0.00346606
457 1 0.019841 0.668527 0.0079016
456 1 0.837012 0.580439 0.0786881
436 1 0.00949567 0.59982 0.0915274
648 1 0.835306 0.913661 0.433257
706 1 0.401316 0.923341 0.498417
455 1 0.924077 0.510374 0.0938313
459 1 0.0952864 0.685171 0.0869128
91 1 0.755254 0.999532 0.25894
533 1 0.180222 0.687336 0.173194
530 1 0.0773327 0.761041 0.176707
557 1 0.161846 0.843555 0.18215
464 1 0.172166 0.76417 0.0767084
463 1 0.239486 0.673513 0.0732693
487 1 0.254605 0.846503 0.0922162
474 1 0.750559 0.755951 0.0080125
462 1 0.265374 0.772072 0.0103901
468 1 0.327759 0.752583 0.0901536
467 1 0.411161 0.677158 0.0853158
472 1 0.49924 0.757929 0.0921518
710 1 0.578002 0.917033 0.49922
471 1 0.593715 0.682218 0.0884997
476 1 0.66847 0.761913 0.0890291
673 1 0.983187 0.654668 0.495066
507 1 0.0863433 0.508154 0.254064
697 1 0.00872387 0.828325 0.479127
475 1 0.749387 0.665692 0.0805239
499 1 0.747056 0.84835 0.0760217
597 1 0.828555 0.501299 0.340209
89 1 0.668406 0.990698 0.174825
477 1 0.832682 0.667853 0.00268081
480 1 0.836226 0.759691 0.0836558
460 1 0.994765 0.754639 0.0811388
479 1 0.915841 0.670607 0.0946256
483 1 0.0824462 0.823659 0.0912899
488 1 0.160043 0.909744 0.0893971
484 1 0.00924711 0.919265 0.0876915
553 1 0.997982 0.839773 0.18511
644 1 0.680169 0.928564 0.426417
698 1 0.0784179 0.912093 0.495243
638 1 0.57972 0.906577 0.341701
450 1 0.753248 0.580562 0.00027385
441 1 0.329471 0.501426 0.011591
635 1 0.422172 0.834071 0.408284
674 1 0.104035 0.744569 0.495036
492 1 0.326986 0.929497 0.0889258
491 1 0.406337 0.842599 0.0922733
562 1 0.421217 0.924993 0.158365
454 1 0.934987 0.597718 0.00348378
481 1 0.997924 0.83 0.00639513
496 1 0.501271 0.925375 0.0930688
495 1 0.579164 0.845071 0.0810337
566 1 0.583683 0.923708 0.178836
690 1 0.750703 0.716061 0.490537
485 1 0.180475 0.844499 0.0117903
442 1 0.413645 0.588081 0.0027011
145 1 1.59851e-05 0.993019 0.332221
500 1 0.673828 0.924045 0.0888984
504 1 0.834603 0.934193 0.0834325
469 1 0.490678 0.680003 0.00608924
503 1 0.92125 0.840603 0.0808867
574 1 0.91307 0.921712 0.1821
505 1 0.999171 0.517536 0.162827
506 1 0.0943905 0.602227 0.166657
435 1 0.0840776 0.504985 0.101717
512 1 0.168284 0.578213 0.274094
508 1 0.0023145 0.585163 0.241723
510 1 0.232472 0.585535 0.191318
516 1 0.343549 0.590158 0.24907
513 1 0.325313 0.516821 0.165844
541 1 0.502737 0.659211 0.14713
539 1 0.433575 0.665866 0.253832
449 1 0.66866 0.500597 0.0103776
157 1 0.508584 0.979981 0.337247
520 1 0.504896 0.582192 0.25204
524 1 0.669998 0.582312 0.246618
517 1 0.495479 0.511142 0.170675
591 1 0.580224 0.502654 0.424163
528 1 0.837388 0.580112 0.256487
594 1 0.733549 0.583629 0.33508
579 1 0.0844787 0.512429 0.40992
525 1 0.835192 0.502471 0.17283
526 1 0.91309 0.588454 0.182304
551 1 0.915909 0.668194 0.254084
531 1 0.0857121 0.665087 0.258294
602 1 0.0873405 0.745489 0.345932
532 1 0.991307 0.764614 0.260346
534 1 0.253405 0.759856 0.170969
537 1 0.313675 0.655453 0.172473
605 1 0.1636 0.664198 0.345634
536 1 0.162651 0.748679 0.258748
535 1 0.245578 0.660744 0.262921
540 1 0.330328 0.745173 0.23962
538 1 0.417096 0.734582 0.175696
563 1 0.412899 0.826588 0.232738
609 1 0.333726 0.661502 0.329232
544 1 0.506652 0.746622 0.248347
543 1 0.578027 0.658053 0.263965
542 1 0.591531 0.738398 0.193895
548 1 0.681191 0.742244 0.25466
545 1 0.660743 0.657073 0.162269
547 1 0.747336 0.653002 0.246976
546 1 0.750608 0.755532 0.164145
571 1 0.747231 0.837882 0.244983
618 1 0.757507 0.736484 0.347261
529 1 0.00923595 0.685623 0.168016
549 1 0.829355 0.658948 0.165362
552 1 0.833327 0.754426 0.27128
550 1 0.903978 0.748343 0.170238
622 1 0.92465 0.769519 0.343221
482 1 0.0771858 0.898588 0.0114975
677 1 0.174794 0.657674 0.489473
555 1 0.084499 0.841612 0.270355
554 1 0.0829791 0.924609 0.182203
560 1 0.173007 0.92367 0.260297
470 1 0.57865 0.751652 0.00367215
558 1 0.241829 0.922345 0.1761
559 1 0.244586 0.835267 0.251759
587 1 0.424425 0.50891 0.426817
561 1 0.332781 0.83629 0.162733
433 1 0.000777149 0.512928 0.00643995
564 1 0.332637 0.918488 0.255556
568 1 0.487947 0.918512 0.251222
565 1 0.498974 0.83461 0.166536
567 1 0.575081 0.843819 0.246319
637 1 0.501021 0.831443 0.334807
569 1 0.66864 0.851672 0.16401
570 1 0.757219 0.927807 0.159354
572 1 0.673266 0.912901 0.258691
645 1 0.82677 0.834865 0.336777
573 1 0.821015 0.843213 0.164371
556 1 0.990117 0.925999 0.253567
576 1 0.828617 0.920096 0.253647
575 1 0.896971 0.83587 0.257288
653 1 0.162973 0.503078 0.496514
578 1 0.0826171 0.583919 0.336454
584 1 0.176797 0.582646 0.406973
580 1 0.999886 0.586031 0.412189
582 1 0.259387 0.58583 0.336072
640 1 0.487987 0.920586 0.419529
639 1 0.576128 0.841468 0.41216
628 1 0.994177 0.916334 0.412908
527 1 0.91448 0.510095 0.247857
588 1 0.33129 0.575983 0.417561
586 1 0.424655 0.577575 0.33563
592 1 0.506469 0.579742 0.413248
590 1 0.592018 0.587775 0.335945
617 1 0.65481 0.676207 0.344022
621 1 0.834364 0.661701 0.332309
596 1 0.671519 0.569444 0.41923
600 1 0.847606 0.576317 0.417606
633 1 0.32161 0.829664 0.319126
159 1 0.592546 0.993446 0.416624
497 1 0.661489 0.824815 0.00190225
598 1 0.911779 0.579441 0.330306
9 1 0.330919 0.999805 0.0145559
625 1 0.00131525 0.838336 0.34131
603 1 0.0849563 0.656518 0.423772
608 1 0.172307 0.758592 0.412415
601 1 0.996333 0.652696 0.32524
604 1 0.00459394 0.743434 0.414066
606 1 0.250636 0.752026 0.32531
607 1 0.253438 0.675655 0.421668
631 1 0.271269 0.811409 0.4211
610 1 0.407727 0.757507 0.314159
612 1 0.348716 0.747302 0.411488
611 1 0.41393 0.6533 0.410848
616 1 0.488961 0.748084 0.416997
614 1 0.590245 0.755923 0.333049
615 1 0.576274 0.683092 0.424342
613 1 0.513234 0.668243 0.340892
620 1 0.660639 0.752953 0.433536
509 1 0.159627 0.507226 0.188502
641 1 0.662256 0.833746 0.33894
643 1 0.757787 0.834416 0.437207
619 1 0.767515 0.639268 0.415336
624 1 0.839666 0.7501 0.42179
647 1 0.917274 0.835523 0.418211
623 1 0.922116 0.67278 0.405197
626 1 0.0938091 0.930658 0.337644
629 1 0.183582 0.834213 0.34149
627 1 0.0969752 0.839139 0.415425
701 1 0.181997 0.832309 0.496096
630 1 0.258196 0.935998 0.332766
632 1 0.180489 0.936133 0.407375
636 1 0.334173 0.913382 0.403244
646 1 0.912705 0.922393 0.336429
709 1 0.495734 0.834383 0.483968
486 1 0.242969 0.926343 0.00439688
165 1 0.841173 0.997064 0.34533
649 1 0.0066779 0.51402 0.498345
453 1 0.860458 0.517013 0.00225437
147 1 0.0939674 0.998959 0.412693
15 1 0.593667 0.992344 0.0859165
501 1 0.839115 0.848697 0.00293231
515 1 0.415661 0.502368 0.260884
437 1 0.156049 0.500644 0.0106185
7 1 0.251393 0.999245 0.0870846
702 1 0.247611 0.926967 0.499967
656 1 0.188067 0.5825 0.584133
864 1 0.838844 0.931013 0.914443
651 1 0.0821382 0.503687 0.595662
863 1 0.921667 0.837791 0.917615
295 1 0.245291 0.99347 0.765101
660 1 0.327964 0.573796 0.591579
730 1 0.413224 0.582513 0.670045
466 1 0.419185 0.761016 0.997287
227 1 0.423023 0.988851 0.582145
664 1 0.486604 0.597518 0.589079
668 1 0.672037 0.57344 0.595938
662 1 0.578587 0.588775 0.51308
689 1 0.652339 0.672744 0.513525
670 1 0.916626 0.572259 0.508494
738 1 0.751592 0.589657 0.675338
672 1 0.833057 0.594455 0.583156
666 1 0.748793 0.586055 0.506489
694 1 0.920297 0.73765 0.500838
652 1 0.00250304 0.601861 0.590349
742 1 0.91007 0.592197 0.667421
498 1 0.749609 0.915979 0.995136
737 1 0.670968 0.505842 0.673896
659 1 0.419128 0.505055 0.578294
493 1 0.514823 0.833185 0.990846
675 1 0.0838949 0.665997 0.580463
676 1 0.00704648 0.744908 0.585814
680 1 0.172141 0.762985 0.594187
699 1 0.0727485 0.820626 0.569962
773 1 0.150089 0.847694 0.660363
679 1 0.246483 0.661701 0.5856
684 1 0.329777 0.750468 0.594108
678 1 0.259357 0.754534 0.518695
813 1 0.841585 0.517175 0.841717
683 1 0.39622 0.661105 0.581509
707 1 0.421278 0.836868 0.58849
688 1 0.505931 0.774837 0.584134
754 1 0.421025 0.766005 0.670647
682 1 0.417845 0.747034 0.519017
686 1 0.583516 0.756428 0.511051
687 1 0.573766 0.662608 0.593076
761 1 0.670853 0.680361 0.669595
692 1 0.664666 0.75633 0.585153
473 1 0.669429 0.678071 0.998469
741 1 0.829856 0.507097 0.692343
691 1 0.747658 0.662815 0.585182
715 1 0.760864 0.826535 0.584488
762 1 0.752417 0.757418 0.671698
696 1 0.819461 0.738481 0.580569
695 1 0.91756 0.669036 0.581618
805 1 0.505251 0.518542 0.822676
667 1 0.751253 0.508188 0.590377
719 1 0.918962 0.82617 0.580899
765 1 0.831949 0.660814 0.668898
766 1 0.906964 0.743907 0.661388
859 1 0.753947 0.833384 0.931268
770 1 0.0666876 0.926606 0.669091
718 1 0.925919 0.906739 0.503632
658 1 0.422662 0.584368 0.508294
703 1 0.251846 0.842426 0.58486
704 1 0.152268 0.918218 0.56628
478 1 0.912467 0.750281 0.996908
705 1 0.333604 0.841323 0.506968
708 1 0.324382 0.927386 0.579748
778 1 0.398895 0.928487 0.666144
711 1 0.584168 0.836745 0.585246
712 1 0.490011 0.914522 0.556164
782 1 0.580458 0.917318 0.675764
731 1 0.429798 0.511409 0.745178
789 1 0.842094 0.832676 0.667497
716 1 0.66548 0.917241 0.594922
786 1 0.755995 0.920047 0.661199
700 1 0.0038711 0.914946 0.582666
720 1 0.841523 0.928934 0.586917
363 1 0.0895799 0.997374 0.915747
790 1 0.923933 0.913101 0.66151
723 1 0.0902626 0.506048 0.750568
722 1 0.0886022 0.592342 0.666743
724 1 0.999577 0.595374 0.754776
725 1 0.158876 0.501897 0.668453
726 1 0.249002 0.588712 0.671807
728 1 0.171837 0.591392 0.759365
732 1 0.33849 0.58973 0.758232
231 1 0.581587 0.996742 0.587218
657 1 0.3388 0.503119 0.504131
494 1 0.588714 0.911854 0.992466
736 1 0.500334 0.590953 0.740541
755 1 0.413169 0.675934 0.749659
802 1 0.42724 0.586212 0.84034
734 1 0.588509 0.585344 0.662926
735 1 0.585363 0.512598 0.742102
806 1 0.587177 0.578845 0.855414
301 1 0.500837 0.995765 0.666423
740 1 0.66436 0.583777 0.763099
744 1 0.830546 0.593992 0.757979
743 1 0.916466 0.506804 0.761725
793 1 0.0106386 0.517601 0.843279
721 1 0.996763 0.517918 0.667789
749 1 0.180113 0.66734 0.667548
747 1 0.0920768 0.673375 0.760358
746 1 0.0873032 0.757696 0.662183
745 1 0.00725811 0.66682 0.679809
752 1 0.165024 0.751821 0.738403
753 1 0.325052 0.670601 0.668056
750 1 0.25792 0.753807 0.674739
751 1 0.260614 0.672754 0.761777
757 1 0.483951 0.669292 0.665669
756 1 0.337146 0.774082 0.753053
760 1 0.500608 0.743686 0.7512
781 1 0.49406 0.851921 0.665944
759 1 0.583068 0.668598 0.7638
758 1 0.582467 0.739995 0.668123
764 1 0.667376 0.783359 0.760645
857 1 0.695341 0.843815 0.83802
763 1 0.742782 0.666988 0.753937
767 1 0.909952 0.673476 0.74989
768 1 0.835779 0.758287 0.76292
748 1 0.995289 0.745728 0.750952
771 1 0.0739209 0.837935 0.740646
669 1 0.828177 0.501902 0.508734
841 1 0.0103048 0.834184 0.854397
293 1 0.159444 0.989236 0.672768
775 1 0.254207 0.832686 0.751142
776 1 0.168509 0.913837 0.747986
774 1 0.262936 0.914308 0.674022
713 1 0.670566 0.846837 0.508034
846 1 0.248693 0.919539 0.847657
777 1 0.338916 0.836697 0.664028
779 1 0.413309 0.844537 0.748814
780 1 0.327911 0.924926 0.770613
299 1 0.406265 0.998067 0.759902
784 1 0.493577 0.927229 0.751465
854 1 0.593968 0.925954 0.821486
783 1 0.57326 0.828005 0.729443
858 1 0.760829 0.935816 0.823769
785 1 0.668282 0.832291 0.66163
788 1 0.676396 0.910966 0.735749
787 1 0.75933 0.841396 0.755909
791 1 0.909525 0.833213 0.743264
769 1 0.995551 0.823143 0.663561
772 1 0.991454 0.924264 0.759922
792 1 0.848515 0.926788 0.754329
861 1 0.846439 0.842801 0.835214
862 1 0.924488 0.928295 0.846654
795 1 0.0875243 0.51016 0.929891
794 1 0.0946971 0.575711 0.82384
797 1 0.173085 0.509101 0.856276
665 1 0.646979 0.505622 0.505127
800 1 0.168041 0.585251 0.931397
798 1 0.24378 0.590045 0.826986
661 1 0.506901 0.501777 0.505843
804 1 0.313092 0.589829 0.911121
808 1 0.496602 0.593219 0.923142
803 1 0.411332 0.516395 0.919905
807 1 0.583941 0.513641 0.938117
809 1 0.663269 0.509364 0.858235
812 1 0.674145 0.58383 0.931791
811 1 0.747063 0.501514 0.918582
810 1 0.749408 0.588731 0.841855
833 1 0.663926 0.665624 0.845213
814 1 0.918448 0.585214 0.836585
816 1 0.82827 0.589601 0.914189
654 1 0.25856 0.576945 0.505432
796 1 0.0165526 0.59073 0.937792
819 1 0.089843 0.682181 0.918817
818 1 0.0956485 0.759383 0.832586
824 1 0.170076 0.765911 0.942069
821 1 0.171803 0.671902 0.846553
823 1 0.249819 0.679664 0.920776
822 1 0.245808 0.751795 0.829548
827 1 0.40728 0.685604 0.914479
829 1 0.492533 0.673035 0.845963
825 1 0.330862 0.668821 0.836953
828 1 0.336257 0.768598 0.913579
826 1 0.436969 0.764175 0.828927
832 1 0.510381 0.764122 0.908683
830 1 0.588178 0.763468 0.832867
831 1 0.580571 0.672613 0.923544
836 1 0.682216 0.754167 0.914249
365 1 0.165516 0.998129 0.838757
834 1 0.757168 0.751237 0.835071
835 1 0.750439 0.674504 0.920174
840 1 0.82826 0.770696 0.912684
817 1 0.997867 0.65918 0.83763
837 1 0.829311 0.67342 0.841793
839 1 0.910347 0.667384 0.920079
838 1 0.91846 0.73598 0.838897
820 1 0.00549646 0.750528 0.918371
239 1 0.925359 0.99662 0.581415
844 1 0.00573864 0.922305 0.921953
685 1 0.493622 0.679929 0.514317
843 1 0.094043 0.836297 0.922254
842 1 0.0817253 0.925018 0.829351
845 1 0.170566 0.839028 0.833705
729 1 0.32702 0.502419 0.685155
848 1 0.154867 0.920376 0.921936
847 1 0.253416 0.841737 0.914709
849 1 0.341118 0.8369 0.840167
852 1 0.337839 0.923533 0.914668
850 1 0.430985 0.913146 0.838124
851 1 0.421698 0.84731 0.924508
853 1 0.516471 0.843171 0.82464
860 1 0.66784 0.926316 0.921494
855 1 0.612238 0.836193 0.909406
856 1 0.516483 0.909547 0.908882
465 1 0.336307 0.68084 0.996362
489 1 0.343275 0.850228 0.998385
650 1 0.0917739 0.585437 0.508026
371 1 0.423679 0.98106 0.916558
714 1 0.761518 0.910154 0.518774
799 1 0.24898 0.50481 0.920774
717 1 0.839367 0.827143 0.508069
815 1 0.92968 0.508793 0.92081
375 1 0.584457 0.997371 0.918654
223 1 0.244708 0.999335 0.591576
445 1 0.498054 0.506174 0.998739
458 1 0.0783976 0.765981 0.999991
