ITEM: TIMESTEP
17250
ITEM: NUMBER OF ATOMS
864
ITEM: BOX BOUNDS pp pp pp
0.0000000000000000e+00 3.1559999999999999e+01
0.0000000000000000e+00 3.1559999999999999e+01
0.0000000000000000e+00 3.1559999999999999e+01
ITEM: ATOMS id type xs ys zs
4 1 0.0270226 0.0955712 0.0675326
38 1 0.118672 0.0970435 0.136526
3 1 0.114187 0.0143684 0.0704539
37 1 0.0385387 0.0205676 0.148614
8 1 0.218916 0.100326 0.0729131
42 1 0.283511 0.0959353 0.167883
53 1 0.201906 0.179467 0.155382
7 1 0.272262 0.0121125 0.0582704
41 1 0.207468 0.027152 0.147977
12 1 0.362908 0.0843593 0.0582922
46 1 0.442909 0.102922 0.14336
104 1 0.196074 0.422941 0.401923
45 1 0.353358 0.0125413 0.144293
15 1 0.126959 0.174619 0.0664474
16 1 0.0466809 0.259009 0.0554498
50 1 0.118638 0.244646 0.150276
49 1 0.0303921 0.17453 0.153174
61 1 0.0313175 0.343713 0.141452
19 1 0.282717 0.188575 0.0638445
20 1 0.19826 0.261624 0.0731599
54 1 0.277824 0.261141 0.14949
57 1 0.362117 0.186383 0.146773
24 1 0.354727 0.261757 0.0650078
23 1 0.441111 0.173103 0.0651408
58 1 0.45315 0.259659 0.12907
107 1 0.439627 0.339768 0.394779
27 1 0.117705 0.352985 0.0691858
28 1 0.0370738 0.435742 0.0630005
32 1 0.210164 0.427997 0.0747307
31 1 0.28444 0.342325 0.0646465
66 1 0.290767 0.440191 0.16182
69 1 0.355573 0.346788 0.146074
36 1 0.366043 0.423575 0.0767493
35 1 0.456193 0.354164 0.0616785
70 1 0.452599 0.420327 0.15205
79 1 0.276789 0.000248798 0.396694
40 1 0.0338841 0.0868768 0.236576
51 1 0.132524 0.161009 0.224843
85 1 0.0444421 0.171451 0.319665
74 1 0.109817 0.0836893 0.327788
75 1 0.108957 0.00605461 0.408388
44 1 0.214783 0.0939771 0.254801
78 1 0.291636 0.0985441 0.32834
47 1 0.428991 0.0111781 0.223673
106 1 0.442378 0.411476 0.326171
48 1 0.369666 0.0986336 0.2401
82 1 0.447817 0.102204 0.319711
255 1 0.126515 0.499452 0.23955
86 1 0.114713 0.260314 0.311876
52 1 0.0436145 0.255957 0.229652
55 1 0.290556 0.168532 0.254625
89 1 0.193555 0.179096 0.321783
56 1 0.197913 0.269408 0.232696
90 1 0.274773 0.253933 0.325128
59 1 0.443011 0.18444 0.217729
60 1 0.350422 0.25853 0.233329
94 1 0.451534 0.25987 0.308731
93 1 0.381901 0.174714 0.319204
62 1 0.125946 0.433916 0.148173
63 1 0.116856 0.349569 0.234831
64 1 0.0339699 0.436615 0.222372
98 1 0.123248 0.429326 0.322437
97 1 0.0311487 0.345019 0.310252
65 1 0.197378 0.340466 0.151079
101 1 0.202932 0.339039 0.323085
67 1 0.275425 0.339517 0.234668
68 1 0.202258 0.425968 0.22532
71 1 0.425808 0.334982 0.229087
105 1 0.358751 0.337268 0.316103
72 1 0.366245 0.426834 0.234355
76 1 0.0389291 0.099238 0.407282
110 1 0.110152 0.080763 0.493937
138 1 0.293922 0.438349 0.486073
11 1 0.443632 0.0064001 0.0705333
114 1 0.287805 0.0934224 0.479544
80 1 0.190961 0.0767875 0.407613
142 1 0.44753 0.416732 0.479353
118 1 0.43637 0.092099 0.480527
84 1 0.37292 0.0919131 0.402012
108 1 0.359807 0.431074 0.400307
83 1 0.446994 0.0210936 0.392958
121 1 0.0455497 0.175928 0.488816
122 1 0.116508 0.268473 0.480774
87 1 0.116646 0.177782 0.406594
88 1 0.0402151 0.264173 0.402654
99 1 0.126202 0.343564 0.402779
133 1 0.0416202 0.350489 0.490213
125 1 0.198596 0.179279 0.487839
126 1 0.286832 0.266638 0.473832
91 1 0.281988 0.175313 0.404638
92 1 0.196789 0.257168 0.411208
130 1 0.449449 0.2544 0.472386
95 1 0.453646 0.183499 0.404029
96 1 0.361302 0.25847 0.395859
129 1 0.362478 0.190284 0.479257
100 1 0.0358552 0.424911 0.400452
73 1 0.0295263 0.0057507 0.318631
113 1 0.194278 0.00846048 0.489888
137 1 0.212634 0.354412 0.495546
102 1 0.282812 0.43181 0.317517
141 1 0.371808 0.349044 0.488769
103 1 0.290894 0.350665 0.399303
117 1 0.355781 0.0169277 0.497376
39 1 0.116421 0.0172661 0.238465
43 1 0.277126 0.00257026 0.235368
134 1 0.122305 0.427491 0.493705
299 1 0.45618 0.498339 0.404558
146 1 0.108612 0.0922987 0.663229
145 1 0.0396662 0.00249331 0.657919
112 1 0.0378916 0.0826962 0.566606
116 1 0.208208 0.0881529 0.559009
150 1 0.266675 0.0996578 0.653064
149 1 0.193154 0.014851 0.647278
153 1 0.350284 0.0106794 0.655252
120 1 0.353096 0.0842001 0.575749
154 1 0.445078 0.094109 0.644851
119 1 0.453104 0.0133124 0.566119
124 1 0.0383904 0.255205 0.565004
123 1 0.125657 0.160438 0.560884
158 1 0.108792 0.264797 0.647049
157 1 0.032047 0.174943 0.648337
161 1 0.192774 0.182597 0.649431
127 1 0.27328 0.181712 0.561333
128 1 0.188481 0.256644 0.566429
162 1 0.282014 0.257354 0.640885
131 1 0.444268 0.178518 0.562522
165 1 0.348145 0.168344 0.633347
132 1 0.377443 0.261536 0.566699
166 1 0.461335 0.257708 0.653155
169 1 0.0314157 0.34597 0.634108
135 1 0.117708 0.342238 0.561481
170 1 0.114247 0.433103 0.633631
136 1 0.0250541 0.436267 0.567217
173 1 0.188544 0.347018 0.637686
139 1 0.283328 0.344849 0.571198
140 1 0.201971 0.433083 0.565664
174 1 0.278565 0.438345 0.635758
143 1 0.446396 0.352053 0.580966
177 1 0.361325 0.334428 0.655047
144 1 0.372065 0.423646 0.576237
178 1 0.4462 0.431773 0.649874
148 1 0.0212594 0.0901704 0.736262
182 1 0.108685 0.0925707 0.818983
147 1 0.125293 0.0184718 0.737073
221 1 0.204065 0.498996 0.992939
152 1 0.194947 0.108816 0.743611
186 1 0.283094 0.104451 0.820329
151 1 0.280383 0.0288469 0.738268
9 1 0.373535 0.00883995 0.979828
189 1 0.365911 0.0187844 0.820154
156 1 0.369901 0.0979996 0.711952
190 1 0.433758 0.100583 0.80801
167 1 0.450258 0.178534 0.731308
155 1 0.451448 0.0234975 0.743017
193 1 0.0252803 0.178718 0.802121
159 1 0.105035 0.18227 0.734691
194 1 0.111274 0.264993 0.816233
160 1 0.0388421 0.275335 0.720913
197 1 0.20924 0.191276 0.817172
163 1 0.279734 0.182609 0.731892
164 1 0.185715 0.261361 0.728165
198 1 0.285081 0.266709 0.808646
168 1 0.373338 0.246298 0.722167
201 1 0.362946 0.185267 0.817316
202 1 0.440013 0.261108 0.803607
205 1 0.0287842 0.351518 0.81037
172 1 0.0326095 0.430658 0.726218
171 1 0.113034 0.355953 0.720109
206 1 0.109479 0.417242 0.813867
175 1 0.285911 0.340874 0.721165
209 1 0.197077 0.342568 0.79226
210 1 0.288188 0.430258 0.813494
176 1 0.194673 0.43467 0.735059
179 1 0.459644 0.347581 0.716768
214 1 0.467771 0.434196 0.8071
180 1 0.36027 0.431004 0.715773
213 1 0.376019 0.351826 0.794956
1 1 0.0312631 0.00772107 0.977093
2 1 0.124798 0.0914692 0.977349
183 1 0.113625 0.0165673 0.897468
184 1 0.0329108 0.104218 0.918792
225 1 0.366527 0.495726 0.97215
187 1 0.289643 0.0111563 0.899131
188 1 0.199707 0.106468 0.89664
6 1 0.275148 0.0890146 0.984522
5 1 0.199224 0.0151112 0.975239
199 1 0.2878 0.192991 0.899548
191 1 0.443183 0.0186133 0.893148
10 1 0.436185 0.0995309 0.982734
192 1 0.356617 0.0918081 0.905636
21 1 0.364522 0.174139 0.996695
26 1 0.119961 0.434632 0.985463
13 1 0.051469 0.168673 0.988772
14 1 0.11589 0.270867 0.979387
195 1 0.110582 0.194745 0.895019
196 1 0.0226595 0.265105 0.888416
18 1 0.293879 0.266492 0.974012
200 1 0.200903 0.268574 0.89827
17 1 0.20163 0.183251 0.983289
203 1 0.449942 0.203656 0.903839
204 1 0.370395 0.283254 0.881471
22 1 0.432364 0.258987 0.994195
25 1 0.0407763 0.343677 0.99241
208 1 0.0451956 0.424565 0.898263
207 1 0.116288 0.345673 0.894237
211 1 0.273943 0.347549 0.891993
212 1 0.198321 0.429858 0.893664
29 1 0.198445 0.346778 0.985659
30 1 0.279937 0.424345 0.990014
34 1 0.459853 0.416374 0.974703
215 1 0.441397 0.358184 0.882318
216 1 0.357198 0.419118 0.901262
33 1 0.375059 0.35248 0.991126
185 1 0.197763 0.0104209 0.831151
407 1 0.465309 0.496264 0.897316
220 1 0.0386903 0.585011 0.0581924
219 1 0.119246 0.511234 0.07562
253 1 0.0361979 0.512813 0.148925
224 1 0.207625 0.599385 0.0691551
258 1 0.278356 0.604768 0.160818
357 1 0.361536 0.830262 0.480392
257 1 0.196984 0.512114 0.153425
228 1 0.368615 0.579024 0.0551025
262 1 0.438178 0.592699 0.161686
261 1 0.374729 0.508783 0.156855
289 1 0.0310087 0.516363 0.309976
231 1 0.119492 0.677267 0.0589496
232 1 0.0302131 0.759176 0.0583124
266 1 0.108852 0.770956 0.136092
265 1 0.0515524 0.676063 0.134736
269 1 0.200025 0.685663 0.140315
236 1 0.200494 0.775981 0.0639902
235 1 0.285101 0.68253 0.0611095
270 1 0.281672 0.76963 0.137959
240 1 0.370385 0.76664 0.074569
273 1 0.358033 0.686848 0.139694
239 1 0.448018 0.66419 0.0606467
274 1 0.442111 0.753755 0.149596
81 1 0.357153 0.999391 0.309802
244 1 0.0375942 0.93111 0.0579835
243 1 0.107147 0.843073 0.0473183
278 1 0.0975954 0.917038 0.151156
247 1 0.285661 0.861378 0.0663331
248 1 0.183564 0.936683 0.0652007
282 1 0.275955 0.939706 0.137676
281 1 0.212701 0.857854 0.146138
323 1 0.442195 0.826385 0.388704
251 1 0.449749 0.851417 0.0584943
285 1 0.360987 0.859351 0.150662
252 1 0.370671 0.926357 0.0666721
286 1 0.449662 0.912238 0.142429
254 1 0.123267 0.602489 0.146419
223 1 0.288536 0.508929 0.07038
290 1 0.127682 0.589995 0.32345
256 1 0.0313129 0.59871 0.243779
333 1 0.383054 0.505934 0.482164
260 1 0.195922 0.60298 0.23854
294 1 0.282051 0.601365 0.322331
325 1 0.0255046 0.517809 0.481008
259 1 0.288231 0.51488 0.232248
263 1 0.449838 0.502723 0.229149
264 1 0.374978 0.589117 0.236309
298 1 0.459138 0.592357 0.32672
267 1 0.118327 0.689786 0.249784
268 1 0.016051 0.760787 0.219795
302 1 0.114266 0.765783 0.31796
301 1 0.0402207 0.686763 0.314134
305 1 0.205836 0.677422 0.326383
272 1 0.19888 0.774157 0.215685
306 1 0.271788 0.762529 0.311445
271 1 0.280424 0.690017 0.23241
275 1 0.450017 0.687678 0.226793
276 1 0.357334 0.753611 0.218176
310 1 0.459058 0.749313 0.312863
309 1 0.363025 0.678471 0.302273
313 1 0.0272792 0.847708 0.312182
279 1 0.112747 0.84976 0.223555
280 1 0.030912 0.923604 0.242133
314 1 0.115483 0.927511 0.303834
318 1 0.287995 0.913467 0.319405
283 1 0.299908 0.840603 0.230564
284 1 0.191968 0.942327 0.220612
317 1 0.192335 0.847487 0.308776
321 1 0.381223 0.831301 0.299717
287 1 0.446371 0.845608 0.220186
322 1 0.439727 0.929587 0.298863
288 1 0.362781 0.926198 0.224144
77 1 0.196902 0.999729 0.316559
292 1 0.0408896 0.590476 0.405071
326 1 0.121975 0.585102 0.481134
293 1 0.214596 0.50919 0.312756
329 1 0.197298 0.50775 0.475779
330 1 0.276841 0.609571 0.481646
296 1 0.204924 0.590138 0.409244
295 1 0.289846 0.5273 0.413947
297 1 0.366821 0.523657 0.322298
109 1 0.0221253 0.991213 0.471345
291 1 0.114909 0.502445 0.401593
334 1 0.461569 0.588864 0.471791
300 1 0.366855 0.602905 0.408389
337 1 0.0355622 0.680483 0.481565
304 1 0.0350531 0.77432 0.404972
303 1 0.114935 0.680488 0.397873
227 1 0.448564 0.503983 0.0656441
342 1 0.276546 0.753438 0.490694
341 1 0.195967 0.68115 0.480576
308 1 0.198281 0.768073 0.389048
307 1 0.275123 0.683011 0.399656
345 1 0.365861 0.692611 0.47508
311 1 0.450949 0.675739 0.403863
312 1 0.356611 0.760926 0.372621
346 1 0.455569 0.759709 0.470789
358 1 0.453719 0.93118 0.480879
316 1 0.0310619 0.914627 0.399204
315 1 0.12841 0.852695 0.395393
349 1 0.0383123 0.843709 0.496755
354 1 0.283302 0.921056 0.487828
319 1 0.288718 0.837869 0.401915
320 1 0.210832 0.920794 0.400105
353 1 0.198381 0.838915 0.480164
338 1 0.118275 0.768146 0.470813
350 1 0.122145 0.923896 0.487742
324 1 0.375624 0.92046 0.393585
234 1 0.28556 0.773239 0.00195164
277 1 0.00213623 0.843347 0.142073
362 1 0.118032 0.604361 0.646287
328 1 0.0479492 0.609472 0.565813
327 1 0.105484 0.519014 0.56415
361 1 0.0325026 0.517217 0.643868
332 1 0.196348 0.589756 0.569364
366 1 0.272615 0.582971 0.650721
331 1 0.278263 0.519664 0.563761
365 1 0.190976 0.514562 0.650833
336 1 0.375386 0.595872 0.538173
369 1 0.36483 0.513222 0.639139
370 1 0.45399 0.609062 0.640887
335 1 0.462189 0.506944 0.559694
373 1 0.0317424 0.669751 0.658357
339 1 0.133157 0.6747 0.558569
340 1 0.0484108 0.759465 0.563325
374 1 0.112265 0.748323 0.643136
343 1 0.280589 0.6748 0.573215
377 1 0.199136 0.673166 0.64054
344 1 0.192124 0.760429 0.567795
378 1 0.277164 0.7703 0.65082
381 1 0.365422 0.681634 0.650761
347 1 0.456957 0.685779 0.562268
348 1 0.365365 0.755496 0.570993
382 1 0.442131 0.76137 0.640613
385 1 0.0366528 0.836305 0.655038
351 1 0.114998 0.840909 0.571416
386 1 0.12058 0.926419 0.664851
352 1 0.0355586 0.913464 0.574669
250 1 0.452732 0.937528 0.97159
355 1 0.281456 0.845352 0.558981
389 1 0.188534 0.833144 0.659296
356 1 0.202706 0.924706 0.56616
390 1 0.287182 0.914346 0.64801
249 1 0.373441 0.860978 0.982704
359 1 0.461181 0.843122 0.563667
393 1 0.3692 0.843911 0.650719
360 1 0.373342 0.929495 0.571476
394 1 0.442726 0.937197 0.665928
364 1 0.0453063 0.576383 0.727512
398 1 0.104046 0.58968 0.823651
397 1 0.0378595 0.512393 0.815435
403 1 0.282571 0.509862 0.900798
367 1 0.274675 0.504534 0.736528
368 1 0.185159 0.590672 0.725905
402 1 0.289477 0.587617 0.799143
401 1 0.185805 0.51351 0.811209
371 1 0.45225 0.508693 0.72675
372 1 0.369665 0.582741 0.716897
406 1 0.449989 0.570882 0.825382
375 1 0.126127 0.681718 0.740371
376 1 0.0341392 0.756911 0.729815
410 1 0.139029 0.76009 0.835272
409 1 0.028058 0.691046 0.808028
379 1 0.272938 0.65883 0.723409
413 1 0.206678 0.645723 0.821792
380 1 0.197289 0.75728 0.738131
414 1 0.280683 0.763024 0.814881
417 1 0.367205 0.685534 0.817681
383 1 0.435649 0.691783 0.745102
384 1 0.361633 0.760005 0.731085
418 1 0.43898 0.765373 0.820492
421 1 0.0377759 0.833696 0.81385
388 1 0.04249 0.915092 0.740501
387 1 0.115407 0.840649 0.733738
422 1 0.119327 0.93558 0.81816
425 1 0.193118 0.855714 0.824623
391 1 0.278108 0.845028 0.738195
392 1 0.203363 0.948304 0.723733
426 1 0.293131 0.930336 0.809771
395 1 0.450498 0.846162 0.728489
429 1 0.369674 0.8488 0.813466
396 1 0.356555 0.913768 0.728353
430 1 0.442762 0.936892 0.810629
400 1 0.0335648 0.606652 0.900329
218 1 0.133173 0.586694 0.991815
399 1 0.112472 0.523746 0.905695
428 1 0.193862 0.930594 0.905172
111 1 0.121708 0.996365 0.573429
404 1 0.210738 0.585102 0.917916
222 1 0.28897 0.579401 0.981624
233 1 0.211867 0.675451 0.985252
217 1 0.0357044 0.514545 0.974299
408 1 0.359185 0.586096 0.88582
226 1 0.434016 0.584054 0.966834
432 1 0.36731 0.933695 0.895136
230 1 0.129597 0.755182 0.982093
229 1 0.0392743 0.680366 0.985818
412 1 0.0350599 0.756394 0.901572
411 1 0.124067 0.678572 0.907283
431 1 0.444425 0.848655 0.892952
415 1 0.290468 0.680321 0.894718
416 1 0.218762 0.771096 0.913971
245 1 0.206616 0.854458 0.996403
238 1 0.446612 0.771662 0.982115
115 1 0.281698 0.99543 0.573733
419 1 0.432597 0.681267 0.892198
420 1 0.347817 0.776375 0.893944
241 1 0.0362673 0.840627 0.968993
423 1 0.119622 0.851199 0.901207
242 1 0.0991632 0.93073 0.97345
424 1 0.0219392 0.929704 0.89778
246 1 0.281042 0.941309 0.992465
427 1 0.279683 0.859982 0.89077
363 1 0.117405 0.506916 0.727957
237 1 0.372374 0.695324 0.993472
405 1 0.358666 0.501701 0.816537
181 1 0.0277816 0.999098 0.810583
470 1 0.613008 0.0779008 0.155477
436 1 0.526215 0.0919635 0.0737233
469 1 0.509244 0.015644 0.154292
435 1 0.6132 0.0228304 0.0673333
440 1 0.689303 0.121699 0.0763676
474 1 0.779553 0.0964952 0.148224
439 1 0.774544 0.0115671 0.0677439
473 1 0.698708 0.0147582 0.140238
444 1 0.884221 0.101715 0.0793806
478 1 0.957938 0.0994327 0.153416
573 1 0.874347 0.329474 0.469898
443 1 0.959528 0.0150654 0.0740424
477 1 0.868681 0.0154229 0.140099
447 1 0.615205 0.190987 0.0598399
482 1 0.607998 0.273002 0.153404
448 1 0.530406 0.25703 0.0478362
481 1 0.534018 0.181176 0.129484
451 1 0.790124 0.183575 0.0619724
485 1 0.705247 0.195568 0.159077
452 1 0.70658 0.261833 0.0540209
486 1 0.796869 0.260825 0.133957
489 1 0.859981 0.181943 0.150865
456 1 0.876735 0.254443 0.0630812
455 1 0.961867 0.176838 0.0497615
490 1 0.944836 0.244294 0.154036
459 1 0.623836 0.336567 0.0542361
460 1 0.557113 0.417427 0.05999
493 1 0.519859 0.343575 0.142333
494 1 0.631828 0.428244 0.145839
497 1 0.703053 0.333158 0.146822
463 1 0.777202 0.347364 0.0713179
464 1 0.696462 0.425782 0.0638262
498 1 0.780967 0.431065 0.140662
467 1 0.940323 0.334422 0.0728844
468 1 0.860723 0.427741 0.07344
501 1 0.863135 0.346332 0.137793
502 1 0.95632 0.432753 0.157844
723 1 0.628964 0.499025 0.388955
506 1 0.59793 0.100075 0.318364
472 1 0.525126 0.111608 0.221458
549 1 0.873418 0.0087829 0.471631
505 1 0.517038 0.0196029 0.306635
476 1 0.691958 0.0964928 0.229228
510 1 0.78911 0.0916527 0.315284
475 1 0.772642 0.0172588 0.223871
509 1 0.700359 0.0179334 0.320383
480 1 0.860951 0.106462 0.232097
514 1 0.955838 0.0997711 0.32248
513 1 0.866085 0.00527299 0.3127
491 1 0.950114 0.173603 0.240581
479 1 0.941689 0.00735529 0.239166
484 1 0.524866 0.268256 0.222051
517 1 0.514977 0.184786 0.3136
483 1 0.608329 0.180876 0.232512
518 1 0.606322 0.260615 0.303588
521 1 0.694734 0.191925 0.314149
487 1 0.787177 0.17564 0.25277
488 1 0.694774 0.265736 0.235042
522 1 0.778918 0.267105 0.319495
525 1 0.865193 0.174583 0.329181
492 1 0.860594 0.252366 0.237298
526 1 0.964296 0.241061 0.331144
495 1 0.613255 0.355728 0.226314
496 1 0.519417 0.41395 0.237802
529 1 0.52824 0.342411 0.324847
530 1 0.607569 0.428976 0.310669
499 1 0.789267 0.339747 0.226076
533 1 0.694526 0.348626 0.310446
534 1 0.78822 0.432605 0.311011
500 1 0.712311 0.416763 0.22554
537 1 0.884682 0.34353 0.302376
503 1 0.961266 0.33338 0.223892
538 1 0.956097 0.43424 0.319133
504 1 0.867325 0.428079 0.224586
507 1 0.613405 0.0231137 0.390484
508 1 0.518224 0.104671 0.414074
542 1 0.61598 0.0755159 0.4869
512 1 0.70035 0.0953198 0.390142
546 1 0.780672 0.0887882 0.474905
541 1 0.52523 0.0123013 0.473598
725 1 0.700515 0.494802 0.301504
550 1 0.953884 0.0910874 0.486651
515 1 0.950722 0.0108314 0.393458
516 1 0.864411 0.0926275 0.394508
471 1 0.623228 0.00518619 0.234272
553 1 0.52782 0.177484 0.4871
519 1 0.611398 0.176492 0.401383
520 1 0.541217 0.256411 0.394132
554 1 0.624835 0.265743 0.474701
557 1 0.693086 0.157966 0.491708
523 1 0.768876 0.185171 0.393717
558 1 0.765765 0.252604 0.478897
524 1 0.699307 0.286922 0.394068
562 1 0.948322 0.255764 0.479
561 1 0.867787 0.183197 0.490549
527 1 0.960685 0.165258 0.412439
528 1 0.87188 0.273818 0.380873
565 1 0.537415 0.344099 0.486752
531 1 0.606532 0.34791 0.385857
532 1 0.531145 0.431386 0.403579
566 1 0.622613 0.434261 0.476121
535 1 0.786861 0.344237 0.384777
569 1 0.706795 0.347642 0.483449
536 1 0.701816 0.409706 0.399066
570 1 0.785391 0.420787 0.476138
539 1 0.953951 0.350455 0.397855
540 1 0.860035 0.418992 0.393512
574 1 0.945176 0.423933 0.470203
511 1 0.785861 0.00498697 0.392291
685 1 0.519156 0.496212 0.153547
544 1 0.535415 0.0929859 0.557533
578 1 0.61455 0.0798769 0.640828
577 1 0.530816 0.0226853 0.638851
547 1 0.785381 0.010433 0.56284
548 1 0.702173 0.0901103 0.573128
582 1 0.780443 0.100911 0.656359
585 1 0.856208 0.0190064 0.652542
442 1 0.94761 0.0858503 0.982827
552 1 0.852715 0.0902861 0.568671
586 1 0.948222 0.0907514 0.640789
563 1 0.956828 0.16917 0.562203
648 1 0.865406 0.42545 0.895747
551 1 0.959567 0.012837 0.561514
555 1 0.615627 0.168544 0.564723
556 1 0.550562 0.267549 0.567599
590 1 0.61585 0.263244 0.665563
589 1 0.533961 0.174643 0.631994
567 1 0.636472 0.349748 0.57143
559 1 0.780063 0.179742 0.573012
593 1 0.695731 0.178363 0.655724
560 1 0.697498 0.26048 0.5676
594 1 0.781947 0.26461 0.637861
571 1 0.796551 0.347149 0.547945
597 1 0.859383 0.182651 0.644959
564 1 0.871311 0.267178 0.561499
598 1 0.953345 0.263373 0.644335
602 1 0.638303 0.432776 0.645779
568 1 0.533026 0.427778 0.558202
601 1 0.53062 0.350018 0.640037
605 1 0.710434 0.357517 0.642431
572 1 0.710208 0.42856 0.554723
606 1 0.798503 0.430523 0.630033
575 1 0.9456 0.348695 0.554964
609 1 0.877079 0.344236 0.645084
576 1 0.871762 0.430904 0.557689
610 1 0.936235 0.424502 0.643839
580 1 0.526356 0.100972 0.723448
614 1 0.610346 0.0999526 0.80632
625 1 0.529025 0.17349 0.803864
613 1 0.532157 0.0121651 0.817423
579 1 0.614855 0.0163666 0.735226
584 1 0.690128 0.0833173 0.728078
618 1 0.779286 0.0806545 0.822537
583 1 0.777389 0.0206806 0.724005
588 1 0.861915 0.100378 0.746444
622 1 0.952988 0.0923453 0.820174
621 1 0.873444 0.001593 0.819804
587 1 0.940197 0.0171486 0.735306
591 1 0.613078 0.169067 0.711447
592 1 0.52631 0.265947 0.729438
626 1 0.598516 0.250463 0.808172
629 1 0.702777 0.175612 0.824714
596 1 0.702654 0.260754 0.74519
595 1 0.7885 0.182033 0.743441
630 1 0.775441 0.256379 0.825349
599 1 0.942797 0.169603 0.723861
600 1 0.874181 0.261547 0.721664
634 1 0.959342 0.258679 0.802111
633 1 0.88117 0.179586 0.818393
637 1 0.524008 0.342207 0.801654
603 1 0.626842 0.354417 0.719795
638 1 0.630498 0.437364 0.796991
604 1 0.539165 0.423747 0.722793
641 1 0.705491 0.338126 0.813517
607 1 0.789617 0.327017 0.731687
608 1 0.728445 0.428564 0.721169
642 1 0.79362 0.44673 0.814264
646 1 0.954742 0.432701 0.821062
645 1 0.891068 0.354881 0.820344
611 1 0.9533 0.357045 0.723781
612 1 0.864665 0.422073 0.734976
433 1 0.521383 0.0219346 0.986127
616 1 0.511705 0.0961198 0.888527
615 1 0.597486 0.0084066 0.901008
434 1 0.603545 0.0964238 0.979219
627 1 0.596472 0.16333 0.895061
619 1 0.776506 0.0148905 0.909239
437 1 0.671462 0.00716441 0.981286
620 1 0.685508 0.0922238 0.915388
438 1 0.774717 0.0957046 0.982755
617 1 0.694458 0.0204892 0.822066
624 1 0.864028 0.0890627 0.885657
623 1 0.944191 0.0105431 0.903031
465 1 0.857758 0.349222 0.979215
628 1 0.533205 0.278081 0.889555
446 1 0.612845 0.251897 0.961882
445 1 0.517437 0.165933 0.988393
450 1 0.78977 0.260106 0.977035
449 1 0.701835 0.183463 0.973116
631 1 0.78365 0.180969 0.899713
632 1 0.702078 0.268137 0.900186
454 1 0.962597 0.251423 0.974562
635 1 0.959719 0.176274 0.892702
636 1 0.875597 0.246571 0.903615
453 1 0.871564 0.16326 0.966154
639 1 0.619762 0.355125 0.89765
640 1 0.548238 0.434273 0.879876
457 1 0.534463 0.34069 0.975125
458 1 0.618447 0.44982 0.9801
462 1 0.78932 0.432702 0.993752
643 1 0.79343 0.34481 0.891955
461 1 0.705424 0.357551 0.978204
644 1 0.713025 0.442049 0.906743
647 1 0.951892 0.350542 0.903116
581 1 0.698917 0.00478272 0.644238
466 1 0.939309 0.413313 0.999103
441 1 0.862572 0.0255546 0.996904
686 1 0.628567 0.611767 0.136181
652 1 0.535897 0.58956 0.0634174
651 1 0.609072 0.518752 0.0812159
755 1 0.951341 0.834835 0.388652
656 1 0.715274 0.608792 0.0671786
690 1 0.784386 0.600825 0.155891
655 1 0.785211 0.526039 0.0625717
689 1 0.715989 0.515805 0.159453
660 1 0.871091 0.593402 0.0574242
694 1 0.968735 0.593522 0.140573
671 1 0.96077 0.674631 0.0615294
693 1 0.866457 0.514392 0.153571
659 1 0.940917 0.508076 0.0745274
663 1 0.621611 0.687635 0.0573115
698 1 0.622556 0.766013 0.141415
664 1 0.525137 0.743948 0.0649595
697 1 0.53459 0.688316 0.159416
667 1 0.784041 0.694345 0.0566463
701 1 0.717081 0.686612 0.166913
668 1 0.705323 0.786534 0.0561586
702 1 0.790288 0.765822 0.154878
705 1 0.866575 0.666463 0.159636
672 1 0.864948 0.762452 0.0474995
706 1 0.948203 0.755356 0.134236
717 1 0.877894 0.830696 0.140704
675 1 0.599063 0.841234 0.051577
710 1 0.604192 0.915971 0.14068
709 1 0.533892 0.825773 0.145056
676 1 0.532074 0.951599 0.0735718
679 1 0.798079 0.857164 0.0652071
713 1 0.697936 0.847642 0.14814
680 1 0.695889 0.916648 0.0613126
714 1 0.788852 0.928241 0.150222
683 1 0.951868 0.833749 0.0419607
684 1 0.873482 0.937241 0.0672059
718 1 0.958091 0.942388 0.144173
722 1 0.616585 0.597963 0.305869
688 1 0.527847 0.587275 0.236692
545 1 0.709046 0.999878 0.471471
687 1 0.616581 0.511919 0.225275
731 1 0.953581 0.508155 0.396288
692 1 0.700171 0.603167 0.230284
726 1 0.779259 0.602657 0.315162
691 1 0.790316 0.512869 0.242747
696 1 0.856588 0.587251 0.231435
730 1 0.949592 0.598236 0.3211
756 1 0.872016 0.937407 0.395683
729 1 0.866225 0.510912 0.329207
733 1 0.536631 0.671802 0.313151
699 1 0.612101 0.6758 0.236245
734 1 0.621403 0.762343 0.309984
700 1 0.529214 0.756397 0.235498
703 1 0.795531 0.679985 0.237078
704 1 0.692638 0.771717 0.233278
738 1 0.781761 0.767407 0.301038
737 1 0.708983 0.694157 0.294581
741 1 0.864195 0.683856 0.316341
707 1 0.948205 0.670475 0.233454
708 1 0.867319 0.76551 0.237411
742 1 0.949862 0.761606 0.30643
719 1 0.930553 0.840299 0.240526
745 1 0.52847 0.854784 0.297496
711 1 0.618148 0.842393 0.221151
746 1 0.609019 0.940998 0.330272
712 1 0.521383 0.935551 0.229155
715 1 0.781883 0.853515 0.232438
749 1 0.711214 0.847673 0.322496
716 1 0.688977 0.925007 0.235795
750 1 0.775306 0.938947 0.299522
753 1 0.859649 0.841145 0.323064
720 1 0.865841 0.929323 0.223227
754 1 0.943215 0.919185 0.307447
724 1 0.543167 0.590969 0.40466
721 1 0.524843 0.50145 0.318327
789 1 0.860237 0.854646 0.464733
785 1 0.691449 0.852749 0.472315
761 1 0.704433 0.511625 0.483262
762 1 0.784844 0.58597 0.467571
728 1 0.701284 0.575814 0.375316
727 1 0.786616 0.504854 0.397783
765 1 0.887694 0.508412 0.471853
732 1 0.871559 0.598707 0.397709
766 1 0.954418 0.603226 0.482073
782 1 0.610372 0.917791 0.475332
770 1 0.616777 0.761842 0.476
769 1 0.541533 0.674807 0.481292
735 1 0.619592 0.687313 0.383689
736 1 0.53433 0.750936 0.384644
781 1 0.526053 0.840896 0.473733
739 1 0.77514 0.661516 0.39943
695 1 0.946319 0.517155 0.224666
740 1 0.706374 0.749893 0.382519
778 1 0.949166 0.767937 0.487913
743 1 0.956423 0.690278 0.392064
744 1 0.874425 0.758151 0.401758
777 1 0.869003 0.672476 0.480846
790 1 0.94802 0.911729 0.47332
748 1 0.524109 0.940953 0.394499
747 1 0.604792 0.851626 0.379018
774 1 0.779042 0.770149 0.481033
786 1 0.789431 0.944512 0.482222
752 1 0.701193 0.929852 0.395624
751 1 0.780374 0.851833 0.400689
757 1 0.545635 0.523029 0.494625
773 1 0.69585 0.697035 0.483267
794 1 0.619609 0.594181 0.649479
760 1 0.544437 0.605042 0.566126
793 1 0.542953 0.508991 0.648237
650 1 0.615106 0.601829 0.984661
764 1 0.713763 0.574699 0.568612
798 1 0.803778 0.599354 0.655403
763 1 0.801695 0.502659 0.554131
682 1 0.951678 0.931854 0.989357
768 1 0.874848 0.595928 0.556884
802 1 0.955766 0.594254 0.652667
767 1 0.952192 0.513571 0.566132
801 1 0.870045 0.503722 0.643321
805 1 0.530661 0.696284 0.657364
771 1 0.606507 0.690293 0.588018
806 1 0.633778 0.766237 0.657927
772 1 0.532611 0.767602 0.561907
817 1 0.539208 0.83056 0.658365
809 1 0.70331 0.674945 0.638211
775 1 0.785868 0.665722 0.574938
776 1 0.687969 0.770353 0.55972
810 1 0.777178 0.764154 0.645383
779 1 0.952319 0.679263 0.558087
780 1 0.851263 0.751242 0.566667
813 1 0.872871 0.678013 0.646197
814 1 0.956202 0.756757 0.659887
783 1 0.610208 0.849539 0.573947
784 1 0.521308 0.917611 0.577292
818 1 0.614014 0.937383 0.663946
863 1 0.959998 0.840445 0.893432
821 1 0.704848 0.85449 0.65772
787 1 0.776606 0.847468 0.55727
788 1 0.699539 0.924029 0.563858
822 1 0.784889 0.935662 0.645369
791 1 0.939159 0.835904 0.580068
792 1 0.868329 0.907792 0.56425
825 1 0.860127 0.850079 0.659785
826 1 0.938613 0.924523 0.65612
830 1 0.622442 0.595702 0.804389
796 1 0.52216 0.597731 0.723504
829 1 0.541073 0.512563 0.797288
795 1 0.61544 0.512926 0.729846
800 1 0.701939 0.594039 0.717816
834 1 0.780604 0.612028 0.812385
799 1 0.80414 0.524189 0.724506
681 1 0.877528 0.845707 0.96087
803 1 0.940248 0.518603 0.72959
804 1 0.855596 0.611778 0.743807
838 1 0.958935 0.592465 0.81594
815 1 0.950265 0.670613 0.737188
837 1 0.872415 0.52627 0.823967
807 1 0.624204 0.6783 0.726658
808 1 0.520155 0.759341 0.74964
841 1 0.513334 0.671286 0.823779
845 1 0.702252 0.679813 0.811865
811 1 0.766062 0.692529 0.719986
812 1 0.69836 0.769471 0.744909
846 1 0.782759 0.763502 0.824726
849 1 0.865485 0.683729 0.807401
816 1 0.86567 0.762347 0.721332
850 1 0.949074 0.767144 0.811914
820 1 0.525806 0.936893 0.737099
819 1 0.622529 0.851007 0.73946
853 1 0.533991 0.84653 0.811433
854 1 0.611956 0.935733 0.815566
823 1 0.786592 0.847351 0.73676
857 1 0.685913 0.856862 0.821312
824 1 0.700828 0.928479 0.737877
858 1 0.776492 0.948168 0.814362
861 1 0.86283 0.840998 0.813537
827 1 0.95489 0.84831 0.73108
862 1 0.95359 0.918745 0.8208
828 1 0.867306 0.937047 0.739189
833 1 0.715199 0.524557 0.805948
832 1 0.532502 0.578662 0.892187
797 1 0.714962 0.51273 0.650924
649 1 0.530614 0.509149 0.992987
654 1 0.774725 0.596471 0.979689
836 1 0.701434 0.582196 0.898904
759 1 0.628156 0.506288 0.562877
835 1 0.786228 0.517422 0.898067
840 1 0.870734 0.612309 0.89644
658 1 0.951625 0.591135 0.973021
851 1 0.959962 0.688052 0.885213
831 1 0.626657 0.508939 0.881579
842 1 0.603085 0.757203 0.818384
661 1 0.509607 0.666428 0.967535
662 1 0.600188 0.761408 0.972546
844 1 0.514808 0.764237 0.894859
843 1 0.614483 0.674168 0.891154
673 1 0.529506 0.846826 0.981588
666 1 0.77457 0.770171 0.984349
665 1 0.692215 0.679149 0.973912
847 1 0.773911 0.690888 0.901001
848 1 0.700988 0.770442 0.898007
669 1 0.865009 0.674377 0.988879
852 1 0.860358 0.751658 0.889066
670 1 0.944778 0.75742 0.965857
856 1 0.518382 0.932886 0.889933
855 1 0.595777 0.841302 0.897802
674 1 0.596132 0.935847 0.977056
677 1 0.704346 0.851382 0.974955
678 1 0.784258 0.931509 0.986789
859 1 0.787978 0.853977 0.902646
860 1 0.689134 0.933895 0.898529
864 1 0.867924 0.93204 0.900472
839 1 0.951931 0.502036 0.900596
657 1 0.881063 0.509593 0.982939
543 1 0.610863 0.987781 0.558855
653 1 0.698824 0.515577 0.989801
758 1 0.630709 0.596612 0.502705
