ITEM: TIMESTEP
9250
ITEM: NUMBER OF ATOMS
864
ITEM: BOX BOUNDS pp pp pp
0.0000000000000000e+00 3.1559999999999999e+01
0.0000000000000000e+00 3.1559999999999999e+01
0.0000000000000000e+00 3.1559999999999999e+01
ITEM: ATOMS id type xs ys zs
8 1 0.163007 0.0990794 0.0920416
4 1 7.93812e-05 0.0931783 0.09826
3 1 0.0806361 0.00815187 0.0906783
2 1 0.0830854 0.0895798 0.0136305
12 1 0.33012 0.0960882 0.0974025
16 1 0.496118 0.092425 0.103435
157 1 0.501142 0.0214497 0.313998
62 1 0.590827 0.410851 0.000607504
20 1 0.657723 0.0969598 0.0803192
86 1 0.577206 0.0764837 0.175017
24 1 0.838264 0.0869369 0.09118
19 1 0.751609 0.00931398 0.0784329
515 1 0.421893 0.488911 0.235827
597 1 0.829977 0.491982 0.33039
15 1 0.59436 0.00554234 0.0852636
22 1 0.923581 0.0829956 0.00805207
27 1 0.0824622 0.184802 0.105136
32 1 0.170856 0.259205 0.0960509
98 1 0.0624461 0.26921 0.175103
31 1 0.265513 0.178146 0.0781428
55 1 0.250366 0.340962 0.0758329
129 1 0.335696 0.329382 0.186721
34 1 0.397666 0.250143 0.008371
36 1 0.332506 0.26346 0.105809
35 1 0.403836 0.177946 0.0896828
11 1 0.40752 0.00483225 0.0882215
40 1 0.502806 0.257591 0.0815854
39 1 0.571862 0.159814 0.0973382
110 1 0.59341 0.245078 0.166632
9 1 0.33695 0.0140757 0.000829265
511 1 0.257636 0.497997 0.248201
37 1 0.498151 0.177368 0.00893761
44 1 0.673059 0.264043 0.088409
43 1 0.765807 0.180612 0.0896367
7 1 0.246114 0.0106318 0.0898049
10 1 0.421978 0.0890745 0.0139031
89 1 0.673616 0.00127993 0.168433
209 1 0.68043 0.342833 0.336872
47 1 0.913811 0.170496 0.0985415
28 1 0.0119082 0.258099 0.0777629
48 1 0.851318 0.261591 0.0808082
51 1 0.0827066 0.341647 0.0835294
196 1 0.997545 0.412373 0.42557
56 1 0.176272 0.428431 0.0968473
52 1 0.999153 0.422591 0.0759323
125 1 0.17399 0.333775 0.170739
121 1 0.0111988 0.357999 0.154113
60 1 0.32791 0.416244 0.0761437
79 1 0.246304 0.00448975 0.246844
589 1 0.501615 0.497778 0.335276
59 1 0.407124 0.340087 0.0868345
130 1 0.407693 0.406618 0.175758
23 1 0.929616 0.00242007 0.0811555
85 1 0.477246 0.0113381 0.175659
64 1 0.48955 0.419062 0.0733539
63 1 0.579242 0.336316 0.0705754
517 1 0.511755 0.495157 0.163327
67 1 0.77134 0.334981 0.0860717
68 1 0.677908 0.414336 0.0783843
6 1 0.24859 0.0923898 0.00958408
137 1 0.681164 0.343863 0.162812
138 1 0.746861 0.429171 0.154624
447 1 0.589926 0.486146 0.0663537
71 1 0.923684 0.344684 0.0889175
72 1 0.849125 0.416657 0.092619
142 1 0.923766 0.439618 0.174476
74 1 0.0818431 0.0905623 0.164808
13 1 0.498319 0.011099 0.00240721
146 1 0.086616 0.0765979 0.340133
80 1 0.163001 0.0785962 0.254199
99 1 0.0696556 0.169398 0.261896
78 1 0.258845 0.104466 0.179771
84 1 0.327525 0.0954626 0.267449
81 1 0.327424 0.0156161 0.167872
151 1 0.241259 0.00780216 0.419578
46 1 0.926196 0.247736 0.0100773
82 1 0.412594 0.100191 0.174114
154 1 0.407265 0.0992953 0.336921
83 1 0.409299 0.0144918 0.265329
113 1 0.673762 0.176247 0.169178
595 1 0.744344 0.49797 0.423193
88 1 0.484204 0.100798 0.256693
92 1 0.681126 0.0926927 0.245277
87 1 0.587155 0.00504837 0.253807
158 1 0.584238 0.0882705 0.336541
90 1 0.743925 0.0895271 0.163919
96 1 0.830401 0.0674174 0.240711
507 1 0.0812603 0.49561 0.280268
5 1 0.164738 0.0102839 0.0139949
117 1 0.832521 0.16463 0.169574
165 1 0.835961 0.0083075 0.332494
97 1 0.999912 0.168943 0.185845
94 1 0.911799 0.0805796 0.168363
76 1 0.00303343 0.0836831 0.259939
25 1 0.00829051 0.167446 0.0172659
73 1 0.00111761 0.00381711 0.171075
101 1 0.171211 0.174963 0.179609
104 1 0.150263 0.263705 0.246345
103 1 0.234407 0.170053 0.265263
102 1 0.245389 0.245661 0.178217
127 1 0.247729 0.342906 0.259822
105 1 0.336589 0.181716 0.181904
107 1 0.406338 0.183695 0.263437
108 1 0.326791 0.259392 0.274919
106 1 0.425678 0.259399 0.157144
109 1 0.505516 0.180014 0.177951
112 1 0.492907 0.263729 0.250547
111 1 0.59068 0.16773 0.246257
135 1 0.583519 0.346205 0.226155
114 1 0.765301 0.253162 0.167728
115 1 0.765647 0.176137 0.251169
116 1 0.67501 0.252835 0.247658
120 1 0.857689 0.247609 0.231164
139 1 0.764422 0.345957 0.245776
118 1 0.950194 0.269466 0.158268
141 1 0.847594 0.330483 0.15984
119 1 0.909989 0.155705 0.255435
100 1 0.989365 0.254147 0.261145
38 1 0.590525 0.257702 0.00983025
123 1 0.0810295 0.353563 0.247663
122 1 0.0959003 0.437958 0.169064
128 1 0.163318 0.421875 0.255179
124 1 0.997761 0.42367 0.252582
217 1 0.988711 0.0118185 0.49536
126 1 0.257034 0.410184 0.167768
132 1 0.335764 0.417904 0.256304
131 1 0.417116 0.331009 0.255789
250 1 0.422534 0.267513 0.498025
50 1 0.0943763 0.430081 0.00910187
133 1 0.499479 0.345583 0.147256
134 1 0.59776 0.419794 0.157947
136 1 0.500604 0.418385 0.233848
140 1 0.661145 0.420783 0.25637
17 1 0.669297 0.00538823 0.00364189
29 1 0.169164 0.174947 0.0130334
144 1 0.839857 0.421274 0.244401
143 1 0.92129 0.347025 0.235318
214 1 0.90962 0.413386 0.332076
213 1 0.843383 0.334742 0.320232
152 1 0.159697 0.0825089 0.422261
171 1 0.0664332 0.171942 0.434374
148 1 0.985612 0.0839094 0.408128
18 1 0.751874 0.0952669 0.0156243
599 1 0.900231 0.49578 0.413656
150 1 0.233932 0.0830753 0.341944
156 1 0.318659 0.0977294 0.424853
591 1 0.570232 0.499315 0.420959
153 1 0.338919 0.0105237 0.346207
155 1 0.431855 0.0137684 0.423324
159 1 0.571938 0.00612679 0.410235
233 1 0.653416 0.0103121 0.491804
160 1 0.506395 0.0938544 0.422797
164 1 0.672217 0.100665 0.421314
189 1 0.831527 0.159343 0.343495
162 1 0.746238 0.0919531 0.340788
168 1 0.823758 0.0848492 0.42588
65 1 0.669299 0.335402 0.00758417
166 1 0.90966 0.0839407 0.339381
587 1 0.421516 0.491752 0.422085
169 1 0.976775 0.178617 0.338843
191 1 0.901547 0.162247 0.435839
173 1 0.155545 0.162713 0.337692
170 1 0.08143 0.252669 0.353355
210 1 0.747182 0.428729 0.333564
176 1 0.157897 0.24564 0.436066
195 1 0.0730756 0.327866 0.437711
266 1 0.0710561 0.42547 0.498877
177 1 0.310806 0.170836 0.33934
201 1 0.318671 0.339927 0.342679
174 1 0.233606 0.25066 0.338817
175 1 0.240107 0.179076 0.415558
179 1 0.432388 0.184023 0.407034
180 1 0.328025 0.241125 0.417216
178 1 0.427274 0.263938 0.33874
184 1 0.508917 0.271956 0.433194
207 1 0.594957 0.338533 0.412207
185 1 0.669066 0.185341 0.336144
181 1 0.503036 0.176866 0.32521
182 1 0.582278 0.264269 0.332053
183 1 0.58111 0.167078 0.419475
188 1 0.65635 0.255577 0.431156
147 1 0.0808198 0.00896793 0.416212
186 1 0.7644 0.251946 0.337508
187 1 0.747892 0.172249 0.417127
192 1 0.821073 0.251292 0.435196
193 1 0.991397 0.319047 0.347864
190 1 0.901627 0.251077 0.345178
215 1 0.906488 0.339564 0.421059
172 1 0.980563 0.239063 0.431843
585 1 0.331066 0.489813 0.339566
194 1 0.0666309 0.405663 0.336588
197 1 0.161878 0.324201 0.34992
200 1 0.147645 0.415012 0.401134
77 1 0.161995 0.0014576 0.16484
199 1 0.23171 0.339401 0.427182
198 1 0.237483 0.41463 0.339927
203 1 0.414729 0.346672 0.417893
202 1 0.413641 0.41596 0.323233
204 1 0.320654 0.418662 0.419739
212 1 0.669162 0.422589 0.42521
206 1 0.579613 0.4201 0.333232
208 1 0.500289 0.41526 0.418256
205 1 0.496773 0.355265 0.334161
30 1 0.254792 0.252871 0.00246454
216 1 0.830674 0.416085 0.433755
211 1 0.745862 0.356117 0.427441
66 1 0.755061 0.413867 0.000966969
14 1 0.588059 0.0831431 0.00273124
433 1 0.991763 0.49247 0.00103714
45 1 0.842316 0.179966 0.00127997
21 1 0.842744 0.0129304 0.0181383
53 1 0.162634 0.329773 0.00533711
238 1 0.900137 0.0725886 0.499912
273 1 0.327555 0.341291 0.498624
91 1 0.746323 0.00173558 0.263146
290 1 0.0961436 0.0765914 0.661072
224 1 0.164328 0.0677184 0.584015
243 1 0.0648526 0.161034 0.591329
228 1 0.32866 0.0974002 0.588951
69 1 0.831466 0.325503 0.995396
265 1 0.986333 0.327312 0.505586
232 1 0.49012 0.0964817 0.588552
225 1 0.335493 0.0119834 0.503035
227 1 0.407341 0.0175096 0.583237
301 1 0.492523 0.0244268 0.683489
226 1 0.416296 0.091232 0.513579
369 1 0.331463 0.00659423 0.827416
57 1 0.320435 0.337339 0.986132
305 1 0.653483 0.00841557 0.679032
257 1 0.675209 0.172273 0.501634
242 1 0.064876 0.250773 0.509034
241 1 0.996226 0.146813 0.507279
236 1 0.654031 0.105085 0.597951
379 1 0.745254 0.0240331 0.931094
240 1 0.840589 0.0897773 0.59251
220 1 0.985519 0.0707019 0.577487
253 1 0.495182 0.174334 0.516238
248 1 0.172547 0.256532 0.585605
267 1 0.0738812 0.337475 0.589842
337 1 0.00495638 0.315199 0.673268
247 1 0.24921 0.183798 0.583877
271 1 0.24405 0.348152 0.600635
252 1 0.322543 0.263043 0.594352
251 1 0.405413 0.186857 0.595701
275 1 0.419661 0.351113 0.587802
249 1 0.338344 0.178752 0.508187
803 1 0.406813 0.496789 0.919342
230 1 0.581807 0.107124 0.512055
256 1 0.490783 0.255525 0.590078
255 1 0.559264 0.178663 0.595243
260 1 0.664824 0.24767 0.593695
277 1 0.509272 0.342614 0.512707
254 1 0.586945 0.256606 0.518345
259 1 0.751205 0.170039 0.597877
283 1 0.7426 0.332366 0.600721
333 1 0.841481 0.168571 0.671678
264 1 0.840233 0.253286 0.594862
258 1 0.746327 0.263396 0.517192
244 1 0.988081 0.240384 0.583343
263 1 0.916972 0.161565 0.584352
287 1 0.917132 0.327343 0.592423
334 1 0.919992 0.259284 0.683753
365 1 0.151706 0.0124157 0.812465
285 1 0.831325 0.338581 0.516138
338 1 0.0716983 0.409605 0.671908
432 1 0.839 0.428949 0.911103
278 1 0.58735 0.437853 0.512774
269 1 0.160249 0.34908 0.508339
272 1 0.159821 0.417067 0.595735
218 1 0.0921795 0.0721172 0.505614
270 1 0.23717 0.415718 0.505999
70 1 0.906657 0.404442 0.999528
276 1 0.320692 0.418445 0.597159
345 1 0.319499 0.334807 0.682975
274 1 0.425202 0.413611 0.501039
280 1 0.497676 0.433105 0.591449
279 1 0.586439 0.348242 0.597319
231 1 0.578526 0.0274997 0.58384
281 1 0.662473 0.335554 0.520695
284 1 0.653379 0.42491 0.605809
288 1 0.831897 0.43358 0.611674
26 1 0.0887782 0.254181 0.992648
293 1 0.173364 0.00234184 0.669467
282 1 0.740244 0.407986 0.52115
268 1 0.999492 0.399828 0.583207
286 1 0.911252 0.418836 0.510853
727 1 0.23939 0.497714 0.74141
801 1 0.322278 0.49703 0.829968
296 1 0.167988 0.0950606 0.741967
317 1 0.168687 0.158421 0.648098
42 1 0.756438 0.24487 0.997699
229 1 0.500388 0.0116518 0.507698
294 1 0.253908 0.102343 0.663594
300 1 0.327633 0.081376 0.748983
299 1 0.406655 0.012484 0.755992
298 1 0.409136 0.0911631 0.671983
304 1 0.498204 0.0967712 0.762951
373 1 0.505098 0.00221258 0.844365
370 1 0.416929 0.0830563 0.841486
303 1 0.579243 0.00763707 0.748073
302 1 0.57965 0.096423 0.669562
329 1 0.659447 0.18571 0.690728
306 1 0.766358 0.0863602 0.679611
308 1 0.680106 0.0983428 0.759743
312 1 0.85146 0.0932882 0.752355
731 1 0.414521 0.499048 0.765364
309 1 0.845953 0.00251937 0.659176
311 1 0.912636 0.00763796 0.752981
310 1 0.931343 0.0937237 0.663587
292 1 0.998305 0.0888854 0.753556
222 1 0.236129 0.104105 0.50371
314 1 0.0969652 0.243666 0.668137
315 1 0.0891184 0.165841 0.747444
320 1 0.165221 0.243235 0.757159
339 1 0.0804544 0.339251 0.750574
341 1 0.16209 0.325318 0.660792
319 1 0.251145 0.172105 0.75793
318 1 0.233457 0.231701 0.679169
343 1 0.242852 0.349212 0.744927
321 1 0.33643 0.17033 0.684289
393 1 0.331316 0.169356 0.84115
325 1 0.488043 0.16731 0.679862
322 1 0.414945 0.272851 0.676314
323 1 0.414132 0.169431 0.759268
324 1 0.326472 0.258489 0.761169
347 1 0.414006 0.334767 0.779283
326 1 0.56915 0.247874 0.676204
328 1 0.496876 0.263753 0.76681
327 1 0.582584 0.169384 0.753462
332 1 0.665715 0.269362 0.760172
331 1 0.753987 0.172717 0.747287
330 1 0.753794 0.255641 0.689853
336 1 0.835055 0.246656 0.768505
405 1 0.83371 0.160018 0.839066
425 1 0.662811 0.342701 0.833806
313 1 0.997764 0.179985 0.67796
316 1 0.00264011 0.260562 0.765959
335 1 0.932603 0.171968 0.770923
359 1 0.911117 0.340182 0.75565
406 1 0.925218 0.250036 0.849586
340 1 0.011613 0.429071 0.763607
344 1 0.165551 0.418171 0.738149
410 1 0.0865393 0.421854 0.84565
235 1 0.745381 0.0108309 0.600419
371 1 0.416092 0.00549404 0.928662
342 1 0.246068 0.424808 0.668779
348 1 0.331507 0.407841 0.764824
417 1 0.323171 0.332039 0.835022
346 1 0.413809 0.418591 0.686205
418 1 0.414046 0.421298 0.846278
349 1 0.511653 0.348985 0.675951
350 1 0.58266 0.430919 0.708207
353 1 0.669083 0.339434 0.680322
351 1 0.577598 0.320688 0.764464
352 1 0.491578 0.421953 0.764084
354 1 0.736924 0.420925 0.678023
355 1 0.749864 0.353289 0.759257
356 1 0.660676 0.42747 0.775071
743 1 0.915443 0.498737 0.769638
357 1 0.834971 0.334579 0.666893
358 1 0.940086 0.418408 0.668801
360 1 0.838299 0.425417 0.751999
362 1 0.0845492 0.094698 0.84156
368 1 0.171832 0.0920889 0.917974
363 1 0.0926397 0.0193547 0.926234
61 1 0.481437 0.322388 0.994606
246 1 0.241339 0.246547 0.503285
366 1 0.246113 0.0856305 0.832568
372 1 0.330039 0.0801555 0.918593
729 1 0.328233 0.492758 0.672858
33 1 0.335765 0.159778 0.996188
291 1 0.0614969 0.0102462 0.755906
376 1 0.492872 0.101392 0.926879
395 1 0.407833 0.167356 0.910745
54 1 0.24682 0.419624 0.986645
430 1 0.925813 0.423281 0.836236
49 1 0.994569 0.343551 0.998702
397 1 0.502032 0.167932 0.842241
377 1 0.66713 0.0216616 0.837304
374 1 0.572351 0.0782944 0.846616
399 1 0.582543 0.183488 0.925989
380 1 0.662682 0.0876089 0.920558
381 1 0.826181 0.0117275 0.851897
378 1 0.752632 0.0895487 0.836781
384 1 0.832594 0.0884529 0.9331
361 1 0.00996434 0.00428632 0.84812
382 1 0.923629 0.0753859 0.848574
364 1 0.00610678 0.0996886 0.921078
385 1 0.00766945 0.164241 0.839599
383 1 0.922436 0.00424879 0.930205
387 1 0.0904243 0.169376 0.928233
245 1 0.15403 0.164909 0.513291
386 1 0.0760053 0.252546 0.838427
392 1 0.167313 0.250911 0.924452
389 1 0.164282 0.160885 0.836087
415 1 0.230261 0.333333 0.914099
390 1 0.227814 0.247696 0.838638
391 1 0.247966 0.171828 0.915724
396 1 0.323832 0.255156 0.903817
262 1 0.911701 0.232043 0.508335
394 1 0.417011 0.237242 0.835252
421 1 0.495232 0.332163 0.856228
400 1 0.491105 0.238376 0.925848
401 1 0.660868 0.161978 0.841924
398 1 0.571881 0.250235 0.841914
402 1 0.73668 0.253873 0.843565
404 1 0.669912 0.256993 0.932074
403 1 0.751866 0.164041 0.917904
261 1 0.824316 0.170723 0.519385
407 1 0.915918 0.171173 0.919191
408 1 0.832358 0.257802 0.910524
431 1 0.918559 0.327025 0.911211
388 1 0.00480436 0.253657 0.924942
412 1 0.998191 0.418653 0.918729
413 1 0.169183 0.349799 0.823134
416 1 0.169378 0.424509 0.914639
411 1 0.0809586 0.346916 0.92057
409 1 0.00126672 0.334483 0.848418
414 1 0.243476 0.423151 0.826692
420 1 0.321268 0.410056 0.913665
419 1 0.403346 0.335348 0.923285
424 1 0.496939 0.423039 0.924627
428 1 0.669359 0.411433 0.920647
367 1 0.259424 0.00245887 0.915149
422 1 0.580963 0.416535 0.850927
58 1 0.397024 0.422285 0.994404
423 1 0.58467 0.334383 0.92254
429 1 0.833036 0.330176 0.834536
426 1 0.741873 0.432431 0.839854
427 1 0.747741 0.336933 0.91842
653 1 0.14732 0.488849 0.500552
799 1 0.252135 0.495867 0.91573
234 1 0.742461 0.0804685 0.525466
297 1 0.320296 0.0023198 0.671897
1 1 0.0101951 0.0148585 0.996399
41 1 0.674725 0.171679 0.998814
659 1 0.409113 0.484232 0.601435
459 1 0.0923696 0.668594 0.0874408
439 1 0.258601 0.500832 0.071312
434 1 0.0948652 0.580541 0.0129148
435 1 0.0925398 0.503808 0.093666
440 1 0.175799 0.588904 0.0940504
458 1 0.0963446 0.75186 0.0117564
505 1 0.997089 0.504013 0.166764
642 1 0.757565 0.913558 0.325257
441 1 0.342399 0.503593 0.00370902
461 1 0.172913 0.659644 0.0160978
444 1 0.347403 0.590183 0.092192
514 1 0.423818 0.591932 0.176947
485 1 0.167151 0.83844 0.00864056
448 1 0.506848 0.58604 0.0797115
452 1 0.670309 0.591955 0.0729575
518 1 0.581141 0.585452 0.148904
451 1 0.747876 0.512855 0.0802574
456 1 0.832171 0.582428 0.0830854
481 1 0.998829 0.832584 0.0150075
522 1 0.744502 0.593757 0.178441
436 1 0.00670662 0.584129 0.081467
453 1 0.826452 0.501375 0.00510626
455 1 0.911478 0.502915 0.0883162
525 1 0.822697 0.513907 0.180712
454 1 0.905745 0.578867 0.0144385
718 1 0.894994 0.910438 0.484754
457 1 0.998305 0.671431 0.0054479
529 1 0.99627 0.673367 0.162089
237 1 0.821394 0.998893 0.496904
464 1 0.178406 0.744012 0.0812649
463 1 0.27073 0.664945 0.0752386
534 1 0.265094 0.745359 0.172547
75 1 0.0864852 0.998542 0.255285
467 1 0.424617 0.672028 0.0865766
468 1 0.341217 0.74897 0.0883696
702 1 0.270646 0.917606 0.494077
561 1 0.328377 0.847776 0.181337
472 1 0.489028 0.751174 0.0922927
471 1 0.598646 0.677513 0.0827021
476 1 0.670516 0.747055 0.0802815
541 1 0.498553 0.677675 0.166791
545 1 0.660735 0.666953 0.17577
475 1 0.751612 0.679348 0.105049
569 1 0.654332 0.836793 0.166016
546 1 0.737089 0.7617 0.177349
480 1 0.835991 0.755727 0.090888
474 1 0.750422 0.766104 0.00976262
460 1 0.996733 0.758876 0.0922484
479 1 0.909282 0.67691 0.0802406
550 1 0.924976 0.764704 0.175692
478 1 0.916528 0.762483 0.0171203
483 1 0.0885344 0.833527 0.0958628
482 1 0.0784516 0.921144 0.00980062
521 1 0.663648 0.507452 0.159401
487 1 0.255856 0.834116 0.077245
488 1 0.160809 0.919972 0.0796392
492 1 0.33091 0.930166 0.0944298
145 1 0.993164 0.997312 0.338888
648 1 0.822371 0.903881 0.406505
161 1 0.673141 0.992324 0.341339
491 1 0.41827 0.843863 0.0912278
496 1 0.488781 0.932868 0.110907
694 1 0.911449 0.76485 0.493692
442 1 0.408181 0.596142 0.00330174
495 1 0.580667 0.842604 0.0809051
566 1 0.581001 0.915003 0.190861
500 1 0.66113 0.924534 0.0886372
469 1 0.494915 0.685601 0.000816921
494 1 0.57353 0.922733 0.0145902
499 1 0.744695 0.838509 0.104633
504 1 0.830494 0.91679 0.075805
573 1 0.829757 0.841684 0.171505
497 1 0.670759 0.839934 0.0194934
498 1 0.747734 0.93481 0.000878346
477 1 0.825661 0.676596 0.0136524
484 1 0.00617704 0.921915 0.0966854
503 1 0.904742 0.846098 0.0948636
167 1 0.900009 0.995791 0.42449
95 1 0.914254 0.997046 0.250748
506 1 0.0843377 0.56347 0.198979
508 1 0.993791 0.587504 0.259465
512 1 0.17953 0.584141 0.250361
510 1 0.264688 0.583068 0.171497
535 1 0.265566 0.666074 0.267266
443 1 0.426685 0.504637 0.0755811
509 1 0.18609 0.512034 0.164083
516 1 0.349015 0.568919 0.251256
539 1 0.433782 0.66367 0.263822
537 1 0.333726 0.665394 0.167013
513 1 0.349859 0.50045 0.155766
520 1 0.505556 0.57876 0.257603
524 1 0.666689 0.587105 0.252672
613 1 0.505102 0.669666 0.345823
526 1 0.90036 0.590948 0.172988
528 1 0.820168 0.594367 0.256143
527 1 0.911394 0.509467 0.251012
577 1 0.982585 0.506253 0.337462
523 1 0.745282 0.51349 0.253746
530 1 0.0741131 0.768701 0.175862
531 1 0.0794307 0.665076 0.233831
533 1 0.167773 0.667787 0.160814
536 1 0.187358 0.755475 0.255565
559 1 0.260712 0.837306 0.265772
540 1 0.344293 0.74965 0.265416
538 1 0.402688 0.761978 0.180463
563 1 0.422912 0.84866 0.256812
544 1 0.493843 0.748289 0.247764
543 1 0.56796 0.66907 0.253248
542 1 0.579585 0.749788 0.166308
548 1 0.656867 0.747063 0.252819
614 1 0.590501 0.758112 0.342087
617 1 0.661344 0.669289 0.337163
637 1 0.498672 0.849554 0.35335
549 1 0.833512 0.675348 0.181642
547 1 0.745353 0.672427 0.248124
552 1 0.849149 0.757944 0.255009
571 1 0.743607 0.834844 0.250672
532 1 0.0041553 0.746269 0.264668
551 1 0.919592 0.663108 0.263126
575 1 0.918502 0.843319 0.261714
554 1 0.0851483 0.917855 0.169319
553 1 0.998999 0.84899 0.181226
555 1 0.0848741 0.834652 0.260207
626 1 0.0903603 0.916373 0.330921
560 1 0.171638 0.914441 0.245878
558 1 0.247076 0.923383 0.173434
557 1 0.177354 0.819722 0.171554
502 1 0.924647 0.913079 0.0179216
644 1 0.656991 0.914856 0.441925
630 1 0.244545 0.907828 0.347501
562 1 0.403158 0.921603 0.171459
564 1 0.32985 0.928839 0.270776
565 1 0.489785 0.833897 0.163173
568 1 0.491859 0.9312 0.25045
567 1 0.574043 0.823692 0.260599
638 1 0.580578 0.922921 0.338943
572 1 0.670189 0.916276 0.250807
570 1 0.743072 0.922947 0.160663
576 1 0.830561 0.921484 0.242532
574 1 0.918524 0.916156 0.184524
556 1 0.00918815 0.912019 0.267159
646 1 0.905887 0.916368 0.331934
701 1 0.160279 0.820402 0.487334
645 1 0.830572 0.820959 0.332283
578 1 0.0895192 0.59048 0.321592
603 1 0.082262 0.66599 0.414184
605 1 0.177131 0.657012 0.339498
582 1 0.270359 0.577099 0.342817
584 1 0.163532 0.576309 0.433941
607 1 0.253928 0.665037 0.417581
149 1 0.172603 0.984957 0.347382
628 1 0.00751021 0.923919 0.414607
588 1 0.345127 0.58141 0.428602
586 1 0.417799 0.578384 0.34749
609 1 0.354463 0.670188 0.336305
593 1 0.67279 0.504838 0.32114
592 1 0.506286 0.587191 0.428749
590 1 0.578166 0.584317 0.337815
615 1 0.579293 0.672316 0.41701
649 1 0.989617 0.500452 0.485932
596 1 0.660904 0.565182 0.413947
594 1 0.745889 0.589316 0.352968
600 1 0.82639 0.577187 0.423447
619 1 0.745359 0.667632 0.430327
583 1 0.257329 0.509023 0.440564
598 1 0.900549 0.586067 0.340919
601 1 0.00189082 0.659994 0.350341
580 1 0.997785 0.582847 0.423701
519 1 0.581803 0.501328 0.245219
623 1 0.915834 0.657171 0.438037
602 1 0.102413 0.749662 0.320787
625 1 0.987561 0.829827 0.342395
629 1 0.165187 0.825694 0.341333
490 1 0.425828 0.928624 0.0164883
698 1 0.0774179 0.922639 0.495727
606 1 0.249434 0.750862 0.341544
608 1 0.15753 0.74749 0.416079
631 1 0.262828 0.825714 0.422833
633 1 0.345816 0.84172 0.349858
610 1 0.433789 0.767085 0.347701
612 1 0.349583 0.75307 0.424368
611 1 0.431787 0.666085 0.425004
163 1 0.757685 0.992744 0.409465
616 1 0.508048 0.750376 0.426233
620 1 0.661897 0.747625 0.425335
639 1 0.580409 0.837922 0.411335
618 1 0.741141 0.741354 0.341361
641 1 0.658273 0.836566 0.324756
643 1 0.73945 0.829522 0.407902
647 1 0.917253 0.832646 0.416556
622 1 0.921923 0.746018 0.342546
621 1 0.827114 0.675845 0.336183
624 1 0.82604 0.738887 0.425976
604 1 0.99893 0.744926 0.412204
581 1 0.176765 0.511491 0.338752
627 1 0.0721705 0.830316 0.408353
493 1 0.499304 0.843403 0.013005
632 1 0.172316 0.92134 0.426709
636 1 0.327816 0.928474 0.409472
706 1 0.407034 0.93321 0.489343
634 1 0.418169 0.926647 0.330254
635 1 0.420891 0.84736 0.42291
640 1 0.506011 0.932427 0.437
579 1 0.0784095 0.500366 0.40029
489 1 0.346182 0.837338 0.013221
93 1 0.834924 0.996555 0.155726
466 1 0.426395 0.759361 0.000254132
656 1 0.166418 0.582405 0.575012
651 1 0.0638133 0.508448 0.580746
675 1 0.0726484 0.669574 0.58301
859 1 0.728913 0.837274 0.916772
660 1 0.334588 0.56792 0.600004
674 1 0.0759615 0.748547 0.510177
709 1 0.482223 0.827004 0.508443
689 1 0.676188 0.67214 0.507748
662 1 0.583806 0.584491 0.501902
664 1 0.509672 0.579697 0.57761
668 1 0.670781 0.585045 0.598698
661 1 0.487477 0.50554 0.505929
672 1 0.82875 0.587288 0.580309
691 1 0.753886 0.678175 0.595781
666 1 0.738884 0.587292 0.507243
667 1 0.737219 0.501532 0.597543
693 1 0.835587 0.67124 0.513583
652 1 0.98018 0.590208 0.585087
695 1 0.917906 0.671499 0.579974
670 1 0.896257 0.573398 0.504573
673 1 0.992177 0.69292 0.513383
699 1 0.0755399 0.82596 0.580133
677 1 0.155677 0.687766 0.507382
858 1 0.743222 0.927 0.847195
680 1 0.170256 0.760578 0.580991
679 1 0.238845 0.665341 0.594154
703 1 0.25053 0.840716 0.567602
750 1 0.248328 0.770687 0.659469
717 1 0.818465 0.826164 0.504126
684 1 0.329371 0.755399 0.587243
683 1 0.416466 0.663842 0.588973
685 1 0.504641 0.669042 0.50995
682 1 0.416326 0.747963 0.512674
713 1 0.676287 0.835417 0.509863
687 1 0.591872 0.678474 0.586876
688 1 0.491159 0.75503 0.596614
711 1 0.568145 0.826069 0.581142
686 1 0.596506 0.757316 0.505895
692 1 0.66843 0.75375 0.590466
657 1 0.343304 0.500497 0.508801
696 1 0.833533 0.7467 0.592061
437 1 0.173583 0.513975 0.995818
690 1 0.751918 0.737482 0.510444
676 1 0.993615 0.750625 0.602325
719 1 0.913031 0.840266 0.582737
465 1 0.334605 0.678583 0.994221
769 1 0.999167 0.842414 0.663004
704 1 0.165723 0.914653 0.603521
289 1 0.997355 0.994938 0.671204
770 1 0.0809109 0.912263 0.670621
462 1 0.25136 0.769372 0.997102
708 1 0.335232 0.910404 0.582175
774 1 0.251872 0.903289 0.659419
777 1 0.33623 0.837983 0.662525
681 1 0.326117 0.661196 0.509336
707 1 0.421319 0.837656 0.592283
712 1 0.507543 0.91317 0.584918
778 1 0.413617 0.929223 0.662234
665 1 0.674675 0.50219 0.512721
741 1 0.819954 0.513494 0.677777
797 1 0.176413 0.505627 0.83232
715 1 0.759891 0.835569 0.591175
716 1 0.677346 0.909855 0.588656
720 1 0.82996 0.910324 0.589216
658 1 0.425558 0.593682 0.508401
862 1 0.914399 0.935924 0.845323
700 1 0.0069966 0.904786 0.578022
789 1 0.829749 0.840636 0.675702
725 1 0.156695 0.503262 0.656748
239 1 0.903232 0.985145 0.565502
722 1 0.0759137 0.575882 0.665873
728 1 0.161629 0.584321 0.749132
669 1 0.820819 0.5023 0.515987
223 1 0.25512 0.993855 0.590774
726 1 0.230948 0.584038 0.664137
307 1 0.745628 0.995172 0.773814
730 1 0.4286 0.570602 0.677213
732 1 0.315341 0.584532 0.741184
802 1 0.40353 0.598932 0.846156
739 1 0.744928 0.534215 0.761185
446 1 0.59187 0.608498 0.997042
735 1 0.57883 0.510987 0.772728
734 1 0.586021 0.591375 0.665852
736 1 0.49152 0.59349 0.761925
759 1 0.576954 0.680376 0.753616
733 1 0.51648 0.507697 0.672285
737 1 0.667761 0.515106 0.690066
738 1 0.757319 0.594202 0.669682
678 1 0.246788 0.749043 0.505549
740 1 0.652598 0.594554 0.757218
763 1 0.753916 0.669959 0.740926
745 1 0.000866087 0.655818 0.676215
724 1 0.00613259 0.57731 0.760892
723 1 0.0954999 0.502676 0.749879
744 1 0.835349 0.58785 0.767628
742 1 0.925901 0.573586 0.689585
814 1 0.914857 0.582036 0.840827
765 1 0.84583 0.65263 0.666482
767 1 0.914937 0.670062 0.754287
746 1 0.0842782 0.757037 0.660928
747 1 0.0800211 0.677227 0.752062
748 1 0.000211781 0.754867 0.743491
752 1 0.165636 0.756766 0.75732
818 1 0.0734231 0.741694 0.839208
845 1 0.156025 0.838997 0.832507
751 1 0.248475 0.669091 0.740331
749 1 0.152415 0.660432 0.654342
773 1 0.15326 0.834794 0.681562
755 1 0.405842 0.672992 0.741896
753 1 0.321643 0.674551 0.66363
756 1 0.332997 0.746995 0.756274
754 1 0.40095 0.752895 0.662357
760 1 0.505707 0.770309 0.744412
829 1 0.499879 0.691204 0.832321
757 1 0.503871 0.670901 0.666946
758 1 0.584392 0.75563 0.66739
764 1 0.676717 0.757166 0.748112
761 1 0.673942 0.673129 0.67267
762 1 0.744042 0.752918 0.666416
768 1 0.837989 0.766397 0.762242
833 1 0.669464 0.68148 0.831762
766 1 0.907215 0.759092 0.664779
771 1 0.0656042 0.845723 0.754877
841 1 4.91269e-06 0.829474 0.842877
864 1 0.823845 0.926663 0.929154
775 1 0.250083 0.832381 0.766481
776 1 0.179051 0.919742 0.753169
780 1 0.331685 0.904467 0.748106
781 1 0.502952 0.844325 0.665472
779 1 0.416351 0.832353 0.734384
784 1 0.497879 0.932731 0.735589
782 1 0.592525 0.921528 0.651557
785 1 0.671689 0.841914 0.676901
783 1 0.58396 0.85394 0.745077
788 1 0.661562 0.9297 0.755372
857 1 0.662438 0.85797 0.826223
854 1 0.58141 0.923909 0.835203
786 1 0.75523 0.925567 0.676758
787 1 0.750943 0.844792 0.750541
861 1 0.822301 0.840224 0.866865
790 1 0.907243 0.923311 0.695487
791 1 0.916982 0.849914 0.76266
772 1 0.000336501 0.931148 0.773461
792 1 0.834085 0.924653 0.775802
795 1 0.0911206 0.508999 0.917375
793 1 0.00261831 0.51739 0.848871
817 1 0.00141213 0.652913 0.842929
794 1 0.0932245 0.577621 0.832632
800 1 0.177687 0.596669 0.897942
796 1 0.00375108 0.590898 0.938557
798 1 0.245902 0.585166 0.821288
823 1 0.259289 0.669167 0.906329
721 1 0.00629419 0.500465 0.671131
663 1 0.588387 0.517162 0.594586
804 1 0.332898 0.584884 0.921391
808 1 0.489709 0.612626 0.919557
805 1 0.492842 0.503428 0.858511
450 1 0.745702 0.571572 0.997402
809 1 0.670675 0.512837 0.85831
710 1 0.588718 0.927559 0.517241
806 1 0.571337 0.602063 0.838845
445 1 0.493468 0.505476 0.995858
807 1 0.577845 0.529834 0.921894
811 1 0.760116 0.511663 0.908222
486 1 0.251672 0.920849 0.998419
812 1 0.67091 0.602281 0.909288
810 1 0.760913 0.600084 0.852881
813 1 0.828317 0.502753 0.830326
705 1 0.342272 0.838155 0.50283
815 1 0.911716 0.501406 0.926831
816 1 0.833197 0.590392 0.930239
837 1 0.833819 0.685066 0.826929
839 1 0.92105 0.66138 0.928643
714 1 0.754744 0.910575 0.502204
375 1 0.574697 0.998274 0.930941
819 1 0.0880943 0.668842 0.929929
824 1 0.17017 0.753396 0.933556
820 1 0.991787 0.752284 0.939228
825 1 0.319785 0.664903 0.828216
821 1 0.174443 0.68391 0.830594
822 1 0.252578 0.750045 0.838395
828 1 0.332694 0.761891 0.918679
827 1 0.401737 0.682124 0.901444
826 1 0.424432 0.775661 0.820288
832 1 0.506713 0.763657 0.923612
671 1 0.922374 0.500621 0.590107
501 1 0.833717 0.835116 0.989602
830 1 0.593736 0.761635 0.833297
831 1 0.580467 0.672659 0.910699
473 1 0.673351 0.675481 0.998226
835 1 0.761329 0.681237 0.919278
834 1 0.744402 0.764547 0.830632
840 1 0.855473 0.749986 0.927795
836 1 0.658907 0.743426 0.920045
863 1 0.920964 0.828343 0.906826
838 1 0.928927 0.74073 0.84454
449 1 0.665076 0.505927 0.985694
844 1 0.991576 0.912719 0.926087
842 1 0.0848674 0.929396 0.835103
848 1 0.161845 0.923247 0.929424
843 1 0.0900653 0.835075 0.914577
221 1 0.171839 0.985521 0.510437
846 1 0.242324 0.935337 0.834635
847 1 0.237472 0.838444 0.911023
849 1 0.330837 0.838761 0.843805
852 1 0.337023 0.929784 0.912744
654 1 0.246108 0.590248 0.509399
851 1 0.419229 0.854425 0.923375
853 1 0.502583 0.856461 0.824901
850 1 0.412115 0.932554 0.825937
470 1 0.582433 0.770483 0.99466
295 1 0.259941 0.991758 0.747357
860 1 0.658416 0.919039 0.926228
855 1 0.586506 0.839382 0.910641
856 1 0.503625 0.920601 0.914755
655 1 0.240697 0.503057 0.578394
650 1 0.0713377 0.591505 0.50627
219 1 0.0769031 0.988651 0.593783
697 1 0.998705 0.831464 0.505116
438 1 0.264892 0.589208 0.997133
