ITEM: TIMESTEP
1250
ITEM: NUMBER OF ATOMS
864
ITEM: BOX BOUNDS pp pp pp
0.0000000000000000e+00 3.1559999999999999e+01
0.0000000000000000e+00 3.1559999999999999e+01
0.0000000000000000e+00 3.1559999999999999e+01
ITEM: ATOMS id type xs ys zs
4 1 1.00742 0.091913 0.0804282
27 1 0.0882077 0.163548 0.0708073
146 1 0.0787823 0.0713124 0.155614
5 1 0.173516 1.00303 0.999102
6 1 0.254288 0.0896003 0.990596
7 1 0.251943 1.00363 0.0755792
8 1 0.173827 0.0824719 0.080172
29 1 0.160703 0.16863 0.976874
9 1 0.331849 -0.00235552 1.00198
11 1 0.421439 -0.00759071 0.0944595
12 1 0.324158 0.0908894 0.0782641
16 1 0.487469 0.0916613 0.0813147
154 1 0.41201 0.0886711 0.162424
177 1 0.327758 0.184226 0.157765
15 1 0.584088 0.00716417 0.0909399
20 1 0.674704 0.100045 0.0833654
158 1 0.588943 0.0896825 0.157693
185 1 0.678726 0.172794 0.184169
18 1 0.756972 0.0909521 -0.000585188
19 1 0.74053 0.0108258 0.0842518
43 1 0.748214 0.179157 0.0976512
161 1 0.668931 0.994292 0.174303
24 1 0.829639 0.0776189 0.0805825
165 1 0.84231 -0.00660531 0.178383
166 1 0.91238 0.0858017 0.156493
28 1 0.999882 0.255336 0.0759611
32 1 0.153805 0.249997 0.0718407
169 1 1.00389 0.16986 0.158362
170 1 0.0885801 0.254202 0.16955
30 1 0.240853 0.251626 0.01051
31 1 0.253248 0.171183 0.0857293
174 1 0.246812 0.261726 0.172094
35 1 0.417357 0.179726 0.0876332
36 1 0.323815 0.260138 0.0799
40 1 0.505487 0.242403 0.0809586
181 1 0.502688 0.168118 0.166566
38 1 0.57123 0.23884 1.0053
39 1 0.582378 0.165726 0.0772647
182 1 0.595016 0.232791 0.164406
205 1 0.487123 0.336276 0.176228
41 1 0.660584 0.172009 -0.0118321
42 1 0.74657 0.261196 0.000811144
44 1 0.661772 0.247059 0.0847408
186 1 0.750186 0.257216 0.167275
45 1 0.828124 0.173007 1.00864
46 1 0.923987 0.24496 0.997204
47 1 0.89957 0.161397 0.0851706
48 1 0.830841 0.26225 0.0824597
213 1 0.831467 0.3418 0.173704
51 1 0.0780162 0.332727 0.0728201
52 1 -0.001201 0.42053 0.0789237
53 1 0.153813 0.339945 -0.00909853
56 1 0.169077 0.422611 0.0755232
54 1 0.252626 0.415281 0.00577656
55 1 0.237883 0.33568 0.0951172
57 1 0.331019 0.342378 -0.00667839
197 1 0.15521 0.337314 0.153907
198 1 0.247684 0.421895 0.184567
201 1 0.322929 0.352101 0.171387
59 1 0.415943 0.327188 0.0943663
60 1 0.335057 0.409307 0.0824992
64 1 0.5023 0.403362 0.0964827
202 1 0.412372 0.417796 0.167911
61 1 0.498606 0.328137 0.0103242
62 1 0.58377 0.421749 0.00294467
63 1 0.577152 0.333735 0.106405
206 1 0.574802 0.420981 0.173858
233 1 0.681868 0.493323 0.168865
65 1 0.643607 0.336479 0.0140101
67 1 0.737146 0.333975 0.0824923
68 1 0.66487 0.415061 0.0889158
72 1 0.843903 0.413811 0.0814466
91 1 0.75189 0.493039 0.0861523
209 1 0.663287 0.322812 0.166719
210 1 0.752101 0.410404 0.169547
49 1 1.00325 0.325282 0.988665
71 1 0.924718 0.33966 0.0842574
193 1 1.0024 0.323661 0.154492
74 1 0.0995466 0.580872 -0.0018671
75 1 0.0853683 0.504609 0.0801329
80 1 0.166937 0.579448 0.0823222
221 1 0.163305 0.48135 0.172733
77 1 0.178012 0.50424 -0.00122694
79 1 0.255699 0.491807 0.0967684
84 1 0.338785 0.585757 0.0908215
222 1 0.254382 0.581276 0.170515
81 1 0.336709 0.490938 0.00125515
83 1 0.435258 0.494103 0.0923305
85 1 0.498403 0.497693 0.99479
107 1 0.422555 0.670794 0.0936841
87 1 0.583603 0.492856 0.0846419
88 1 0.509204 0.589092 0.0865218
92 1 0.672203 0.581125 0.0836862
111 1 0.586089 0.680917 0.0942415
230 1 0.600783 0.584779 0.168163
253 1 0.507496 0.664155 0.18989
257 1 0.678302 0.668834 0.16784
90 1 0.747402 0.578755 1.00706
96 1 0.82911 0.573724 0.090668
234 1 0.753553 0.57344 0.180171
261 1 0.835087 0.646089 0.177997
73 1 -0.0125815 0.505749 1.0058
76 1 0.99608 0.587132 0.0828782
94 1 0.902277 0.579763 -0.00127005
95 1 0.921896 0.487973 0.0797897
237 1 0.849777 0.493176 0.161843
238 1 0.920117 0.585652 0.155866
97 1 -0.00164698 0.659681 1.00317
99 1 0.0891511 0.666445 0.0737661
104 1 0.171473 0.751362 0.0942098
242 1 0.0809196 0.762709 0.161259
101 1 0.179587 0.671024 0.0121671
102 1 0.260964 0.751308 0.000744241
103 1 0.249671 0.683993 0.0883991
127 1 0.252301 0.840813 0.08948
249 1 0.331507 0.669072 0.161249
106 1 0.422089 0.736468 0.991311
108 1 0.349589 0.744983 0.0818954
112 1 0.501804 0.752322 0.0882199
250 1 0.423581 0.743808 0.168427
110 1 0.579225 0.745573 -5.49661e-05
116 1 0.65777 0.75981 0.0960315
135 1 0.579087 0.825851 0.0907297
254 1 0.581451 0.745243 0.17881
281 1 0.665147 0.846564 0.17445
115 1 0.753892 0.655166 0.0837444
117 1 0.820768 0.65682 0.999356
120 1 0.83263 0.74713 0.0877152
137 1 0.659526 0.827189 -0.014966
141 1 0.822582 0.831693 -0.0014142
100 1 1.00372 0.741588 0.0742973
118 1 0.923957 0.747152 1.00128
119 1 0.906799 0.666791 0.0862516
1 1 0.988084 1.00475 0.996804
3 1 0.0965172 1.00373 0.0741571
121 1 0.993126 0.849598 0.0031205
123 1 0.0934098 0.836417 0.086597
125 1 0.180379 0.823976 1.00021
145 1 0.989904 0.0081402 0.171507
266 1 0.0837049 0.934189 0.166127
128 1 0.166887 0.917747 0.0791451
269 1 0.173915 0.834419 0.161251
270 1 0.25119 0.910013 0.176762
273 1 0.339251 0.831239 0.162011
131 1 0.43301 0.833025 0.0770173
132 1 0.348296 0.913633 0.0828596
157 1 0.500746 0.00811126 0.17917
134 1 0.594092 0.910637 0.00264836
136 1 0.517139 0.918883 0.0892797
140 1 0.67272 0.922292 0.0817776
277 1 0.487633 0.838149 0.169793
17 1 0.668713 -0.00901658 0.99936
138 1 0.745448 0.91127 0.000501972
139 1 0.747044 0.821944 0.0859119
144 1 0.842625 0.914514 0.0784939
23 1 0.915115 -0.00233439 0.0809153
124 1 1.0029 0.930815 0.0833122
143 1 0.921061 0.824154 0.084499
147 1 0.0898076 0.0062944 0.241556
148 1 0.997559 0.0887119 0.252385
152 1 0.161737 0.0910533 0.241789
171 1 0.0817041 0.16955 0.243795
173 1 0.163203 0.154057 0.155629
150 1 0.255624 0.0888941 0.170171
151 1 0.251853 1.00045 0.247048
293 1 0.165463 -0.00110227 0.323598
153 1 0.339072 0.000928595 0.165485
156 1 0.334118 0.0895925 0.255146
160 1 0.492661 0.0862985 0.25186
179 1 0.413478 0.163523 0.246667
298 1 0.408931 0.0839441 0.323042
159 1 0.579016 0.00313934 0.2482
164 1 0.676218 0.0737622 0.25556
183 1 0.588544 0.163669 0.2529
302 1 0.587529 0.0772443 0.32462
162 1 0.765912 0.0772654 0.178393
168 1 0.847598 0.0808111 0.258077
306 1 0.751173 0.0788221 0.333175
309 1 0.842258 0.998763 0.33571
333 1 0.828497 0.165493 0.345672
167 1 0.923548 1.0084 0.258176
191 1 0.912058 0.171865 0.26119
172 1 0.990678 0.252236 0.248999
195 1 0.081684 0.341007 0.25457
314 1 0.0820792 0.250926 0.329851
175 1 0.243021 0.171482 0.245699
176 1 0.167193 0.273931 0.249218
318 1 0.240586 0.257876 0.335202
178 1 0.402119 0.26731 0.178203
180 1 0.315203 0.252412 0.245267
184 1 0.494985 0.240987 0.246584
322 1 0.429598 0.253675 0.338046
326 1 0.580593 0.249725 0.325477
329 1 0.669789 0.162212 0.325096
353 1 0.65862 0.333177 0.335771
187 1 0.762754 0.160427 0.256123
188 1 0.669886 0.254558 0.250056
330 1 0.746348 0.244035 0.322814
189 1 0.834965 0.17244 0.175512
190 1 0.909947 0.255389 0.15721
192 1 0.84639 0.253962 0.262957
313 1 0.00758818 0.176897 0.336746
337 1 1.00353 0.33593 0.340205
194 1 0.0737494 0.410484 0.152918
196 1 1.00135 0.419528 0.252769
200 1 0.168239 0.4195 0.263443
199 1 0.250167 0.342123 0.259406
341 1 0.161252 0.334959 0.339825
342 1 0.243729 0.411375 0.342988
345 1 0.329265 0.343351 0.337951
203 1 0.406476 0.332631 0.25925
204 1 0.351198 0.427316 0.259399
225 1 0.341058 0.498177 0.171213
227 1 0.417938 0.518124 0.245033
207 1 0.573534 0.337225 0.250121
208 1 0.488417 0.41689 0.25012
350 1 0.585218 0.419746 0.32725
211 1 0.745859 0.342949 0.257622
212 1 0.664565 0.405349 0.246986
377 1 0.659801 0.50481 0.33971
214 1 0.916626 0.40979 0.179844
215 1 0.914128 0.32943 0.244382
216 1 0.833842 0.419227 0.251248
239 1 0.915788 0.496843 0.257109
381 1 0.829826 0.496607 0.327719
218 1 0.0811152 0.581077 0.162854
219 1 0.0863378 0.501873 0.254203
361 1 0.998745 0.498751 0.337939
365 1 0.167053 0.498776 0.337704
223 1 0.245643 0.495273 0.258611
224 1 0.166019 0.584988 0.255395
247 1 0.267545 0.661415 0.24426
366 1 0.233772 0.589318 0.340493
369 1 0.328125 0.503318 0.342516
226 1 0.432334 0.585145 0.159926
228 1 0.33888 0.58077 0.241684
370 1 0.407369 0.591613 0.334625
393 1 0.332226 0.669015 0.334103
229 1 0.503496 0.506064 0.171156
231 1 0.590695 0.495079 0.255301
232 1 0.502337 0.586036 0.258844
236 1 0.67387 0.569218 0.252507
255 1 0.596618 0.667338 0.251955
235 1 0.740765 0.481739 0.261677
240 1 0.830642 0.568085 0.252464
259 1 0.756663 0.664268 0.249381
378 1 0.74885 0.584192 0.331535
217 1 0.00317487 0.501396 0.165615
220 1 0.00890424 0.58316 0.250517
263 1 0.928299 0.665156 0.250027
241 1 0.000791239 0.668925 0.166106
243 1 0.0914782 0.663914 0.253389
248 1 0.16578 0.7575 0.239895
386 1 0.0823897 0.750523 0.343079
245 1 0.168028 0.662425 0.163669
246 1 0.250784 0.751577 0.166118
252 1 0.336579 0.753401 0.235353
271 1 0.247194 0.84012 0.250214
390 1 0.251303 0.742925 0.323885
417 1 0.334311 0.830938 0.328862
251 1 0.417766 0.671436 0.255102
275 1 0.413598 0.826446 0.251477
256 1 0.496196 0.753225 0.249268
260 1 0.678852 0.753034 0.249796
425 1 0.670408 0.832326 0.327645
258 1 0.758667 0.746206 0.171635
402 1 0.746659 0.756652 0.337409
244 1 0.0108887 0.756158 0.257642
262 1 0.919003 0.750437 0.176737
264 1 0.838008 0.745057 0.254415
385 1 0.00153526 0.66021 0.334119
267 1 0.0832361 0.837995 0.249318
272 1 0.159466 0.930724 0.242093
149 1 0.161625 0.00701254 0.167017
297 1 0.338943 -0.0087559 0.33626
155 1 0.414149 1.00451 0.246307
274 1 0.409151 0.909881 0.173046
276 1 0.336946 0.912709 0.25314
278 1 0.584871 0.924989 0.166755
279 1 0.573775 0.842072 0.247766
280 1 0.48777 0.918462 0.254906
163 1 0.764784 0.987209 0.255608
282 1 0.756712 0.915707 0.166792
283 1 0.763053 0.843666 0.248244
284 1 0.671339 0.916313 0.253775
285 1 0.845564 0.820054 0.157634
288 1 0.851129 0.923922 0.254154
429 1 0.832409 0.830009 0.332685
265 1 0.99642 0.836475 0.17167
268 1 1.01114 0.923107 0.25215
286 1 0.923844 0.918842 0.174811
287 1 0.919225 0.839829 0.248646
430 1 0.922983 0.922393 0.341983
289 1 0.00374362 1.00871 0.337969
290 1 0.076192 0.0847087 0.33381
292 1 0.00643997 0.0913825 0.413795
296 1 0.171465 0.0880868 0.41109
315 1 0.0903665 0.175212 0.425339
434 1 0.0931192 0.0806385 0.494663
294 1 0.244092 0.0809313 0.314852
317 1 0.160427 0.167817 0.327786
319 1 0.253118 0.179763 0.407965
437 1 0.15513 0.000743631 0.492959
441 1 0.336967 -0.000384157 0.506307
300 1 0.330965 0.0844915 0.424368
304 1 0.498195 0.0735836 0.417623
445 1 0.505252 0.000405574 0.499705
469 1 0.502697 0.158756 0.495322
303 1 0.581864 0.994323 0.417751
305 1 0.666904 0.999339 0.32723
308 1 0.668642 0.0737425 0.405869
327 1 0.592107 0.159913 0.406515
446 1 0.599793 0.0836953 0.495297
312 1 0.833507 0.0775757 0.414137
477 1 0.823892 0.164225 0.485924
310 1 0.91819 0.0869074 0.340779
311 1 0.934206 -0.000151367 0.413206
457 1 0.991821 0.170739 0.502431
339 1 0.0781202 0.325689 0.42044
458 1 0.0788755 0.242384 0.508075
481 1 0.98892 0.32923 0.502202
320 1 0.173008 0.237976 0.423728
324 1 0.330223 0.255503 0.411018
461 1 0.169765 0.158635 0.505389
462 1 0.264286 0.25711 0.492843
489 1 0.336425 0.331814 0.503322
321 1 0.33076 0.169458 0.331886
323 1 0.41274 0.163641 0.409532
325 1 0.51096 0.155717 0.33471
328 1 0.511064 0.251132 0.420932
470 1 0.573404 0.24737 0.508333
331 1 0.7419 0.166252 0.412135
332 1 0.65867 0.252053 0.417123
336 1 0.828776 0.253152 0.415853
474 1 0.742683 0.242643 0.500042
316 1 1.00029 0.24721 0.425372
334 1 0.925838 0.25641 0.340588
335 1 0.92078 0.165259 0.413241
357 1 0.827425 0.34515 0.325725
359 1 0.915186 0.32559 0.424988
478 1 0.905171 0.242645 0.506738
338 1 0.069908 0.409018 0.330919
482 1 0.0733388 0.41475 0.507685
505 1 -0.00127258 0.499739 0.506246
343 1 0.243413 0.332794 0.419137
344 1 0.15996 0.417145 0.407279
348 1 0.339215 0.431684 0.426109
485 1 0.158766 0.345797 0.497432
346 1 0.410017 0.430609 0.345767
347 1 0.410672 0.333121 0.411907
352 1 0.502209 0.414536 0.403601
371 1 0.424449 0.502102 0.42957
349 1 0.496804 0.342952 0.328216
351 1 0.583791 0.334238 0.421398
356 1 0.659011 0.41955 0.420586
375 1 0.577271 0.497901 0.407409
493 1 0.506194 0.339255 0.493617
354 1 0.744119 0.415295 0.343624
355 1 0.748887 0.328723 0.424492
379 1 0.749577 0.499115 0.414804
340 1 0.993309 0.426931 0.43337
358 1 0.918075 0.413208 0.350609
360 1 0.823456 0.417702 0.421863
525 1 0.835946 0.492211 0.498459
362 1 0.0768785 0.576144 0.33971
363 1 0.0815464 0.495642 0.423249
368 1 0.161599 0.569917 0.42365
506 1 0.0809849 0.580451 0.495179
367 1 0.251147 0.504299 0.427176
510 1 0.247728 0.585958 0.505163
372 1 0.333118 0.579902 0.420518
373 1 0.509051 0.501971 0.326057
395 1 0.417926 0.673626 0.411038
514 1 0.419959 0.57826 0.510077
374 1 0.58759 0.589149 0.34596
376 1 0.497303 0.576636 0.410359
399 1 0.592791 0.679567 0.407847
401 1 0.665368 0.671464 0.324805
380 1 0.677582 0.592464 0.429611
384 1 0.829429 0.582574 0.413016
403 1 0.745651 0.670757 0.415301
522 1 0.751255 0.591516 0.509549
364 1 1.00476 0.579382 0.415876
382 1 0.920429 0.577525 0.329206
383 1 0.917206 0.504956 0.417987
407 1 0.915215 0.65484 0.414559
387 1 0.0835722 0.66122 0.412282
389 1 0.164374 0.667956 0.34185
392 1 0.153624 0.742572 0.420678
411 1 0.0768173 0.830349 0.413723
530 1 0.0809606 0.748696 0.504334
391 1 0.251963 0.659691 0.420125
534 1 0.249813 0.746469 0.504726
394 1 0.414416 0.754217 0.330316
396 1 0.324445 0.743344 0.413129
397 1 0.512777 0.680365 0.315843
400 1 0.50441 0.752273 0.413686
419 1 0.403381 0.829741 0.416243
537 1 0.342256 0.665465 0.49463
538 1 0.407781 0.751504 0.49232
398 1 0.585963 0.767282 0.325013
404 1 0.668513 0.753044 0.408438
423 1 0.584686 0.845352 0.409797
408 1 0.843246 0.740583 0.411945
427 1 0.756905 0.829119 0.417281
546 1 0.760062 0.74881 0.494958
388 1 1.00347 0.749736 0.414002
405 1 0.839754 0.652249 0.323142
406 1 0.923316 0.752253 0.328473
431 1 0.916831 0.839158 0.413723
550 1 0.921927 0.742406 0.50038
291 1 0.0918801 -0.001013 0.396386
410 1 0.093293 0.913458 0.331419
413 1 0.161018 0.830733 0.328921
433 1 0.0141153 1.00095 0.484498
557 1 0.17368 0.823634 0.500496
295 1 0.236217 -0.00486653 0.412525
414 1 0.263294 0.916296 0.330899
415 1 0.232717 0.825575 0.411348
416 1 0.168762 0.914312 0.404351
420 1 0.330634 0.918179 0.423557
558 1 0.23866 0.914869 0.494252
299 1 0.412278 1.00066 0.425899
418 1 0.415759 0.906905 0.33834
424 1 0.495012 0.913917 0.423269
561 1 0.330965 0.842134 0.502102
562 1 0.423564 0.9295 0.517847
301 1 0.491056 0.989109 0.335267
421 1 0.492318 0.832107 0.340044
422 1 0.593852 0.919183 0.334174
428 1 0.676059 0.916452 0.413549
449 1 0.677391 0.984788 0.492857
307 1 0.754788 -0.0113593 0.412938
426 1 0.748868 0.910243 0.342331
432 1 0.837291 0.916392 0.41844
573 1 0.853008 0.820287 0.494449
409 1 -0.00154642 0.836819 0.3327
412 1 0.00972745 0.912122 0.42421
574 1 0.920303 0.912567 0.49796
435 1 0.0811037 -0.0100751 0.577187
436 1 1.00247 0.0727146 0.581388
459 1 0.0801807 0.16433 0.589221
577 1 -0.0101443 1.01995 0.667283
438 1 0.24805 0.0868006 0.495221
440 1 0.159719 0.0758104 0.590238
463 1 0.242352 0.159731 0.58973
582 1 0.255053 0.0661045 0.667142
605 1 0.156353 0.167061 0.671136
442 1 0.425338 0.0747941 0.499811
444 1 0.344152 0.0826583 0.575841
448 1 0.503237 0.0809831 0.579263
465 1 0.347313 0.169062 0.491184
589 1 0.500745 0.981204 0.66528
447 1 0.589792 0.987148 0.577779
452 1 0.668441 0.0852957 0.594676
471 1 0.57889 0.164058 0.578809
590 1 0.583823 0.0700867 0.666205
593 1 0.674749 1.00481 0.655567
450 1 0.738883 0.0810735 0.484077
473 1 0.66136 0.16826 0.493929
475 1 0.745762 0.165909 0.585597
454 1 0.914892 0.083337 0.502022
455 1 0.910302 0.991553 0.580974
456 1 0.828279 0.0907598 0.573507
479 1 0.897174 0.168405 0.579403
460 1 0.995166 0.255918 0.581377
483 1 0.093285 0.323727 0.578146
464 1 0.172376 0.251283 0.556053
468 1 0.349029 0.249744 0.576961
487 1 0.24459 0.335787 0.579445
629 1 0.174698 0.32895 0.650763
466 1 0.426393 0.242387 0.495625
467 1 0.426094 0.164589 0.562857
491 1 0.420976 0.334937 0.58011
472 1 0.4975 0.257679 0.577064
641 1 0.657168 0.320959 0.671289
476 1 0.666986 0.25014 0.583029
480 1 0.815286 0.251562 0.586441
499 1 0.73952 0.338135 0.583502
618 1 0.737799 0.249761 0.676274
621 1 0.827943 0.172395 0.676672
503 1 0.910878 0.317573 0.590605
622 1 0.911531 0.241808 0.676294
625 1 0.983989 0.325033 0.682886
484 1 0.986288 0.403444 0.588307
488 1 0.155626 0.413257 0.592309
626 1 0.0695045 0.425058 0.663818
486 1 0.244991 0.418371 0.482747
509 1 0.155734 0.495211 0.499925
513 1 0.333686 0.50736 0.509179
630 1 0.240101 0.427707 0.661145
490 1 0.41519 0.411294 0.500913
492 1 0.328124 0.410832 0.574849
515 1 0.412245 0.491761 0.593445
517 1 0.50604 0.505381 0.507271
661 1 0.498556 0.498797 0.666215
494 1 0.58278 0.418612 0.50278
495 1 0.576128 0.330795 0.580717
496 1 0.504197 0.421688 0.581805
497 1 0.665303 0.342371 0.501123
500 1 0.658788 0.406525 0.592024
519 1 0.592734 0.498517 0.588011
498 1 0.745372 0.416683 0.503066
504 1 0.820431 0.425076 0.586914
642 1 0.73867 0.417863 0.658154
501 1 0.829769 0.332082 0.503138
502 1 0.907334 0.41713 0.512105
527 1 0.911743 0.498454 0.584345
507 1 0.0801583 0.497974 0.578176
508 1 0.987473 0.588508 0.595032
533 1 0.163839 0.659121 0.509355
650 1 0.0737061 0.57609 0.667082
653 1 0.159401 0.50716 0.668137
511 1 0.26058 0.503894 0.590371
512 1 0.167766 0.574295 0.581679
516 1 0.337869 0.597396 0.587496
654 1 0.244587 0.589048 0.669965
520 1 0.504897 0.594581 0.58486
541 1 0.500017 0.671456 0.497948
657 1 0.326767 0.505527 0.668289
658 1 0.417972 0.572763 0.664526
518 1 0.588391 0.591213 0.495242
524 1 0.681243 0.596389 0.590228
545 1 0.6613 0.670718 0.500174
662 1 0.590452 0.591064 0.666137
521 1 0.661374 0.50059 0.511501
523 1 0.742955 0.507433 0.57656
547 1 0.760979 0.663494 0.583418
549 1 0.839718 0.656209 0.499692
526 1 0.925788 0.577905 0.501416
528 1 0.835026 0.577671 0.589158
529 1 0.00281105 0.662739 0.506723
551 1 0.908411 0.669789 0.580937
673 1 0.00603526 0.669888 0.669289
531 1 0.0824752 0.652697 0.587169
536 1 0.165312 0.753014 0.579809
555 1 0.0902567 0.836241 0.573
674 1 0.0826432 0.747794 0.667612
677 1 0.162188 0.670405 0.665042
535 1 0.24202 0.675218 0.592522
540 1 0.32508 0.749894 0.585663
559 1 0.249032 0.837797 0.588606
539 1 0.417541 0.674383 0.59208
544 1 0.509558 0.751766 0.563796
563 1 0.425398 0.833098 0.575763
565 1 0.494923 0.831788 0.489793
681 1 0.334372 0.662318 0.675215
685 1 0.505952 0.663667 0.663468
709 1 0.502352 0.842339 0.658101
542 1 0.585496 0.759684 0.477245
543 1 0.589051 0.668321 0.582076
569 1 0.671753 0.830224 0.50082
548 1 0.676496 0.752937 0.578898
552 1 0.824442 0.749756 0.576067
571 1 0.749271 0.82185 0.577296
690 1 0.7605 0.748562 0.678531
532 1 0.000902558 0.760163 0.591522
553 1 0.00472954 0.829549 0.509208
697 1 0.983129 0.833577 0.673612
554 1 0.0967429 0.906509 0.496512
556 1 -0.00596715 0.9206 0.577368
698 1 0.0742965 0.908149 0.654729
701 1 0.182442 0.837216 0.668956
439 1 0.246414 0.980675 0.579198
560 1 0.163474 0.92087 0.579224
564 1 0.334004 0.907401 0.578764
705 1 0.335987 0.843168 0.665009
443 1 0.422007 1.00548 0.592288
568 1 0.511488 0.912882 0.575884
706 1 0.420557 0.914379 0.664647
566 1 0.594358 0.917371 0.492046
567 1 0.589581 0.838851 0.580467
572 1 0.681917 0.916973 0.576277
451 1 0.762563 0.997462 0.570395
453 1 0.845949 1.00187 0.487445
570 1 0.760376 0.904635 0.498206
576 1 0.835319 0.911275 0.577015
575 1 0.924094 0.829028 0.5791
718 1 0.921246 0.921136 0.669824
578 1 0.0811657 0.0875084 0.686437
584 1 0.170394 0.0790549 0.74475
601 1 -0.0106975 0.160894 0.669252
603 1 0.081408 0.17171 0.763462
583 1 0.24867 0.999866 0.754352
607 1 0.244271 0.163546 0.728506
609 1 0.323323 0.162941 0.65689
726 1 0.234498 0.0857396 0.826233
585 1 0.34467 0.995081 0.672223
586 1 0.425459 0.0761662 0.659272
587 1 0.42158 0.00764195 0.742392
588 1 0.341716 0.0871144 0.743148
730 1 0.425332 0.0823961 0.82018
591 1 0.596836 0.986955 0.752464
592 1 0.507778 0.0771249 0.743631
615 1 0.579932 0.164226 0.753848
594 1 0.751194 0.0737596 0.656212
596 1 0.666187 0.0736531 0.744417
617 1 0.662479 0.162421 0.663132
619 1 0.742131 0.156187 0.764758
580 1 0.993263 0.0858525 0.749554
598 1 0.903286 0.0870076 0.656463
599 1 0.915966 -0.000487843 0.758137
600 1 0.833163 0.0852654 0.746246
623 1 0.901869 0.170355 0.753779
602 1 0.0724062 0.259351 0.670867
604 1 -0.00848863 0.255712 0.759153
769 1 0.990631 0.323875 0.840209
606 1 0.266707 0.25345 0.650022
608 1 0.166983 0.25617 0.750185
612 1 0.33114 0.247172 0.741711
631 1 0.246455 0.326286 0.740943
753 1 0.337507 0.165974 0.837222
610 1 0.421875 0.253817 0.653366
611 1 0.408324 0.173635 0.73424
613 1 0.500403 0.168183 0.651507
616 1 0.494231 0.248424 0.738744
781 1 0.511491 0.334844 0.826541
614 1 0.582979 0.239053 0.659667
620 1 0.657872 0.243052 0.750573
637 1 0.507541 0.319939 0.664988
639 1 0.580378 0.327088 0.750066
758 1 0.581046 0.251031 0.83236
624 1 0.828019 0.246261 0.771371
643 1 0.747084 0.329924 0.749349
645 1 0.821223 0.327022 0.67145
647 1 0.899125 0.342297 0.756844
789 1 0.814545 0.346499 0.83277
627 1 0.0785833 0.341797 0.744629
628 1 1.00438 0.414822 0.756892
651 1 0.0776744 0.499739 0.750944
632 1 0.171625 0.425831 0.749658
633 1 0.327705 0.348507 0.654186
773 1 0.167545 0.341841 0.823679
774 1 0.251987 0.414923 0.824783
634 1 0.423178 0.410856 0.666909
635 1 0.413128 0.332097 0.740252
636 1 0.337075 0.407554 0.74996
640 1 0.487762 0.410636 0.751151
659 1 0.410634 0.489371 0.74405
778 1 0.420261 0.406546 0.847989
805 1 0.490326 0.492229 0.821126
638 1 0.567333 0.408951 0.665787
644 1 0.64528 0.42777 0.744726
665 1 0.67849 0.51611 0.662464
667 1 0.748136 0.500959 0.758462
646 1 0.896519 0.404906 0.667804
648 1 0.811449 0.415398 0.733968
669 1 0.849101 0.503593 0.667611
671 1 0.923574 0.503028 0.750835
790 1 0.922923 0.409023 0.837764
649 1 0.994713 0.49543 0.662348
656 1 0.16113 0.590077 0.751915
675 1 0.0861175 0.668717 0.762176
794 1 0.0914826 0.591107 0.834504
655 1 0.242863 0.50751 0.756711
660 1 0.332207 0.584976 0.750923
679 1 0.245688 0.667276 0.744135
798 1 0.253641 0.593017 0.829543
664 1 0.491726 0.584202 0.739735
683 1 0.417294 0.676674 0.743465
663 1 0.579909 0.505023 0.73536
687 1 0.581689 0.663809 0.744941
689 1 0.656665 0.671611 0.661266
666 1 0.757162 0.591344 0.673724
668 1 0.679303 0.581387 0.754831
691 1 0.750102 0.660706 0.758736
809 1 0.651559 0.502277 0.826096
810 1 0.743309 0.576102 0.842382
833 1 0.657337 0.653693 0.834653
652 1 1.01324 0.593672 0.752906
670 1 0.912396 0.596617 0.665983
672 1 0.84262 0.591643 0.751747
693 1 0.834945 0.666791 0.668614
793 1 0.99998 0.500501 0.829074
813 1 0.824318 0.486435 0.83393
676 1 -0.00319775 0.76267 0.752218
699 1 0.0892032 0.833983 0.735935
821 1 0.164683 0.679079 0.833604
841 1 1.00021 0.832777 0.84585
678 1 0.25886 0.760662 0.679964
680 1 0.169269 0.749563 0.752905
684 1 0.333112 0.756839 0.749003
703 1 0.255107 0.843253 0.755699
822 1 0.253587 0.744625 0.843715
845 1 0.169859 0.825708 0.837529
682 1 0.434226 0.753773 0.66465
688 1 0.500034 0.757548 0.74989
826 1 0.416456 0.751651 0.827646
686 1 0.588941 0.754684 0.650701
713 1 0.667147 0.832782 0.660903
830 1 0.585298 0.742557 0.839994
692 1 0.676284 0.752595 0.742767
696 1 0.828449 0.7466 0.771012
694 1 0.919253 0.74143 0.665162
695 1 0.922277 0.674915 0.756948
817 1 0.00533287 0.673236 0.841734
838 1 0.928054 0.745502 0.846675
579 1 0.0874529 0.992987 0.74424
842 1 0.072502 0.909932 0.831905
581 1 0.162499 0.991475 0.654972
702 1 0.253511 0.914338 0.666633
704 1 0.16285 0.918254 0.743929
708 1 0.338669 0.924491 0.762112
725 1 0.16556 0.992896 0.83177
707 1 0.418802 0.833519 0.747222
712 1 0.501604 0.918054 0.751214
733 1 0.492146 0.00140355 0.832191
710 1 0.606058 0.916995 0.661092
711 1 0.594668 0.847533 0.759812
716 1 0.684273 0.91003 0.741259
595 1 0.746128 0.998595 0.751363
597 1 0.836342 0.00141063 0.67445
714 1 0.764091 0.91505 0.662777
715 1 0.753025 0.831741 0.746241
717 1 0.840358 0.836527 0.663799
858 1 0.758474 0.912768 0.831772
700 1 -0.00542834 0.921067 0.747664
719 1 0.918056 0.836107 0.759953
720 1 0.841353 0.920018 0.751274
2 1 0.089185 0.0808801 0.998642
722 1 0.0897756 0.0744696 0.822408
723 1 0.086537 1.00072 0.916384
724 1 1.00295 0.0865843 0.916494
745 1 0.988528 0.169578 0.835531
747 1 0.0810276 0.16163 0.903241
728 1 0.163837 0.0734262 0.914753
10 1 0.416605 0.0866155 -0.0085018
732 1 0.335273 0.093928 0.918476
736 1 0.492763 0.0782025 0.91434
14 1 0.577972 0.0797702 -0.00349654
37 1 0.493326 0.163163 0.995158
734 1 0.583474 0.0801896 0.822804
757 1 0.498512 0.165072 0.835751
21 1 0.828597 0.00424038 0.000557372
738 1 0.744452 0.074655 0.82506
740 1 0.679151 0.0870333 0.919171
765 1 0.823202 0.157234 0.840671
22 1 0.917341 0.0829918 -0.00175779
25 1 1.00714 0.166743 0.994881
741 1 0.830928 -0.000751863 0.821601
742 1 0.912871 0.0812574 0.837346
744 1 0.833918 0.074456 0.914702
767 1 0.911052 0.175175 0.916301
26 1 0.0848216 0.255371 0.986872
746 1 0.0884721 0.248351 0.838558
748 1 0.999568 0.246517 0.911225
771 1 0.089211 0.332202 0.902711
33 1 0.330127 0.170334 0.00153507
749 1 0.168129 0.173696 0.842304
750 1 0.255435 0.245368 0.825571
751 1 0.246008 0.165404 0.917784
752 1 0.167524 0.257713 0.909742
756 1 0.329774 0.259419 0.908254
34 1 0.409254 0.251676 0.00722713
754 1 0.417853 0.259974 0.827985
755 1 0.414756 0.18626 0.919785
759 1 0.580345 0.175468 0.911764
760 1 0.498874 0.256378 0.917295
764 1 0.65802 0.259418 0.922141
761 1 0.662812 0.159639 0.834553
762 1 0.731126 0.254263 0.832685
763 1 0.747742 0.175091 0.91091
768 1 0.824832 0.254406 0.921274
766 1 0.909366 0.251979 0.836809
50 1 0.0866885 0.42395 1.00092
770 1 0.088335 0.430744 0.832156
775 1 0.248394 0.338896 0.910792
776 1 0.170033 0.417077 0.920983
780 1 0.327311 0.416337 0.916301
799 1 0.249667 0.512085 0.909058
801 1 0.322444 0.497319 0.831878
58 1 0.419072 0.415068 0.00663486
777 1 0.330313 0.340039 0.826539
779 1 0.422764 0.333542 0.923524
803 1 0.411779 0.49157 0.905125
782 1 0.570948 0.423346 0.830019
783 1 0.57805 0.341578 0.926018
784 1 0.498918 0.417632 0.929937
66 1 0.741502 0.411616 0.991652
785 1 0.639908 0.340111 0.831622
786 1 0.73647 0.422093 0.828529
787 1 0.740002 0.33967 0.910278
788 1 0.659491 0.425302 0.913446
811 1 0.745059 0.496438 0.919546
69 1 0.825395 0.344429 0.00327648
70 1 0.919332 0.408079 0.993848
772 1 0.0194168 0.41881 0.914312
791 1 0.907304 0.334829 0.916258
792 1 0.825035 0.418294 0.926327
795 1 0.10346 0.50618 0.923983
819 1 0.0894815 0.660702 0.932306
78 1 0.250348 0.579924 0.0144443
105 1 0.336788 0.661998 0.00627181
797 1 0.172878 0.50098 0.84001
800 1 0.178822 0.5957 0.908821
804 1 0.338957 0.582518 0.907407
823 1 0.271553 0.664301 0.932533
82 1 0.414565 0.579351 0.00462602
802 1 0.414732 0.589032 0.813266
808 1 0.488968 0.570046 0.907011
825 1 0.331814 0.670173 0.817031
827 1 0.414782 0.657642 0.904426
829 1 0.494987 0.669857 0.822739
86 1 0.581645 0.586278 0.0131717
806 1 0.570295 0.586302 0.816577
807 1 0.578 0.504153 0.909692
89 1 0.667506 0.492112 -0.00178659
93 1 0.834344 0.49746 0.00312097
812 1 0.668912 0.583334 0.926653
796 1 1.00968 0.570251 0.920369
814 1 0.916012 0.594529 0.838694
815 1 0.907653 0.497861 0.915497
816 1 0.826204 0.572411 0.923226
98 1 0.0919818 0.749676 0.00382912
818 1 0.0861655 0.755323 0.833379
820 1 0.0107805 0.748591 0.927918
843 1 0.0897286 0.829321 0.924747
824 1 0.172206 0.734514 0.929517
849 1 0.335821 0.833416 0.828114
828 1 0.33732 0.759173 0.90548
851 1 0.434248 0.82341 0.919092
109 1 0.506828 0.662753 -0.0200251
113 1 0.66494 0.667854 0.0155735
133 1 0.509383 0.827952 -0.00213136
831 1 0.583454 0.646477 0.91526
832 1 0.504739 0.737566 0.911476
855 1 0.583462 0.829305 0.914569
114 1 0.737256 0.744104 0.00433425
834 1 0.738086 0.732289 0.836282
835 1 0.746352 0.660844 0.923837
836 1 0.65538 0.749815 0.916337
840 1 0.834183 0.745306 0.936783
837 1 0.839015 0.661793 0.851181
839 1 0.924643 0.665622 0.919612
861 1 0.835438 0.831328 0.84178
122 1 0.075339 0.92341 1.00326
721 1 -0.00527593 1.00166 0.843896
844 1 0.999632 0.911403 0.911204
848 1 0.171841 0.91423 0.905304
126 1 0.248428 0.909521 0.986047
727 1 0.244378 1.00317 0.921612
729 1 0.34116 0.00741907 0.839438
846 1 0.26172 0.921476 0.839298
847 1 0.260497 0.82492 0.918676
852 1 0.33874 0.903877 0.91528
13 1 0.510793 -0.00208245 -0.00414377
129 1 0.331937 0.834392 1.00968
130 1 0.429583 0.912245 0.00515419
731 1 0.423523 0.997204 0.926892
850 1 0.430096 0.904624 0.840797
735 1 0.589967 0.00839447 0.910529
853 1 0.508105 0.831249 0.834513
854 1 0.58131 0.914929 0.846409
856 1 0.504467 0.916151 0.929044
737 1 0.673074 -0.00593424 0.836725
739 1 0.750037 0.995484 0.914968
857 1 0.674139 0.845789 0.828103
859 1 0.747867 0.825234 0.913993
860 1 0.662165 0.9238 0.912506
142 1 0.915301 0.925509 0.996409
743 1 0.912563 1.00342 0.917096
862 1 0.917488 0.923865 0.83337
863 1 0.911993 0.842631 0.920954
864 1 0.822868 0.912132 0.92408
