ITEM: TIMESTEP
3500
ITEM: NUMBER OF ATOMS
864
ITEM: BOX BOUNDS pp pp pp
0.0000000000000000e+00 3.1559999999999999e+01
0.0000000000000000e+00 3.1559999999999999e+01
0.0000000000000000e+00 3.1559999999999999e+01
ITEM: ATOMS id type xs ys zs
27 1 0.0774237 0.164131 0.0877389
173 1 0.178068 0.14975 0.16647
169 1 0.0197932 0.162493 0.18008
3 1 0.0825166 0.00651736 0.0898622
146 1 0.0971058 0.088227 0.176559
29 1 0.17691 0.158416 0.986159
8 1 0.156341 0.0825004 0.0800134
6 1 0.242281 0.0612142 -0.00662156
12 1 0.334294 0.0704826 0.0858683
31 1 0.265691 0.1539 0.0964914
9 1 0.339644 0.000341102 0.995125
11 1 0.431255 0.000218589 0.0814442
13 1 0.520934 0.00365135 0.00371064
16 1 0.50977 0.0684507 0.0930667
158 1 0.60311 0.0783416 0.157282
15 1 0.591026 0.994261 0.0821817
20 1 0.678493 0.0904784 0.0802532
162 1 0.754817 0.0699062 0.172865
17 1 0.6777 0.998284 0.0163242
4 1 1.00618 0.0833326 0.0939512
24 1 0.831596 0.0852536 0.0881877
47 1 0.926652 0.162034 0.0798729
165 1 0.842095 1.01253 0.185798
51 1 0.1006 0.318187 0.0726913
170 1 0.0832879 0.254178 0.164283
26 1 0.0825713 0.230384 -0.0147082
32 1 0.178895 0.227061 0.0895302
28 1 1.00197 0.239182 0.0623843
53 1 0.183061 0.328319 1.00062
55 1 0.262123 0.330293 0.0793703
174 1 0.249939 0.230319 0.173258
36 1 0.323107 0.239853 0.0974337
35 1 0.416778 0.160841 0.0838773
59 1 0.418767 0.338088 0.0813625
40 1 0.500413 0.232865 0.088052
201 1 0.334617 0.32405 0.166586
205 1 0.504967 0.331293 0.166495
39 1 0.586074 0.177143 0.0883053
61 1 0.501285 0.326181 0.00958849
185 1 0.679772 0.165515 0.174171
43 1 0.758334 0.173269 0.0860697
44 1 0.670167 0.242877 0.0976459
186 1 0.76729 0.247212 0.179791
67 1 0.759894 0.328623 0.0816445
48 1 0.833484 0.24725 0.0741213
189 1 0.839015 0.165275 0.17968
45 1 0.838576 0.160179 0.00327435
46 1 0.919825 0.246697 0.998063
194 1 0.0734134 0.395053 0.154186
56 1 0.180096 0.42001 0.0672633
52 1 1.00429 0.412094 0.0846048
197 1 0.162523 0.336699 0.160768
79 1 0.244717 0.5146 0.0826543
60 1 0.344539 0.421167 0.0865494
83 1 0.409671 0.514727 0.0753842
64 1 0.497151 0.408098 0.0871558
202 1 0.42715 0.408589 0.173231
58 1 0.425742 0.413021 -0.000591363
63 1 0.599994 0.343644 0.0828104
87 1 0.577888 0.498987 0.0857805
233 1 0.682625 0.506506 0.165969
206 1 0.598163 0.422446 0.168143
62 1 0.583363 0.421386 -0.00121021
209 1 0.683972 0.332238 0.163027
68 1 0.667861 0.435782 0.0715688
210 1 0.752452 0.414006 0.163259
65 1 0.677502 0.339136 -0.00740634
71 1 0.931404 0.327983 0.0739262
193 1 -0.00915984 0.324058 0.163749
72 1 0.838991 0.41542 0.0837397
214 1 0.922421 0.409408 0.162102
75 1 0.0855368 0.486877 0.074348
99 1 0.0604868 0.660335 0.0697229
218 1 0.0858966 0.577366 0.180279
76 1 0.0169246 0.559287 0.0771754
80 1 0.139916 0.592305 0.0715818
84 1 0.334338 0.59356 0.0737632
105 1 0.309849 0.675034 0.999258
107 1 0.417717 0.67272 0.074934
88 1 0.488875 0.585201 0.0874746
82 1 0.424845 0.592028 0.989969
109 1 0.512262 0.662527 0.993263
86 1 0.578037 0.566117 1.00077
92 1 0.673871 0.580281 0.077483
111 1 0.568351 0.670039 0.0949765
91 1 0.760191 0.501571 0.0821939
90 1 0.757082 0.602233 0.995163
234 1 0.756907 0.601577 0.170923
117 1 0.835946 0.667043 0.973891
115 1 0.74706 0.683328 0.0902742
96 1 0.830618 0.599996 0.0676205
95 1 0.925419 0.491915 0.0730716
119 1 0.933441 0.662352 0.0962717
217 1 0.00104562 0.49631 0.158844
238 1 0.933896 0.572229 0.147589
245 1 0.193804 0.654943 0.162279
123 1 0.0723266 0.817344 0.0817344
242 1 0.0769637 0.750744 0.175733
103 1 0.253358 0.656771 0.0815584
104 1 0.137863 0.743329 0.0663122
127 1 0.252614 0.823207 0.0811055
246 1 0.255873 0.754457 0.161047
108 1 0.325792 0.74617 0.0709644
112 1 0.496189 0.742511 0.0898753
250 1 0.411344 0.762303 0.160505
106 1 0.409715 0.75316 0.986699
116 1 0.660457 0.743725 0.0764755
133 1 0.50062 0.828975 1.01529
135 1 0.601719 0.828554 0.0662336
277 1 0.494858 0.823641 0.167522
114 1 0.744084 0.746829 1.00916
261 1 0.8517 0.667562 0.176614
137 1 0.685806 0.835542 0.00803974
258 1 0.758407 0.744355 0.167211
113 1 0.653461 0.668154 0.00418455
100 1 -0.00198666 0.748491 0.0720569
120 1 0.841327 0.738889 0.0932122
143 1 0.912296 0.822953 0.0836304
121 1 -0.0127508 0.832254 0.00319996
128 1 0.161515 0.925044 0.0998909
1 1 1.0192 0.0103486 0.00255106
122 1 0.0682489 0.912313 0.997638
7 1 0.236088 0.999529 0.0886702
270 1 0.250134 0.911217 0.149047
126 1 0.264164 0.93492 -0.00150277
131 1 0.407405 0.830278 0.0775666
132 1 0.337664 0.934646 0.0837094
130 1 0.426278 0.929086 0.0107012
274 1 0.427259 0.913062 0.160928
136 1 0.520268 0.905161 0.0857839
273 1 0.336505 0.841489 0.158863
157 1 0.513181 -0.00673761 0.175763
134 1 0.602028 0.912073 1.00384
140 1 0.667667 0.905806 0.094101
278 1 0.589622 0.915579 0.176104
19 1 0.776241 -0.00556796 0.0798839
139 1 0.768317 0.835326 0.0805878
138 1 0.747762 0.91726 -0.00225831
21 1 0.825672 1.00686 0.993763
124 1 0.991926 0.904311 0.087091
144 1 0.84263 0.910693 0.0793076
23 1 0.910142 1.00051 0.0861908
141 1 0.842124 0.824466 0.98845
290 1 0.0790382 0.08386 0.346062
148 1 1.00156 0.0756471 0.265071
152 1 0.184633 0.0705274 0.255159
171 1 0.108997 0.167495 0.245263
150 1 0.261468 0.064352 0.178023
177 1 0.352282 0.156625 0.17054
151 1 0.249366 0.987075 0.237962
175 1 0.26674 0.160338 0.250398
293 1 0.179057 -0.0018066 0.327586
154 1 0.438309 0.0794013 0.167745
156 1 0.351402 0.0819963 0.246552
298 1 0.435764 0.0967259 0.329708
160 1 0.514945 0.0757842 0.249658
321 1 0.337826 0.162435 0.331177
301 1 0.503207 0.991734 0.331718
181 1 0.514581 0.154965 0.174075
302 1 0.587701 0.0733538 0.33943
159 1 0.602607 0.99793 0.242442
164 1 0.659416 0.0897504 0.247295
168 1 0.826182 0.0855766 0.269995
163 1 0.753284 0.983244 0.25298
166 1 0.923221 0.0908993 0.179108
191 1 0.92343 0.167926 0.245147
195 1 0.0923716 0.342833 0.242712
314 1 0.0838429 0.252745 0.324755
313 1 -0.00523186 0.17848 0.327
176 1 0.176735 0.239309 0.24754
172 1 1.01273 0.251323 0.242465
341 1 0.170244 0.325959 0.318092
318 1 0.257033 0.245959 0.327296
199 1 0.251233 0.325169 0.236454
317 1 0.167684 0.15432 0.335049
178 1 0.431723 0.251476 0.170685
179 1 0.431285 0.165852 0.249359
325 1 0.501125 0.181642 0.33716
180 1 0.34235 0.238211 0.231305
322 1 0.413972 0.259313 0.326739
345 1 0.330979 0.324229 0.328545
203 1 0.406677 0.328157 0.244789
182 1 0.586908 0.247515 0.171075
183 1 0.579145 0.160168 0.262666
184 1 0.505704 0.256693 0.252903
188 1 0.671779 0.234144 0.259596
213 1 0.833215 0.326404 0.164715
187 1 0.763937 0.17475 0.261391
330 1 0.76142 0.254684 0.337645
333 1 0.834723 0.18107 0.33815
190 1 0.908384 0.250119 0.152424
192 1 0.847244 0.256732 0.246446
215 1 0.91739 0.346026 0.253336
334 1 0.908389 0.256304 0.328793
200 1 0.180598 0.40373 0.252417
338 1 0.108652 0.412488 0.339385
198 1 0.255081 0.407232 0.154817
221 1 0.163398 0.497805 0.151374
223 1 0.249983 0.496197 0.251374
204 1 0.335965 0.414859 0.253026
369 1 0.331297 0.49839 0.340262
229 1 0.483862 0.498532 0.15487
227 1 0.408542 0.500887 0.252449
373 1 0.501287 0.503734 0.341389
208 1 0.504611 0.418353 0.242751
207 1 0.596806 0.325453 0.237824
212 1 0.675874 0.403017 0.253897
231 1 0.574843 0.510859 0.244775
211 1 0.756922 0.338089 0.252298
235 1 0.762885 0.502642 0.235075
353 1 0.662548 0.33047 0.32489
357 1 0.832519 0.336151 0.346421
237 1 0.836057 0.49876 0.163411
216 1 0.842722 0.421393 0.244422
196 1 -0.00664493 0.408858 0.23883
337 1 1.00322 0.330082 0.322496
358 1 0.909292 0.417987 0.327872
241 1 0.00314108 0.661782 0.174067
219 1 0.091649 0.486582 0.259217
243 1 0.0915879 0.66825 0.250923
224 1 0.172666 0.574086 0.251567
220 1 0.0134384 0.588914 0.257635
385 1 0.00455333 0.660121 0.336874
222 1 0.265881 0.578411 0.162028
366 1 0.250772 0.581976 0.328762
228 1 0.326601 0.587692 0.25365
226 1 0.397265 0.584263 0.164081
253 1 0.478888 0.660086 0.171519
225 1 0.328684 0.48054 0.163287
232 1 0.485742 0.580288 0.255426
251 1 0.409078 0.649098 0.249808
230 1 0.594146 0.577462 0.156473
374 1 0.58198 0.592182 0.321425
255 1 0.565838 0.674613 0.233151
257 1 0.655447 0.667882 0.162987
377 1 0.673696 0.488629 0.316577
236 1 0.674164 0.577523 0.243342
378 1 0.757239 0.569854 0.328335
381 1 0.839658 0.50176 0.33039
401 1 0.678096 0.659983 0.329895
240 1 0.845898 0.579797 0.235117
239 1 0.932451 0.503119 0.248778
382 1 0.924985 0.584161 0.345563
386 1 0.075189 0.749056 0.343272
248 1 0.164217 0.757733 0.256523
244 1 0.00425409 0.742181 0.252988
267 1 0.0927633 0.833876 0.256708
249 1 0.338977 0.683521 0.154797
247 1 0.2389 0.681103 0.252679
252 1 0.322514 0.744901 0.243502
390 1 0.24485 0.761158 0.32977
256 1 0.487347 0.749415 0.244618
275 1 0.403049 0.82547 0.240552
397 1 0.489929 0.672092 0.320993
254 1 0.590088 0.768328 0.154609
398 1 0.591743 0.739965 0.333243
260 1 0.666435 0.738435 0.242756
421 1 0.484259 0.835899 0.320646
259 1 0.762792 0.675397 0.25927
402 1 0.759033 0.753112 0.350002
283 1 0.753835 0.836541 0.254572
263 1 0.933587 0.652626 0.25256
285 1 0.833922 0.815389 0.178191
264 1 0.84727 0.755211 0.257418
262 1 0.935323 0.746166 0.164703
287 1 0.937468 0.820561 0.260172
145 1 1.00287 0.998084 0.165013
147 1 0.0805227 0.00387758 0.245026
266 1 0.0844334 0.923848 0.173998
268 1 1.01368 0.92577 0.272141
265 1 0.00500931 0.835547 0.169005
149 1 0.170463 1.00969 0.173369
269 1 0.162514 0.817735 0.153304
272 1 0.158519 0.913536 0.252324
271 1 0.24052 0.83704 0.233924
414 1 0.248703 0.917712 0.32402
153 1 0.355356 -0.000373296 0.172726
297 1 0.334846 1.00172 0.331319
155 1 0.418757 -0.0098132 0.246946
276 1 0.333418 0.914668 0.236346
280 1 0.495566 0.912202 0.242955
281 1 0.6879 0.828153 0.164823
161 1 0.677066 -0.0020845 0.14313
279 1 0.58076 0.813259 0.250723
284 1 0.67672 0.893999 0.246902
422 1 0.589083 0.904289 0.315606
425 1 0.675707 0.820453 0.319399
309 1 0.83728 -0.00496727 0.334914
282 1 0.783901 0.914813 0.156443
426 1 0.759458 0.907834 0.333186
167 1 0.923285 0.00029533 0.256099
288 1 0.848586 0.920679 0.249626
286 1 0.920757 0.904086 0.167494
291 1 0.087023 0.00751574 0.428183
434 1 0.0818248 0.0980165 0.500681
296 1 0.167493 0.0707825 0.41005
292 1 0.984724 0.0998169 0.422787
294 1 0.263615 0.0825908 0.326653
438 1 0.254882 0.0829242 0.486225
437 1 0.170465 0.0116195 0.506185
461 1 0.159755 0.169102 0.487397
300 1 0.340909 0.0741636 0.410336
299 1 0.431976 0.990527 0.413286
323 1 0.416395 0.16756 0.411662
469 1 0.489389 0.166812 0.496222
441 1 0.328947 1.00465 0.491795
329 1 0.670968 0.159051 0.341659
305 1 0.667639 0.984267 0.333749
304 1 0.494487 0.0831983 0.426486
446 1 0.579798 0.0768549 0.504764
303 1 0.592886 0.997792 0.412932
306 1 0.737837 0.0724808 0.328205
308 1 0.677448 0.072213 0.418419
312 1 0.838148 0.085235 0.420136
331 1 0.761792 0.172702 0.413679
307 1 0.745883 0.994225 0.415641
449 1 0.66262 0.99413 0.488536
310 1 0.919435 0.10124 0.336961
454 1 0.919855 0.0904208 0.502273
315 1 0.0719211 0.170222 0.418875
316 1 0.997731 0.256409 0.412071
320 1 0.168088 0.248993 0.400869
319 1 0.248711 0.170343 0.411972
462 1 0.256252 0.249165 0.488636
343 1 0.259046 0.332233 0.4203
485 1 0.175108 0.337854 0.50561
349 1 0.518163 0.34149 0.320299
324 1 0.336229 0.24989 0.40795
328 1 0.507419 0.250526 0.413832
347 1 0.414327 0.33993 0.404725
326 1 0.590665 0.25193 0.329236
327 1 0.570884 0.161829 0.420196
332 1 0.66159 0.241556 0.404083
470 1 0.584327 0.253274 0.499499
355 1 0.739949 0.32931 0.416485
474 1 0.748732 0.242094 0.494834
336 1 0.830806 0.266182 0.419942
335 1 0.909017 0.173911 0.426336
359 1 0.914467 0.33831 0.409802
478 1 0.9071 0.257653 0.489505
339 1 0.0885159 0.33769 0.41443
509 1 0.159203 0.494655 0.485378
365 1 0.180107 0.504815 0.333048
363 1 0.0880727 0.497094 0.409541
482 1 0.0713878 0.424655 0.481691
344 1 0.184635 0.404632 0.409299
342 1 0.261694 0.417621 0.331296
367 1 0.255135 0.49454 0.419567
348 1 0.344497 0.412589 0.403272
346 1 0.432552 0.413051 0.329863
352 1 0.517092 0.427768 0.415195
371 1 0.41933 0.492451 0.405683
517 1 0.489409 0.50451 0.498289
350 1 0.58502 0.42974 0.326531
493 1 0.504909 0.341908 0.478563
351 1 0.581694 0.339928 0.403489
494 1 0.582533 0.430986 0.501355
497 1 0.664879 0.334525 0.499748
356 1 0.679214 0.409663 0.423683
354 1 0.75547 0.425256 0.322455
379 1 0.737151 0.499668 0.411486
521 1 0.666151 0.496946 0.496526
498 1 0.750588 0.422934 0.498404
501 1 0.814159 0.32583 0.511844
360 1 0.839852 0.415307 0.422096
525 1 0.84568 0.498169 0.496844
340 1 0.995095 0.417727 0.413567
361 1 1.00295 0.478202 0.327024
383 1 0.932433 0.496617 0.423524
362 1 0.0974579 0.592754 0.332957
364 1 0.0143693 0.597987 0.426805
533 1 0.168546 0.668951 0.493078
506 1 0.0857615 0.580551 0.501957
368 1 0.165014 0.586698 0.418975
391 1 0.256182 0.664115 0.415971
389 1 0.165 0.67542 0.343804
370 1 0.416227 0.577974 0.333815
372 1 0.331037 0.58023 0.420668
376 1 0.499232 0.600492 0.400584
514 1 0.409137 0.573678 0.488516
375 1 0.607727 0.497047 0.406746
518 1 0.594788 0.586549 0.494535
380 1 0.670816 0.583406 0.413109
545 1 0.690207 0.653042 0.494161
541 1 0.486046 0.664062 0.494286
403 1 0.765203 0.657841 0.412753
522 1 0.754863 0.567072 0.50135
384 1 0.835174 0.578056 0.426857
526 1 0.918639 0.582617 0.507785
387 1 0.0881463 0.664139 0.413222
530 1 0.0764134 0.748719 0.515689
411 1 0.0781325 0.829153 0.428507
388 1 -0.00432926 0.759236 0.429712
529 1 1.00286 0.671105 0.512855
392 1 0.169156 0.755502 0.426175
557 1 0.16102 0.847243 0.508134
534 1 0.275517 0.757571 0.519489
393 1 0.317678 0.68233 0.322455
396 1 0.326912 0.757229 0.406763
413 1 0.152524 0.836005 0.352654
415 1 0.256435 0.847982 0.409542
394 1 0.411743 0.741821 0.326303
395 1 0.392848 0.657349 0.408035
419 1 0.411963 0.841417 0.402179
538 1 0.398148 0.755691 0.494865
399 1 0.602593 0.660673 0.406944
400 1 0.476715 0.740439 0.401707
405 1 0.848628 0.655382 0.311683
404 1 0.673322 0.737606 0.420378
429 1 0.840824 0.828013 0.335996
549 1 0.848805 0.668734 0.497524
573 1 0.827148 0.843613 0.495193
546 1 0.756546 0.751556 0.482867
408 1 0.854138 0.750409 0.404645
406 1 0.926249 0.735551 0.327125
407 1 0.918055 0.661656 0.418954
550 1 0.919965 0.775551 0.518167
289 1 0.9939 0.00119557 0.350387
410 1 0.0898436 0.932859 0.345846
295 1 0.25026 -0.000939262 0.406012
416 1 0.171347 0.919065 0.42024
558 1 0.251553 0.930831 0.489809
420 1 0.329886 0.925808 0.420418
561 1 0.342943 0.837666 0.523397
417 1 0.332465 0.845249 0.312254
418 1 0.410107 0.925626 0.317836
424 1 0.523571 0.91612 0.397935
562 1 0.42275 0.915495 0.498021
445 1 0.512426 1.00249 0.49369
423 1 0.574898 0.822638 0.395807
428 1 0.656537 0.901338 0.412653
566 1 0.577211 0.910191 0.495053
569 1 0.652265 0.819738 0.489012
427 1 0.742327 0.830515 0.42348
432 1 0.831203 0.909069 0.418466
409 1 0.0140552 0.834748 0.332852
430 1 0.925357 0.906182 0.33953
431 1 0.920419 0.842553 0.424939
311 1 0.911942 0.98481 0.411731
412 1 0.00489786 0.909844 0.417789
574 1 0.921458 0.918786 0.493417
457 1 0.993824 0.185701 0.495143
578 1 0.0778409 0.09535 0.664327
440 1 0.171419 0.0788236 0.590569
436 1 1.00212 0.0845123 0.590043
463 1 0.254707 0.157343 0.580777
439 1 0.254686 0.00681305 0.583166
442 1 0.414146 0.0799484 0.496657
444 1 0.334937 0.0798875 0.576057
443 1 0.42926 1.00054 0.56906
585 1 0.330067 0.00979897 0.661521
465 1 0.341536 0.156554 0.500536
586 1 0.422797 0.0960854 0.669174
448 1 0.493577 0.0837415 0.584518
447 1 0.591298 0.997747 0.585435
590 1 0.593421 0.0756665 0.663565
589 1 0.505325 -0.00933841 0.652799
452 1 0.673267 0.0861536 0.575314
450 1 0.755413 0.0841749 0.493387
477 1 0.828919 0.158512 0.507233
597 1 0.812435 1.00606 0.65332
594 1 0.746012 0.0927232 0.657956
433 1 1.00599 0.0176611 0.501922
453 1 0.840718 0.99181 0.499793
456 1 0.829571 0.0692821 0.563895
455 1 0.907065 1.00015 0.580351
598 1 0.921477 0.0875117 0.659192
577 1 0.975666 -0.00611422 0.683671
601 1 -0.00391491 0.178007 0.673913
458 1 0.0830184 0.247413 0.490488
459 1 0.0938417 0.17254 0.583275
483 1 0.0843434 0.344769 0.585013
481 1 0.00162302 0.340504 0.500862
464 1 0.17695 0.25055 0.580371
487 1 0.259429 0.331912 0.575705
629 1 0.179537 0.335258 0.662004
633 1 0.32545 0.341243 0.665736
606 1 0.261876 0.253428 0.656186
467 1 0.414013 0.156026 0.574209
466 1 0.4107 0.247577 0.491765
468 1 0.33602 0.248015 0.573801
491 1 0.431422 0.349528 0.573914
472 1 0.503092 0.264437 0.562613
489 1 0.343933 0.32795 0.499198
610 1 0.42308 0.250012 0.655583
471 1 0.584663 0.161151 0.58661
637 1 0.497032 0.35798 0.662838
476 1 0.667394 0.244827 0.573371
613 1 0.504498 0.162534 0.65275
473 1 0.653917 0.151929 0.486133
475 1 0.755825 0.171209 0.584358
499 1 0.740242 0.315703 0.588276
618 1 0.749799 0.232272 0.672545
480 1 0.836519 0.243297 0.590785
460 1 0.0174006 0.249247 0.586262
479 1 0.9267 0.173834 0.580708
622 1 0.935499 0.261203 0.6629
503 1 0.902544 0.334004 0.582633
621 1 0.835738 0.149279 0.656739
484 1 0.00618444 0.41251 0.575265
626 1 0.0913916 0.41227 0.667372
488 1 0.166716 0.419145 0.579229
486 1 0.25948 0.404833 0.500464
513 1 0.331489 0.496835 0.495095
511 1 0.24657 0.496523 0.572084
492 1 0.339068 0.412137 0.576009
490 1 0.429529 0.420022 0.492806
634 1 0.415596 0.426929 0.673268
661 1 0.498211 0.503348 0.671481
495 1 0.569275 0.354726 0.579099
496 1 0.499894 0.442243 0.582719
519 1 0.590377 0.503487 0.569512
641 1 0.646834 0.331395 0.657789
638 1 0.573228 0.421108 0.66616
500 1 0.670543 0.419333 0.577457
642 1 0.733275 0.411499 0.667364
523 1 0.740596 0.50442 0.590867
502 1 0.928312 0.413873 0.497458
504 1 0.834558 0.420307 0.577701
646 1 0.919394 0.407754 0.660522
505 1 0.0085522 0.514947 0.501753
507 1 0.0840698 0.486937 0.5785
531 1 0.0972416 0.667777 0.588892
653 1 0.159965 0.498937 0.654489
510 1 0.244078 0.573358 0.492737
512 1 0.167939 0.571986 0.57372
535 1 0.234012 0.6635 0.575884
516 1 0.318624 0.581772 0.586175
677 1 0.166151 0.670955 0.681453
515 1 0.399885 0.498466 0.592134
658 1 0.409559 0.589284 0.670035
520 1 0.476844 0.577825 0.589394
689 1 0.660621 0.65815 0.664347
543 1 0.58525 0.658473 0.584112
662 1 0.577578 0.575017 0.659468
685 1 0.491019 0.665184 0.648409
524 1 0.664869 0.576125 0.585077
528 1 0.826586 0.581009 0.590811
547 1 0.748486 0.666466 0.582639
666 1 0.742258 0.583484 0.662285
693 1 0.825611 0.659286 0.668886
665 1 0.66336 0.496974 0.662542
527 1 0.922516 0.488122 0.577229
649 1 0.00472021 0.498165 0.674037
508 1 1.00069 0.585991 0.581571
670 1 0.916618 0.582853 0.656002
669 1 0.833001 0.500632 0.653134
553 1 -0.00312868 0.84393 0.510854
532 1 0.991934 0.761338 0.587562
555 1 0.0796141 0.856344 0.59344
674 1 0.0741683 0.759732 0.652243
536 1 0.167155 0.747713 0.590738
678 1 0.258479 0.73641 0.662906
559 1 0.256714 0.850397 0.590107
537 1 0.32437 0.658758 0.498811
539 1 0.408543 0.672499 0.565201
540 1 0.3459 0.753988 0.590411
542 1 0.584265 0.724569 0.507666
544 1 0.48706 0.753934 0.563198
548 1 0.663096 0.744444 0.583129
552 1 0.848278 0.745118 0.590187
690 1 0.751693 0.746263 0.654927
551 1 0.905007 0.65771 0.58814
694 1 0.917594 0.761416 0.66911
673 1 0.996412 0.674878 0.652148
554 1 0.0740478 0.922876 0.507134
435 1 0.0634969 0.990321 0.597448
556 1 0.985125 0.919382 0.601375
560 1 0.173068 0.935213 0.574315
564 1 0.339606 0.925498 0.575982
563 1 0.425124 0.847086 0.59299
565 1 0.501787 0.822659 0.481752
567 1 0.580352 0.832567 0.565287
568 1 0.506919 0.921575 0.582119
572 1 0.659936 0.911791 0.575129
710 1 0.586327 0.918871 0.652503
717 1 0.826884 0.829353 0.667928
451 1 0.735719 0.997255 0.567557
570 1 0.749623 0.927339 0.499678
571 1 0.735378 0.823798 0.577974
576 1 0.826309 0.923178 0.585405
714 1 0.738292 0.899418 0.653235
575 1 0.895481 0.844987 0.588216
697 1 0.986466 0.844605 0.674645
718 1 0.893735 0.916419 0.682431
579 1 0.0759225 0.00919682 0.750259
603 1 0.110494 0.171323 0.752795
722 1 0.0943773 0.0830835 0.841418
580 1 0.00608146 0.0992771 0.753077
745 1 0.998688 0.169138 0.838746
605 1 0.176725 0.176918 0.669594
582 1 0.236548 0.085107 0.666681
584 1 0.157633 0.079347 0.7483
726 1 0.243635 0.0616838 0.818611
753 1 0.339562 0.155552 0.83687
588 1 0.348667 0.0747864 0.759769
730 1 0.438899 0.0814361 0.833849
592 1 0.512431 0.073334 0.721307
591 1 0.5839 -0.00657211 0.734659
733 1 0.515526 0.01688 0.83278
737 1 0.665937 0.0160317 0.837337
596 1 0.667004 0.0831665 0.741685
619 1 0.743425 0.159217 0.745453
765 1 0.833803 0.167862 0.828942
593 1 0.676002 0.00651284 0.659114
761 1 0.672664 0.174848 0.835172
738 1 0.742703 0.0962399 0.829995
600 1 0.831582 0.0938715 0.749481
742 1 0.90709 0.0922276 0.838716
623 1 0.917882 0.163107 0.747553
602 1 0.095757 0.259332 0.661777
625 1 0.0041143 0.34963 0.675472
608 1 0.172715 0.259997 0.74416
769 1 0.00646732 0.323325 0.828266
607 1 0.249639 0.174601 0.753109
609 1 0.331019 0.145173 0.666288
631 1 0.256433 0.319348 0.750379
749 1 0.179176 0.168986 0.828334
611 1 0.404213 0.160846 0.749919
612 1 0.343037 0.252104 0.727676
616 1 0.51654 0.253203 0.761403
614 1 0.560852 0.262021 0.655082
615 1 0.579324 0.178354 0.749777
757 1 0.515483 0.158445 0.829382
758 1 0.581501 0.252048 0.835329
617 1 0.65806 0.177724 0.677417
620 1 0.663347 0.259546 0.738546
762 1 0.753129 0.247413 0.83367
789 1 0.835377 0.345176 0.822796
645 1 0.829992 0.324595 0.67503
624 1 0.841352 0.239793 0.750505
604 1 0.00916163 0.256379 0.746592
766 1 0.906982 0.264009 0.83625
627 1 0.0944306 0.339111 0.755137
651 1 0.0968048 0.492682 0.740578
628 1 0.00943737 0.417767 0.754503
793 1 0.00219335 0.491137 0.827829
630 1 0.245979 0.422414 0.652233
632 1 0.181263 0.413696 0.736538
797 1 0.170995 0.489351 0.827822
655 1 0.251983 0.49631 0.751389
774 1 0.254149 0.418902 0.837412
635 1 0.427099 0.320028 0.751327
636 1 0.329369 0.402696 0.746429
801 1 0.326398 0.499156 0.833586
778 1 0.406815 0.402622 0.818094
659 1 0.411212 0.502932 0.75035
639 1 0.588637 0.336979 0.753148
640 1 0.494327 0.402833 0.753873
781 1 0.499099 0.32688 0.835814
809 1 0.673152 0.490763 0.835631
805 1 0.500838 0.491319 0.825127
643 1 0.752267 0.316451 0.746564
644 1 0.661594 0.423991 0.746612
785 1 0.679206 0.327562 0.829492
786 1 0.749334 0.411751 0.82475
647 1 0.919294 0.338392 0.754701
648 1 0.832533 0.421549 0.728002
790 1 0.92759 0.405217 0.844435
650 1 0.0786827 0.587158 0.669115
794 1 0.0766006 0.585044 0.832239
656 1 0.158469 0.57558 0.764984
654 1 0.247961 0.588824 0.678099
679 1 0.238375 0.659495 0.763066
681 1 0.348475 0.676807 0.6724
657 1 0.331215 0.505577 0.668504
660 1 0.329885 0.569998 0.75277
802 1 0.413035 0.589147 0.83909
683 1 0.411712 0.660477 0.751056
825 1 0.339499 0.680177 0.827832
664 1 0.500216 0.595602 0.73459
663 1 0.567762 0.494218 0.748176
668 1 0.658579 0.584697 0.739873
687 1 0.587019 0.665918 0.747304
806 1 0.579016 0.570316 0.836752
667 1 0.73965 0.498329 0.735283
691 1 0.740091 0.676013 0.753662
810 1 0.750247 0.583415 0.823029
837 1 0.815803 0.673664 0.832683
671 1 0.915402 0.506852 0.735359
672 1 0.824059 0.582039 0.741423
652 1 0.997035 0.583333 0.74816
813 1 0.826898 0.496215 0.821429
814 1 0.895373 0.588149 0.814799
675 1 0.0746621 0.694925 0.738879
699 1 0.0797765 0.82931 0.747278
701 1 0.169308 0.851221 0.655943
680 1 0.175964 0.770102 0.726515
705 1 0.339034 0.841921 0.668961
822 1 0.246357 0.749566 0.831417
682 1 0.428858 0.761001 0.670218
684 1 0.330366 0.757834 0.737438
826 1 0.440865 0.746634 0.808878
713 1 0.651232 0.827791 0.65196
688 1 0.510474 0.724011 0.731214
686 1 0.575164 0.754399 0.636192
830 1 0.583529 0.76235 0.835771
692 1 0.664706 0.756114 0.730757
829 1 0.489031 0.662919 0.836029
696 1 0.819389 0.758822 0.746606
715 1 0.743362 0.836337 0.741504
817 1 -0.0106391 0.671356 0.808303
695 1 0.909355 0.677139 0.7385
676 1 0.994415 0.757206 0.744422
698 1 0.0732803 0.922274 0.688137
841 1 0.989093 0.843709 0.826162
721 1 0.993506 0.0043213 0.830522
700 1 0.971529 0.914119 0.754443
581 1 0.148921 0.00440612 0.666037
702 1 0.253344 0.928509 0.656989
704 1 0.156815 0.92615 0.753409
583 1 0.264553 0.98615 0.74677
703 1 0.266141 0.847702 0.742756
587 1 0.432735 0.00723766 0.749877
707 1 0.434028 0.835034 0.751179
706 1 0.42136 0.918784 0.669819
708 1 0.347838 0.916814 0.755743
850 1 0.441681 0.926675 0.846687
709 1 0.510275 0.840834 0.656588
711 1 0.59946 0.852603 0.750969
712 1 0.493557 0.92695 0.754957
716 1 0.66808 0.926938 0.734241
595 1 0.744457 0.00586176 0.752818
858 1 0.742462 0.92405 0.820162
720 1 0.81802 0.907168 0.751639
719 1 0.907789 0.825224 0.757687
599 1 0.901993 0.014287 0.751909
741 1 0.827702 0.00639954 0.83464
862 1 0.893937 0.913031 0.834449
2 1 0.0947071 0.0786749 0.998802
725 1 0.154052 0.994872 0.83614
747 1 0.0945586 0.165988 0.904992
728 1 0.177599 0.0801267 0.912455
723 1 0.0798642 0.00867182 0.928183
5 1 0.151862 0.990413 1.00502
33 1 0.33576 0.158776 0.00732655
751 1 0.263378 0.14932 0.91836
727 1 0.238601 -0.0126489 0.914184
10 1 0.420138 0.0745669 1.00122
732 1 0.337941 0.0629497 0.907441
736 1 0.510772 0.0903037 0.92522
755 1 0.414739 0.155147 0.921954
729 1 0.357563 0.990541 0.82996
14 1 0.586469 0.089475 0.0206223
734 1 0.595632 0.0955422 0.822666
759 1 0.59323 0.170466 0.905675
740 1 0.663193 0.101189 0.923676
18 1 0.760646 0.0854392 0.0050497
41 1 0.675149 0.165275 0.00643079
739 1 0.745861 0.012257 0.9052
724 1 1.00432 0.0779769 0.909515
22 1 0.929867 0.0749472 1.00189
25 1 1.00282 0.15712 0.985496
744 1 0.823468 0.0916103 0.907402
743 1 0.912374 0.997332 0.930963
746 1 0.0885048 0.246479 0.825884
773 1 0.176922 0.336475 0.838144
771 1 0.0879616 0.318273 0.919026
752 1 0.182496 0.248886 0.918248
750 1 0.262525 0.242666 0.852491
30 1 0.254226 0.236236 1.00211
775 1 0.270592 0.317576 0.926068
754 1 0.424097 0.241174 0.827203
777 1 0.34091 0.308803 0.831728
756 1 0.343217 0.240781 0.919438
57 1 0.34941 0.330751 0.0124808
34 1 0.410612 0.238064 0.00158758
37 1 0.503614 0.163069 0.012002
760 1 0.495972 0.248623 0.918437
38 1 0.603902 0.251924 0.00322708
783 1 0.569443 0.333347 0.91812
42 1 0.752581 0.248365 1.00249
763 1 0.754635 0.174933 0.919949
764 1 0.667613 0.25452 0.90225
787 1 0.759993 0.36225 0.912644
767 1 0.914997 0.163326 0.924202
748 1 0.000478501 0.247133 0.919384
768 1 0.826143 0.259246 0.916813
69 1 0.83199 0.33259 -0.00128988
50 1 0.0870593 0.418706 0.994534
770 1 0.0888782 0.415133 0.827094
49 1 0.0133795 0.34178 0.00677948
77 1 0.17462 0.488743 0.986584
795 1 0.0925889 0.490125 0.905414
776 1 0.179608 0.408153 0.909645
54 1 0.263768 0.407562 0.99636
799 1 0.259725 0.51596 0.92022
81 1 0.334395 0.51087 1.00328
779 1 0.410125 0.340669 0.922665
780 1 0.33809 0.427356 0.920092
803 1 0.413645 0.507652 0.907109
85 1 0.491859 0.501415 0.0208195
784 1 0.487292 0.42411 0.909438
782 1 0.58875 0.411128 0.835928
807 1 0.582374 0.484514 0.914737
788 1 0.6593 0.413309 0.911767
66 1 0.758361 0.418548 0.00889914
792 1 0.84615 0.429832 0.93426
70 1 0.927084 0.411172 0.00531374
791 1 0.920533 0.321641 0.921715
772 1 0.00463008 0.4054 0.92002
73 1 0.00167053 0.483027 0.995535
74 1 0.0908791 0.559379 0.985059
819 1 0.0650812 0.665465 0.907656
796 1 0.999948 0.571292 0.927645
97 1 0.99124 0.654406 0.987666
798 1 0.249741 0.577088 0.829195
821 1 0.143466 0.668967 0.823806
101 1 0.145643 0.666463 0.994292
78 1 0.229552 0.590967 0.00236956
800 1 0.166018 0.579593 0.89929
823 1 0.240203 0.666067 0.89944
804 1 0.329501 0.586738 0.90164
827 1 0.404682 0.681527 0.916465
89 1 0.676554 0.5107 -0.0143144
808 1 0.500607 0.57358 0.921125
831 1 0.580598 0.663539 0.91006
811 1 0.751001 0.49319 0.915095
93 1 0.833612 0.509764 1.0003
812 1 0.666819 0.594282 0.912247
835 1 0.742147 0.67782 0.912226
94 1 0.911994 0.580287 0.997834
815 1 0.926618 0.486372 0.911354
816 1 0.820316 0.582402 0.914422
839 1 0.933455 0.646999 0.897574
818 1 0.0865038 0.755417 0.844699
98 1 0.0619429 0.749871 0.978458
129 1 0.328174 0.842585 0.000938944
125 1 0.160614 0.836385 -0.00466421
824 1 0.162405 0.746015 0.91218
102 1 0.230298 0.757834 0.999858
828 1 0.322575 0.758053 0.929506
832 1 0.500655 0.752372 0.921092
110 1 0.576114 0.750111 1.00244
853 1 0.505469 0.838614 0.837947
857 1 0.66917 0.8429 0.83764
855 1 0.586162 0.834274 0.922446
836 1 0.659768 0.753002 0.910291
834 1 0.728724 0.749625 0.829028
833 1 0.655448 0.657048 0.825144
838 1 0.906 0.740089 0.828396
820 1 0.986309 0.758502 0.912015
840 1 0.825461 0.754359 0.910547
118 1 0.905595 0.740251 1.00375
863 1 0.915229 0.840911 0.912203
842 1 0.0600895 0.920233 0.817109
843 1 0.0651209 0.842631 0.90917
845 1 0.179606 0.843774 0.815666
844 1 -0.00406705 0.925501 0.913326
846 1 0.264184 0.919119 0.834361
847 1 0.247569 0.847106 0.932739
848 1 0.163621 0.911617 0.907393
849 1 0.356032 0.830015 0.833587
851 1 0.43417 0.846131 0.920048
852 1 0.339257 0.916238 0.918405
731 1 0.44023 0.00147145 0.928977
735 1 0.59126 -0.00186959 0.938964
856 1 0.511905 0.925629 0.931572
854 1 0.580807 0.932802 0.8475
861 1 0.835163 0.828766 0.832489
859 1 0.752342 0.825414 0.909776
860 1 0.673592 0.924042 0.909863
864 1 0.811899 0.921111 0.908796
142 1 0.921202 0.915917 -0.00688955
