ITEM: TIMESTEP
7000
ITEM: NUMBER OF ATOMS
864
ITEM: BOX BOUNDS pp pp pp
0.0000000000000000e+00 3.1559999999999999e+01
0.0000000000000000e+00 3.1559999999999999e+01
0.0000000000000000e+00 3.1559999999999999e+01
ITEM: ATOMS id type xs ys zs
8 1 0.165529 0.0974905 0.0630343
74 1 0.0753891 0.101724 0.162285
4 1 0.00551049 0.0755199 0.0872406
3 1 0.0839821 0.00650299 0.0745286
31 1 0.248106 0.166591 0.0722672
77 1 0.179326 0.0184563 0.155805
7 1 0.241632 0.0102562 0.067254
78 1 0.249234 0.0985053 0.160294
12 1 0.333372 0.0789524 0.0674643
82 1 0.423259 0.0735923 0.165836
16 1 0.499 0.0920763 0.0823863
105 1 0.342211 0.165304 0.158543
11 1 0.432025 0.00339762 0.0685386
85 1 0.498371 0.00273543 0.165554
20 1 0.657938 0.092155 0.0649284
89 1 0.662332 0.00194752 0.161953
15 1 0.58133 0.00977937 0.0793313
90 1 0.749447 0.0762517 0.166664
24 1 0.827462 0.0776777 0.0765127
43 1 0.755249 0.159892 0.0777821
93 1 0.825845 0.0134436 0.158447
19 1 0.740451 0.00596848 0.0810735
47 1 0.900013 0.16586 0.0840273
94 1 0.920689 0.0804719 0.164526
25 1 0.991201 0.153644 0.00907537
23 1 0.920612 0.00937615 0.0695721
27 1 0.0834263 0.171978 0.083387
97 1 0.0032515 0.175005 0.165949
28 1 0.00412209 0.25771 0.0653789
101 1 0.175887 0.17122 0.160366
32 1 0.183105 0.262034 0.0825347
36 1 0.314107 0.261284 0.0691377
35 1 0.410509 0.183364 0.0636928
40 1 0.498366 0.248715 0.0684279
39 1 0.596811 0.180417 0.103252
44 1 0.662442 0.267007 0.0928809
38 1 0.591566 0.243825 0.0117687
41 1 0.678874 0.184891 0.00543329
114 1 0.756991 0.260317 0.159638
42 1 0.741143 0.270102 0.00161482
48 1 0.841328 0.256079 0.0810825
46 1 0.916668 0.242397 0.00649823
51 1 0.0824239 0.33753 0.0855145
56 1 0.14109 0.432381 0.0900297
49 1 0.00111955 0.342195 0.0039054
129 1 0.323568 0.337915 0.166155
55 1 0.243662 0.347084 0.0836179
60 1 0.315023 0.419767 0.0893627
54 1 0.241313 0.427093 0.0085741
57 1 0.335656 0.348624 0.00654927
59 1 0.408609 0.337965 0.0877085
64 1 0.485835 0.421629 0.074223
130 1 0.426987 0.417731 0.166499
58 1 0.415524 0.420994 0.00274028
63 1 0.579764 0.337518 0.0844047
134 1 0.568077 0.432233 0.143075
62 1 0.572199 0.422789 0.0108502
69 1 0.832372 0.338639 0.00866478
67 1 0.767865 0.336921 0.0912599
68 1 0.669742 0.410005 0.0919884
70 1 0.921675 0.424865 0.00913729
72 1 0.838035 0.438084 0.0740972
71 1 0.933753 0.336591 0.0838912
52 1 0.993998 0.422632 0.0894739
142 1 0.905505 0.422505 0.166189
75 1 0.0865257 0.0112494 0.247022
173 1 0.160328 0.163395 0.332234
80 1 0.159134 0.0860184 0.23662
99 1 0.0734442 0.161822 0.249653
150 1 0.252898 0.0870745 0.325285
149 1 0.172406 0.000681614 0.320111
79 1 0.242438 0.00404012 0.240264
83 1 0.422989 0.000161428 0.251741
84 1 0.337222 0.0767718 0.236383
107 1 0.412831 0.156036 0.246669
153 1 0.334577 0.00546118 0.312942
86 1 0.576684 0.0749319 0.173833
88 1 0.506515 0.0742492 0.258287
109 1 0.508063 0.162267 0.171547
185 1 0.652696 0.164012 0.328446
181 1 0.504515 0.152029 0.330045
113 1 0.689223 0.165383 0.175157
117 1 0.831096 0.152388 0.18013
92 1 0.672054 0.0886167 0.251377
115 1 0.749827 0.164785 0.270542
96 1 0.821949 0.0807987 0.260439
76 1 0.997016 0.0760051 0.263356
119 1 0.919822 0.145458 0.24688
73 1 0.997027 0.00794658 0.170441
95 1 0.901211 0.0156329 0.244308
98 1 0.104921 0.24773 0.169618
123 1 0.0973043 0.332647 0.256651
121 1 0.01673 0.314702 0.181716
103 1 0.253445 0.172649 0.253823
104 1 0.172246 0.249577 0.263416
102 1 0.250146 0.258267 0.185929
108 1 0.331729 0.242768 0.251749
106 1 0.426462 0.233547 0.173411
131 1 0.412696 0.331714 0.246757
112 1 0.493449 0.242496 0.257203
201 1 0.341478 0.324399 0.329062
133 1 0.487046 0.324407 0.16734
178 1 0.410742 0.229824 0.330715
111 1 0.600374 0.166865 0.236456
110 1 0.578427 0.259024 0.172283
137 1 0.676891 0.333253 0.17288
116 1 0.681132 0.251326 0.259269
139 1 0.752337 0.329225 0.261095
141 1 0.841408 0.331794 0.174274
118 1 0.918258 0.258202 0.177324
120 1 0.837427 0.254264 0.255046
100 1 0.996687 0.234566 0.26194
122 1 0.0712227 0.415547 0.166991
194 1 0.0736986 0.415163 0.324795
125 1 0.172718 0.339269 0.18801
126 1 0.244508 0.424869 0.167639
127 1 0.254207 0.350704 0.253878
128 1 0.169178 0.424206 0.247328
581 1 0.171655 0.493786 0.330844
205 1 0.49911 0.337669 0.32791
132 1 0.341526 0.417764 0.241837
202 1 0.410954 0.41898 0.325696
136 1 0.504757 0.412795 0.246831
135 1 0.578943 0.340305 0.258818
140 1 0.660388 0.418525 0.262745
138 1 0.755728 0.41209 0.173108
521 1 0.676913 0.483135 0.183226
523 1 0.762073 0.49029 0.242817
210 1 0.741551 0.429171 0.332278
144 1 0.839473 0.421797 0.249195
143 1 0.914486 0.337389 0.257281
214 1 0.917437 0.422255 0.330978
124 1 0.995243 0.409862 0.238162
146 1 0.0863904 0.0793698 0.33564
152 1 0.162287 0.0749873 0.418177
148 1 0.0124154 0.0767525 0.421176
218 1 0.0914277 0.0812178 0.499951
222 1 0.240438 0.0842518 0.496065
225 1 0.331784 0.00334236 0.493347
156 1 0.323189 0.0734689 0.408586
177 1 0.33291 0.159591 0.334046
154 1 0.416615 0.0787582 0.337494
179 1 0.407758 0.16202 0.428579
160 1 0.498828 0.0907942 0.43184
155 1 0.415295 0.00724811 0.415228
257 1 0.642491 0.161989 0.495264
158 1 0.578526 0.076841 0.358006
230 1 0.585844 0.0712031 0.487723
157 1 0.503185 0.00245799 0.350908
162 1 0.763408 0.086182 0.354705
164 1 0.671997 0.084955 0.419127
234 1 0.757317 0.0842612 0.479781
166 1 0.900957 0.0702107 0.34013
189 1 0.84062 0.163983 0.333822
168 1 0.847178 0.0805408 0.420766
238 1 0.922069 0.0679026 0.487249
145 1 0.989902 0.00422041 0.338501
169 1 0.99049 0.138551 0.341999
191 1 0.913737 0.165133 0.429869
170 1 0.0852623 0.248368 0.348678
171 1 0.0962313 0.169791 0.422144
242 1 0.0986772 0.248077 0.492276
265 1 0.00638928 0.322813 0.491183
197 1 0.191686 0.329592 0.335932
174 1 0.256963 0.248879 0.339228
175 1 0.248627 0.168981 0.414808
176 1 0.167907 0.260614 0.418866
245 1 0.170535 0.166863 0.494974
246 1 0.253641 0.2592 0.495967
277 1 0.490811 0.333036 0.496249
180 1 0.334386 0.254524 0.412678
184 1 0.484005 0.244331 0.404836
203 1 0.405146 0.327907 0.415555
254 1 0.572697 0.261931 0.495898
182 1 0.581153 0.249239 0.336015
209 1 0.651767 0.331359 0.335966
183 1 0.567894 0.169579 0.418053
188 1 0.657666 0.255747 0.412008
258 1 0.733824 0.254945 0.498136
186 1 0.759161 0.25875 0.352318
285 1 0.823598 0.327122 0.494961
187 1 0.743829 0.171407 0.416436
193 1 0.991049 0.322318 0.333641
213 1 0.842509 0.323229 0.34137
192 1 0.833615 0.243768 0.422754
172 1 0.998165 0.241719 0.420958
190 1 0.921158 0.235525 0.337618
262 1 0.915191 0.265222 0.492308
579 1 0.0953628 0.491089 0.40093
653 1 0.159752 0.484584 0.486362
195 1 0.0805315 0.335993 0.40479
196 1 0.00228432 0.416715 0.414111
649 1 0.00478362 0.496453 0.478351
583 1 0.270084 0.492044 0.426773
198 1 0.257943 0.426112 0.334171
199 1 0.261078 0.337237 0.426139
200 1 0.170031 0.407545 0.405093
274 1 0.41359 0.417038 0.499695
204 1 0.341903 0.415066 0.422227
208 1 0.487377 0.42969 0.425733
587 1 0.396461 0.497023 0.422351
281 1 0.639406 0.350268 0.496733
278 1 0.569489 0.426109 0.499534
665 1 0.66195 0.48476 0.493956
212 1 0.666267 0.419596 0.412875
206 1 0.580044 0.427623 0.340924
207 1 0.57837 0.336045 0.411808
282 1 0.742124 0.422919 0.494438
595 1 0.746283 0.497725 0.416106
669 1 0.831682 0.483745 0.491431
211 1 0.743596 0.343306 0.423909
215 1 0.92185 0.339402 0.417453
286 1 0.925117 0.412248 0.499815
599 1 0.910015 0.490465 0.413285
577 1 0.994539 0.497495 0.336484
216 1 0.834253 0.410596 0.415971
220 1 0.00732583 0.0770617 0.576953
290 1 0.0846309 0.0865726 0.659561
241 1 0.000236649 0.149212 0.502536
219 1 0.0896364 0.0083027 0.588591
224 1 0.172966 0.0777312 0.582624
294 1 0.248849 0.0888222 0.662758
247 1 0.24141 0.160907 0.566471
249 1 0.325631 0.166477 0.508089
227 1 0.421096 0.00749902 0.56743
228 1 0.333442 0.0682897 0.592343
232 1 0.497487 0.0893417 0.578829
226 1 0.419439 0.0864701 0.503526
302 1 0.586457 0.0865488 0.658834
236 1 0.662967 0.092216 0.590747
325 1 0.500367 0.157473 0.663738
231 1 0.586228 0.00486993 0.574854
253 1 0.518527 0.164515 0.519592
305 1 0.679784 0.0109988 0.662128
240 1 0.830794 0.0836278 0.573341
306 1 0.76354 0.0792941 0.658005
333 1 0.813515 0.166664 0.659748
235 1 0.742653 0.00883393 0.561264
263 1 0.919767 0.154771 0.559221
310 1 0.900369 0.083829 0.661486
289 1 0.996176 0.00928635 0.665268
239 1 0.91747 0.011285 0.585284
243 1 0.0829616 0.176827 0.577951
314 1 0.0878944 0.257668 0.653501
248 1 0.181461 0.244479 0.577976
271 1 0.247272 0.32339 0.584887
252 1 0.317025 0.236276 0.5872
341 1 0.175481 0.33056 0.664085
251 1 0.421108 0.167313 0.577522
322 1 0.426458 0.246955 0.660957
256 1 0.494872 0.25397 0.572331
250 1 0.409059 0.239018 0.504981
273 1 0.34747 0.328463 0.503442
255 1 0.596888 0.190797 0.599374
260 1 0.666176 0.277411 0.581878
259 1 0.750391 0.170867 0.577453
261 1 0.814103 0.169819 0.500827
313 1 0.9888 0.175691 0.6438
264 1 0.840228 0.245368 0.575492
244 1 0.985633 0.243671 0.566225
337 1 0.985149 0.324155 0.665804
334 1 0.908958 0.245276 0.659567
725 1 0.162121 0.480525 0.655524
267 1 0.084127 0.334789 0.58257
268 1 0.00306581 0.404314 0.575708
651 1 0.0758784 0.488299 0.585809
338 1 0.0605209 0.415329 0.659495
266 1 0.0919575 0.413253 0.503498
272 1 0.180812 0.410056 0.581872
342 1 0.255306 0.413111 0.661082
269 1 0.174529 0.349114 0.504402
270 1 0.265219 0.403284 0.508885
276 1 0.33377 0.424956 0.584946
275 1 0.418082 0.349299 0.596846
280 1 0.49302 0.415978 0.580816
659 1 0.414617 0.497768 0.587853
279 1 0.573633 0.339745 0.58756
350 1 0.561315 0.417872 0.664389
284 1 0.66665 0.422442 0.580653
663 1 0.57119 0.496436 0.582208
283 1 0.739449 0.343748 0.589708
354 1 0.740018 0.433754 0.659964
288 1 0.81669 0.413136 0.581657
721 1 0.988515 0.498671 0.662555
287 1 0.917946 0.334702 0.578817
358 1 0.9127 0.412664 0.662839
671 1 0.899094 0.484962 0.588808
291 1 0.0892164 0.0254392 0.749871
296 1 0.161385 0.100031 0.769994
315 1 0.0777363 0.165696 0.748619
293 1 0.163536 0.0112662 0.66771
366 1 0.261249 0.0671676 0.832153
321 1 0.338639 0.160706 0.666803
298 1 0.425704 0.0760627 0.667304
300 1 0.334549 0.0686751 0.753733
370 1 0.43638 0.069046 0.826097
323 1 0.42732 0.151711 0.748358
304 1 0.516581 0.0703161 0.74036
327 1 0.601494 0.157184 0.749902
303 1 0.593943 0.00349964 0.72505
329 1 0.682242 0.156445 0.682095
381 1 0.829668 0.0114817 0.826848
308 1 0.66787 0.0728325 0.74903
312 1 0.824738 0.0843486 0.744791
378 1 0.750832 0.0855793 0.828498
307 1 0.749963 0.0127265 0.743652
292 1 0.985034 0.0855845 0.744923
335 1 0.907908 0.163931 0.76374
311 1 0.903387 0.00978574 0.743179
317 1 0.163656 0.179664 0.677538
339 1 0.0710292 0.328782 0.731152
409 1 0.000439219 0.323971 0.807772
320 1 0.174212 0.255977 0.761327
319 1 0.247912 0.171359 0.753145
318 1 0.256511 0.25054 0.667402
390 1 0.252281 0.244013 0.827768
393 1 0.336119 0.170164 0.822598
324 1 0.348843 0.252747 0.731345
328 1 0.496712 0.238707 0.745933
417 1 0.342509 0.329854 0.828485
394 1 0.414055 0.24626 0.82693
326 1 0.577551 0.264139 0.666969
332 1 0.661224 0.250444 0.758987
398 1 0.57479 0.256489 0.831472
331 1 0.755163 0.174049 0.753731
330 1 0.719935 0.249857 0.667505
336 1 0.820608 0.266082 0.752496
357 1 0.832868 0.333149 0.66682
316 1 0.996329 0.23715 0.729205
359 1 0.909347 0.329307 0.741067
385 1 0.993595 0.168107 0.827146
410 1 0.0713688 0.423088 0.812509
413 1 0.157138 0.345704 0.818789
723 1 0.0697756 0.496852 0.733943
801 1 0.326346 0.49907 0.82701
345 1 0.332316 0.339524 0.667504
343 1 0.250619 0.338087 0.748357
344 1 0.180378 0.4214 0.739929
348 1 0.32931 0.411539 0.765625
346 1 0.421445 0.416625 0.678643
349 1 0.497245 0.337502 0.671604
347 1 0.414966 0.3341 0.746228
418 1 0.421552 0.437307 0.825513
353 1 0.654505 0.346696 0.675144
352 1 0.506947 0.417313 0.751139
351 1 0.57732 0.336688 0.750165
356 1 0.66116 0.431367 0.743763
422 1 0.588809 0.429229 0.827695
355 1 0.746688 0.338171 0.731406
360 1 0.825285 0.414568 0.750745
739 1 0.751814 0.499403 0.756604
340 1 0.996355 0.415989 0.748016
429 1 0.836469 0.34061 0.827491
430 1 0.914974 0.416563 0.829913
741 1 0.834975 0.490412 0.682373
2 1 0.0849367 0.088224 0.999633
363 1 0.0651623 0.00728045 0.921998
362 1 0.0774793 0.0841585 0.841528
5 1 0.15716 0.0057493 0.986902
364 1 0.00162501 0.0909871 0.920216
367 1 0.253595 0.00240745 0.914662
368 1 0.172717 0.0830279 0.907775
6 1 0.2491 0.0997127 0.982412
9 1 0.34464 0.00216131 0.989286
372 1 0.344994 0.0875479 0.908758
10 1 0.418925 0.0891688 0.99565
375 1 0.600028 0.00364597 0.912765
397 1 0.500566 0.15968 0.833887
374 1 0.602637 0.091366 0.840443
376 1 0.511609 0.0718283 0.903743
399 1 0.584613 0.160902 0.925267
14 1 0.564666 0.0814606 0.988411
18 1 0.759061 0.0791951 0.99399
380 1 0.675141 0.0814716 0.927981
384 1 0.826283 0.0839538 0.917759
22 1 0.910325 0.0878614 0.978959
382 1 0.917869 0.0865451 0.838904
1 1 0.995114 0.00686615 0.988731
361 1 0.995797 0.00641548 0.842926
29 1 0.160054 0.191015 0.983842
389 1 0.157828 0.182173 0.854943
387 1 0.0641482 0.172944 0.921882
386 1 0.0723088 0.252187 0.834636
388 1 0.000971722 0.263359 0.913956
26 1 0.0797159 0.266418 0.988545
391 1 0.263344 0.16897 0.904147
30 1 0.263692 0.247162 0.980823
392 1 0.175629 0.275821 0.91083
37 1 0.498097 0.168518 0.999066
34 1 0.424904 0.26412 0.997884
33 1 0.337032 0.169458 0.994372
395 1 0.413591 0.178079 0.907167
396 1 0.338024 0.256969 0.900428
400 1 0.520513 0.251576 0.924878
405 1 0.83176 0.179948 0.847201
401 1 0.683533 0.17497 0.840119
402 1 0.761161 0.267123 0.844164
404 1 0.668618 0.262844 0.9143
403 1 0.75199 0.170924 0.924047
45 1 0.839825 0.173513 0.998369
406 1 0.915363 0.258361 0.836176
408 1 0.83989 0.254546 0.927548
407 1 0.912128 0.167959 0.917042
50 1 0.0883909 0.421637 0.996406
416 1 0.163346 0.425205 0.920057
411 1 0.0789926 0.348734 0.895273
53 1 0.171493 0.347414 0.986483
414 1 0.233148 0.425717 0.837921
415 1 0.262359 0.343067 0.911101
420 1 0.343037 0.422982 0.905595
421 1 0.494329 0.345124 0.839369
424 1 0.498157 0.425011 0.931276
419 1 0.416751 0.340234 0.924084
65 1 0.654661 0.340888 0.994493
423 1 0.580249 0.335359 0.903847
61 1 0.509422 0.339377 0.996576
426 1 0.753223 0.42905 0.837261
428 1 0.674343 0.424992 0.917902
425 1 0.669998 0.344934 0.833653
66 1 0.744311 0.418009 0.999176
427 1 0.758613 0.35022 0.916864
432 1 0.83481 0.417527 0.934818
431 1 0.914892 0.335106 0.927059
412 1 0.993421 0.433068 0.918228
459 1 0.0853634 0.646953 0.0773268
437 1 0.165329 0.507152 0.0142456
509 1 0.165481 0.5016 0.162922
435 1 0.064231 0.514969 0.0937684
433 1 0.00892927 0.502276 0.00579898
440 1 0.173895 0.57888 0.0872417
463 1 0.244525 0.664694 0.0855408
438 1 0.253926 0.581663 0.00497801
439 1 0.255253 0.510953 0.0905921
444 1 0.35088 0.585156 0.0907484
445 1 0.498258 0.508821 0.00945003
442 1 0.420978 0.595053 0.00673016
443 1 0.417424 0.500965 0.0838824
448 1 0.50382 0.589656 0.0935579
447 1 0.593393 0.530568 0.0815544
452 1 0.683211 0.600437 0.0821117
456 1 0.831282 0.587405 0.0763124
549 1 0.830424 0.660865 0.158704
525 1 0.81968 0.507033 0.160394
451 1 0.72974 0.504128 0.0894888
436 1 0.994622 0.593128 0.076892
455 1 0.917266 0.516073 0.100341
460 1 0.0133615 0.750879 0.0883618
464 1 0.154275 0.747658 0.0738493
468 1 0.330264 0.742713 0.0833285
534 1 0.24755 0.751893 0.156284
462 1 0.249675 0.747538 0.00585648
461 1 0.168022 0.669623 0.0108436
467 1 0.425621 0.675 0.0948618
465 1 0.336008 0.682144 0.00163934
491 1 0.402128 0.826948 0.0768815
472 1 0.507446 0.749669 0.0690463
471 1 0.589088 0.670194 0.0832928
476 1 0.666202 0.760559 0.0865142
475 1 0.749432 0.68251 0.0826035
499 1 0.76091 0.83152 0.097065
477 1 0.817395 0.672596 0.0114844
479 1 0.913502 0.674824 0.090284
480 1 0.84285 0.753329 0.0917151
457 1 0.9951 0.675386 0.000487769
478 1 0.920076 0.754403 0.0144433
483 1 0.083246 0.838796 0.0827885
557 1 0.159577 0.841693 0.159746
554 1 0.0866738 0.925902 0.162083
487 1 0.249013 0.835264 0.0778432
488 1 0.16717 0.926119 0.0686436
558 1 0.24273 0.921415 0.156349
492 1 0.331971 0.914215 0.0954709
81 1 0.318308 0.995781 0.154494
496 1 0.499075 0.906462 0.0850772
497 1 0.662053 0.834613 0.00141904
495 1 0.593222 0.835322 0.0931462
500 1 0.657177 0.921332 0.0761531
494 1 0.582018 0.926869 0.00229091
570 1 0.741537 0.928152 0.166448
553 1 0.99329 0.841106 0.14711
484 1 0.993434 0.93612 0.0750609
503 1 0.909799 0.84376 0.0862087
504 1 0.833912 0.933393 0.0785936
574 1 0.913867 0.940542 0.16556
506 1 0.0676399 0.587522 0.179424
512 1 0.153632 0.589565 0.25163
605 1 0.158445 0.663775 0.326697
505 1 0.000706993 0.505452 0.177899
507 1 0.0922404 0.504874 0.239
533 1 0.16774 0.662329 0.167171
510 1 0.246824 0.581531 0.174163
582 1 0.24164 0.572745 0.326515
535 1 0.247312 0.65728 0.254714
511 1 0.267974 0.50776 0.249627
517 1 0.493506 0.501021 0.17177
513 1 0.345652 0.500889 0.17124
514 1 0.426037 0.602826 0.1703
516 1 0.339486 0.578672 0.242844
520 1 0.49745 0.585172 0.250327
585 1 0.344497 0.502769 0.325293
515 1 0.432742 0.503931 0.2581
586 1 0.413157 0.584239 0.331151
518 1 0.60495 0.58775 0.171169
519 1 0.574039 0.508351 0.253149
593 1 0.665785 0.517396 0.323999
613 1 0.503718 0.666392 0.322714
522 1 0.749086 0.588616 0.166935
524 1 0.676759 0.586311 0.245566
528 1 0.826281 0.590671 0.245917
597 1 0.827392 0.505185 0.322101
508 1 0.997352 0.581756 0.256004
601 1 0.984451 0.66158 0.331565
526 1 0.923816 0.600698 0.173176
527 1 0.909457 0.509412 0.250079
530 1 0.0818153 0.744446 0.167316
529 1 0.00453519 0.676973 0.167312
531 1 0.0757566 0.67774 0.255334
536 1 0.16006 0.759955 0.225958
602 1 0.0546354 0.7465 0.331381
561 1 0.328455 0.829544 0.169469
540 1 0.320107 0.756048 0.25273
606 1 0.242836 0.740368 0.326219
537 1 0.342501 0.684728 0.171335
538 1 0.42278 0.752042 0.175916
539 1 0.415847 0.681651 0.254245
609 1 0.333854 0.675599 0.326921
541 1 0.521886 0.674744 0.175922
544 1 0.506052 0.751974 0.254169
543 1 0.595831 0.668704 0.25707
542 1 0.590664 0.761573 0.169838
548 1 0.665964 0.757233 0.259798
569 1 0.673674 0.823933 0.171194
546 1 0.749359 0.741221 0.172458
545 1 0.666845 0.677925 0.172586
547 1 0.740657 0.673286 0.263736
552 1 0.82492 0.753885 0.255512
645 1 0.828471 0.825317 0.329368
550 1 0.8977 0.752495 0.179377
532 1 0.985666 0.750184 0.239732
551 1 0.903 0.672498 0.256737
622 1 0.908654 0.751984 0.328665
625 1 0.00601577 0.847418 0.328096
555 1 0.0750505 0.835144 0.2305
560 1 0.16611 0.923324 0.240784
629 1 0.158375 0.839897 0.33093
559 1 0.235173 0.836811 0.251552
564 1 0.323537 0.911553 0.246825
633 1 0.331393 0.836457 0.32786
563 1 0.410453 0.833335 0.247017
562 1 0.416037 0.924494 0.177548
634 1 0.399908 0.914866 0.325954
565 1 0.494176 0.844159 0.172393
87 1 0.584604 0.985634 0.257305
566 1 0.596063 0.912763 0.171142
567 1 0.578675 0.833408 0.253214
568 1 0.500272 0.906679 0.259083
572 1 0.66615 0.906911 0.272846
571 1 0.752498 0.838001 0.249325
576 1 0.825534 0.929339 0.259531
91 1 0.742587 0.999438 0.244312
573 1 0.835518 0.847144 0.180516
575 1 0.925308 0.839506 0.239803
556 1 0.9915 0.921204 0.243238
646 1 0.91396 0.925778 0.324128
578 1 0.0781156 0.588106 0.345114
580 1 0.00654682 0.58874 0.421569
584 1 0.16207 0.581605 0.420731
607 1 0.238525 0.663519 0.413195
588 1 0.330583 0.600041 0.413049
654 1 0.256996 0.585989 0.499345
589 1 0.492046 0.505432 0.339848
592 1 0.497736 0.583791 0.413819
661 1 0.490758 0.509767 0.495696
611 1 0.422776 0.664248 0.41537
591 1 0.580744 0.520155 0.421722
590 1 0.587672 0.59466 0.339276
615 1 0.583131 0.657162 0.433157
689 1 0.666198 0.655903 0.49812
693 1 0.826237 0.664339 0.494071
594 1 0.752492 0.585231 0.337918
596 1 0.66998 0.5857 0.42013
600 1 0.823522 0.572119 0.433048
619 1 0.75192 0.660469 0.419745
598 1 0.91597 0.581092 0.339376
623 1 0.919003 0.655205 0.436407
603 1 0.0945009 0.673797 0.412214
608 1 0.144473 0.760812 0.408652
673 1 0.0255001 0.670742 0.499508
705 1 0.33071 0.824052 0.485808
631 1 0.24929 0.83234 0.406627
610 1 0.415497 0.747937 0.334599
637 1 0.492659 0.828939 0.34672
612 1 0.334093 0.748065 0.409537
617 1 0.664534 0.66757 0.352488
614 1 0.579887 0.760741 0.341482
641 1 0.662224 0.829782 0.352588
639 1 0.568835 0.826029 0.422418
616 1 0.503608 0.734711 0.422435
618 1 0.748564 0.754534 0.341448
643 1 0.735417 0.824362 0.430598
620 1 0.666827 0.738055 0.431029
697 1 0.994241 0.825745 0.490309
694 1 0.914837 0.748417 0.495618
647 1 0.923608 0.831029 0.405571
621 1 0.840317 0.66777 0.347105
624 1 0.834299 0.760491 0.419483
604 1 0.996869 0.741683 0.413138
632 1 0.161533 0.900147 0.423665
221 1 0.150446 0.984498 0.496829
217 1 0.00197507 0.994974 0.493187
626 1 0.0879682 0.925523 0.334651
147 1 0.0849334 0.996755 0.411006
627 1 0.0673947 0.845296 0.412632
702 1 0.239215 0.902611 0.489208
151 1 0.231422 0.996606 0.409521
630 1 0.259267 0.915262 0.335184
636 1 0.335154 0.91779 0.416684
635 1 0.412692 0.835074 0.411489
640 1 0.496483 0.914526 0.41697
710 1 0.585126 0.905366 0.49998
159 1 0.581908 0.985243 0.419787
638 1 0.565681 0.913155 0.336841
229 1 0.502206 0.993593 0.494967
163 1 0.748582 0.989137 0.418794
161 1 0.6708 0.996225 0.339388
644 1 0.669605 0.91026 0.420642
165 1 0.833304 0.995928 0.338043
714 1 0.753781 0.914291 0.49591
642 1 0.757954 0.90939 0.342435
628 1 0.991915 0.915728 0.413423
648 1 0.836378 0.925753 0.416885
167 1 0.914937 0.991642 0.417378
717 1 0.833504 0.835502 0.496868
722 1 0.0743442 0.578774 0.656258
749 1 0.163127 0.654046 0.657929
650 1 0.0879135 0.576977 0.502713
656 1 0.170674 0.589544 0.574042
726 1 0.234292 0.566835 0.663518
660 1 0.317217 0.587341 0.587322
657 1 0.330037 0.504321 0.507887
655 1 0.244632 0.502486 0.576154
664 1 0.484723 0.586664 0.589669
729 1 0.33606 0.503796 0.664085
685 1 0.491038 0.661368 0.505448
658 1 0.408964 0.576954 0.501364
734 1 0.580035 0.588006 0.658264
668 1 0.655608 0.579608 0.590555
687 1 0.577898 0.661096 0.576311
761 1 0.666097 0.655634 0.662627
662 1 0.588291 0.571859 0.509539
737 1 0.656272 0.502409 0.658073
738 1 0.749516 0.575663 0.658918
691 1 0.737808 0.662468 0.589764
667 1 0.74912 0.509913 0.564464
666 1 0.745331 0.590175 0.501356
652 1 0.990889 0.578754 0.583513
672 1 0.835708 0.579935 0.57983
695 1 0.911449 0.664695 0.569396
670 1 0.909978 0.560255 0.508113
765 1 0.837013 0.662638 0.66443
675 1 0.0819467 0.672409 0.58798
680 1 0.156628 0.764528 0.590886
699 1 0.0688872 0.82929 0.593201
674 1 0.0832677 0.7707 0.513725
677 1 0.153177 0.686891 0.503524
679 1 0.242349 0.67286 0.592721
684 1 0.323811 0.754115 0.590054
678 1 0.256072 0.756029 0.506325
683 1 0.406516 0.675927 0.583474
757 1 0.487899 0.669265 0.66093
682 1 0.420579 0.749057 0.504647
709 1 0.490035 0.823015 0.506164
681 1 0.336544 0.66866 0.504257
688 1 0.504664 0.748942 0.586955
758 1 0.58705 0.742766 0.661488
692 1 0.665851 0.746963 0.56731
713 1 0.662801 0.826904 0.503584
686 1 0.573838 0.749092 0.506558
715 1 0.743621 0.828957 0.58102
690 1 0.757385 0.74246 0.508131
745 1 0.979714 0.680269 0.650992
676 1 0.988183 0.757856 0.572554
696 1 0.842273 0.758095 0.577856
766 1 0.920371 0.765471 0.660201
704 1 0.157976 0.910234 0.587904
698 1 0.0698094 0.917247 0.529867
703 1 0.24433 0.840893 0.585103
774 1 0.234391 0.931613 0.65902
708 1 0.328023 0.916769 0.571889
701 1 0.167776 0.834099 0.501609
223 1 0.254089 0.991422 0.567338
707 1 0.406912 0.842564 0.585266
781 1 0.498386 0.834957 0.646498
778 1 0.430155 0.920092 0.655315
712 1 0.498695 0.917679 0.565787
706 1 0.399318 0.910783 0.503585
301 1 0.504848 0.993802 0.653624
711 1 0.586481 0.834354 0.585623
782 1 0.588419 0.917293 0.653545
233 1 0.657739 0.981141 0.504084
789 1 0.832403 0.839027 0.660737
716 1 0.671738 0.925577 0.589849
786 1 0.753056 0.927619 0.656267
785 1 0.669966 0.838305 0.66654
237 1 0.828611 0.99652 0.502143
719 1 0.919433 0.835073 0.575449
720 1 0.838847 0.907107 0.576293
700 1 0.985509 0.907405 0.592216
790 1 0.909514 0.919695 0.665796
309 1 0.836772 0.99605 0.659061
718 1 0.92 0.928094 0.500415
797 1 0.160897 0.502345 0.827829
728 1 0.148054 0.572994 0.736994
821 1 0.159648 0.662088 0.826522
794 1 0.0811875 0.578764 0.829059
793 1 0.00431074 0.508731 0.817139
727 1 0.246416 0.501431 0.753985
732 1 0.323171 0.577613 0.750294
751 1 0.250726 0.661266 0.757794
730 1 0.409066 0.590858 0.670964
731 1 0.418483 0.515367 0.747906
733 1 0.492921 0.505026 0.667216
736 1 0.503978 0.584562 0.735904
806 1 0.582228 0.57277 0.825849
759 1 0.586351 0.662705 0.751671
735 1 0.587966 0.518951 0.743996
740 1 0.671085 0.591351 0.745202
763 1 0.759226 0.662116 0.736904
742 1 0.914308 0.579756 0.667761
743 1 0.925252 0.500191 0.747438
744 1 0.840433 0.583284 0.74112
724 1 0.994325 0.595384 0.742293
814 1 0.915475 0.580146 0.820779
817 1 0.997754 0.664394 0.825318
813 1 0.835701 0.511288 0.819575
746 1 0.0696466 0.755538 0.670179
747 1 0.0830052 0.669357 0.73271
748 1 0.000646115 0.744939 0.747021
771 1 0.088652 0.820949 0.750566
818 1 0.0801511 0.738768 0.825198
845 1 0.16003 0.832481 0.831187
752 1 0.165866 0.75047 0.73553
753 1 0.317709 0.669279 0.679694
750 1 0.258374 0.773919 0.675732
756 1 0.331303 0.7487 0.753666
754 1 0.413328 0.759657 0.669961
755 1 0.398572 0.668529 0.753967
853 1 0.49612 0.823047 0.817847
760 1 0.50645 0.730904 0.755475
830 1 0.587599 0.759348 0.831444
762 1 0.748567 0.75216 0.667196
764 1 0.674438 0.755708 0.740038
834 1 0.746637 0.760076 0.810013
768 1 0.832356 0.763121 0.737849
837 1 0.829321 0.681987 0.82764
833 1 0.66833 0.676335 0.820772
767 1 0.907739 0.679534 0.743477
838 1 0.91948 0.751835 0.827431
791 1 0.910432 0.830857 0.744944
770 1 0.0709856 0.931764 0.680489
773 1 0.163041 0.849477 0.675765
842 1 0.074147 0.929232 0.819664
776 1 0.159815 0.920239 0.756162
777 1 0.330603 0.842017 0.668975
775 1 0.249077 0.840001 0.755399
780 1 0.330338 0.929157 0.749515
846 1 0.244473 0.92214 0.826371
295 1 0.240939 0.999548 0.741725
779 1 0.42396 0.842909 0.733799
299 1 0.421376 0.99576 0.746201
849 1 0.335713 0.848824 0.817244
850 1 0.428875 0.912913 0.821291
297 1 0.340557 0.998781 0.671163
783 1 0.580124 0.837621 0.718126
784 1 0.512168 0.930999 0.742809
854 1 0.584094 0.901211 0.819355
373 1 0.535605 0.9947 0.826552
377 1 0.655405 0.980428 0.819741
788 1 0.674776 0.930109 0.72905
787 1 0.749834 0.837722 0.732401
858 1 0.768297 0.909024 0.812486
769 1 0.997254 0.84434 0.672973
772 1 0.985159 0.93673 0.745115
792 1 0.835756 0.92328 0.741682
862 1 0.906496 0.922698 0.821415
795 1 0.0860004 0.500571 0.907495
819 1 0.0872921 0.662272 0.911622
434 1 0.0938006 0.572652 0.979101
798 1 0.244182 0.577043 0.841655
825 1 0.328709 0.665257 0.846354
799 1 0.240612 0.500751 0.926941
800 1 0.167604 0.585564 0.909825
804 1 0.32802 0.588594 0.917619
823 1 0.235316 0.656722 0.921927
441 1 0.327101 0.504682 0.998224
802 1 0.4005 0.578386 0.834332
829 1 0.49682 0.651667 0.841202
803 1 0.416329 0.509679 0.923303
827 1 0.411595 0.661317 0.919161
805 1 0.493878 0.516311 0.834847
449 1 0.65621 0.50162 0.986345
808 1 0.504024 0.580205 0.918918
812 1 0.659856 0.592643 0.911287
807 1 0.576269 0.505146 0.916181
831 1 0.583219 0.666396 0.906962
446 1 0.589067 0.595999 0.995909
453 1 0.82925 0.502658 0.99316
810 1 0.763774 0.588657 0.842551
450 1 0.739075 0.578109 0.993407
811 1 0.753311 0.500526 0.915157
809 1 0.670467 0.50253 0.839804
796 1 0.995029 0.581124 0.914485
816 1 0.844777 0.610025 0.924907
815 1 0.909892 0.503402 0.916698
454 1 0.916464 0.601851 0.995428
824 1 0.158434 0.743348 0.906445
458 1 0.0758197 0.757173 0.996526
820 1 0.00846185 0.754635 0.921232
841 1 0.000202582 0.81314 0.834053
843 1 0.0841088 0.829769 0.90365
822 1 0.246272 0.726478 0.841817
847 1 0.240104 0.828421 0.904914
828 1 0.331752 0.764054 0.89639
466 1 0.416951 0.75779 0.99293
826 1 0.424902 0.747334 0.842066
489 1 0.337088 0.826057 0.988841
470 1 0.599623 0.752394 0.981829
832 1 0.512565 0.746341 0.901538
836 1 0.665189 0.754043 0.898578
469 1 0.506909 0.671985 0.985066
835 1 0.750036 0.690095 0.906305
473 1 0.668068 0.668784 0.99065
474 1 0.744503 0.759838 0.979098
861 1 0.834719 0.820636 0.833413
839 1 0.926332 0.673384 0.910872
840 1 0.842563 0.745338 0.914383
482 1 0.0724385 0.92162 0.987056
365 1 0.160036 0.998462 0.841585
485 1 0.168472 0.83753 0.999976
848 1 0.173121 0.916677 0.913286
852 1 0.321052 0.916049 0.923792
486 1 0.244643 0.917918 0.997524
371 1 0.419981 0.987495 0.912122
369 1 0.336046 0.997071 0.834462
13 1 0.49871 0.982582 0.992836
493 1 0.497618 0.853993 0.983792
851 1 0.418244 0.845 0.905121
490 1 0.406275 0.906772 0.987315
856 1 0.517161 0.922237 0.901726
855 1 0.587899 0.836209 0.913987
860 1 0.660505 0.909216 0.924222
859 1 0.754011 0.838439 0.896576
21 1 0.805784 0.985373 0.981258
857 1 0.673439 0.835511 0.834003
17 1 0.673616 0.999645 0.994919
864 1 0.832036 0.910259 0.905145
498 1 0.744103 0.897518 0.995087
379 1 0.742626 0.982042 0.895907
383 1 0.90623 0.997168 0.907987
863 1 0.911095 0.845656 0.907247
844 1 0.998118 0.919298 0.914871
481 1 0.990212 0.836646 0.998867
502 1 0.913503 0.91717 0.994195
501 1 0.834345 0.838074 0.996751
