ITEM: TIMESTEP
10000
ITEM: NUMBER OF ATOMS
864
ITEM: BOX BOUNDS pp pp pp
0.0000000000000000e+00 3.1559999999999999e+01
0.0000000000000000e+00 3.1559999999999999e+01
0.0000000000000000e+00 3.1559999999999999e+01
ITEM: ATOMS id type xs ys zs
4 1 0.999661 0.0797146 0.0887401
3 1 0.0814777 1.00695 0.0850288
8 1 0.169784 0.0849686 0.0885272
7 1 0.249577 -0.00447543 0.0759302
12 1 0.336361 0.095435 0.0726116
149 1 0.157624 0.00155667 0.169202
6 1 0.235749 0.0734339 0.996784
16 1 0.518802 0.0792554 0.0723224
35 1 0.421416 0.157907 0.0831007
10 1 0.414355 0.0917512 0.998666
33 1 0.32812 0.149594 0.99202
158 1 0.590498 0.092004 0.181058
14 1 0.587271 0.106205 -0.00360258
20 1 0.670201 0.095258 0.0701919
15 1 0.585596 -0.00474324 0.0636918
24 1 0.839554 0.0754779 0.0833373
18 1 0.752457 0.089889 0.994383
41 1 0.673029 0.17277 0.987407
22 1 0.920671 0.0836797 1.01109
23 1 0.913791 -0.0125039 0.0894988
166 1 0.920493 0.0809479 0.162907
45 1 0.836312 0.173486 -0.00487176
27 1 0.0816073 0.145958 0.0826863
32 1 0.150234 0.246575 0.0745983
51 1 0.0626171 0.335769 0.0728891
26 1 0.0725964 0.262507 0.996758
31 1 0.253261 0.165504 0.0732712
29 1 0.151981 0.161614 0.00331748
173 1 0.152079 0.168186 0.166726
174 1 0.250163 0.234378 0.166736
177 1 0.357134 0.164752 0.167908
30 1 0.238989 0.251983 0.00497704
36 1 0.32865 0.245659 0.0733386
34 1 0.420827 0.236848 1.01422
59 1 0.418056 0.325365 0.0884373
181 1 0.494001 0.146758 0.166061
39 1 0.584924 0.159813 0.0830228
40 1 0.515626 0.240029 0.0853868
61 1 0.507521 0.328817 0.00368383
182 1 0.588688 0.227834 0.169783
205 1 0.536662 0.321704 0.171556
209 1 0.6664 0.320611 0.168867
37 1 0.503729 0.169288 0.99364
44 1 0.666257 0.23652 0.0799049
43 1 0.765862 0.166322 0.0850158
67 1 0.745919 0.339531 0.0682046
47 1 0.912012 0.162516 0.0913183
28 1 0.00709739 0.237712 0.0817073
25 1 1.00491 0.157958 -0.000239816
48 1 0.83534 0.255319 0.0742571
49 1 1.00017 0.339619 0.984405
53 1 0.154616 0.341764 0.00590282
50 1 0.0751054 0.412331 0.998643
194 1 0.0851584 0.415433 0.178559
56 1 0.137745 0.423043 0.0737007
55 1 0.235077 0.340023 0.0931622
197 1 0.156644 0.329082 0.179978
60 1 0.345946 0.400769 0.100781
198 1 0.257009 0.408051 0.16565
64 1 0.514129 0.410002 0.0944233
83 1 0.430306 0.503619 0.0838641
202 1 0.425587 0.416144 0.170095
63 1 0.595059 0.325689 0.0803256
206 1 0.605251 0.414426 0.167803
87 1 0.591176 0.505502 0.0885741
89 1 0.660652 0.502459 1.0001
68 1 0.658245 0.423463 0.080667
72 1 0.822442 0.42682 0.0875982
52 1 0.000283756 0.425401 0.0883255
71 1 0.932439 0.321396 0.085496
70 1 0.92235 0.405193 0.0183331
95 1 0.914062 0.499327 0.0681933
75 1 0.0757758 0.504126 0.0814028
76 1 -0.00156201 0.5876 0.0773458
73 1 1.00305 0.490627 0.997231
101 1 0.173283 0.674151 1.00768
80 1 0.15672 0.582445 0.0766867
79 1 0.258105 0.498605 0.0873689
103 1 0.252229 0.675097 0.0862024
222 1 0.25327 0.591174 0.158112
84 1 0.333069 0.588097 0.0824246
88 1 0.497149 0.588718 0.0993649
107 1 0.406469 0.676167 0.075175
226 1 0.398129 0.588142 0.159647
111 1 0.580925 0.668376 0.0892542
91 1 0.737941 0.511009 0.0920266
92 1 0.66183 0.5798 0.0716416
115 1 0.740421 0.662383 0.073192
234 1 0.741485 0.586163 0.167574
96 1 0.827918 0.583048 0.0897737
238 1 0.927086 0.580727 0.155161
94 1 0.917377 0.578141 -0.00398397
99 1 0.0803974 0.681484 0.086315
97 1 -0.00769236 0.673873 0.00303685
98 1 0.0824193 0.760236 0.997609
104 1 0.18111 0.75953 0.090173
127 1 0.254637 0.838517 0.0735563
269 1 0.174865 0.843762 0.176563
273 1 0.341377 0.864042 0.1645
125 1 0.154096 0.841216 1.00659
108 1 0.330641 0.747786 0.076776
112 1 0.478923 0.76033 0.0835071
133 1 0.50098 0.835448 -0.00718269
131 1 0.418209 0.842353 0.0870932
110 1 0.577414 0.734667 0.996869
254 1 0.575084 0.758247 0.142191
116 1 0.661481 0.731591 0.0808702
277 1 0.493237 0.849792 0.178433
281 1 0.678493 0.840899 0.171891
114 1 0.746223 0.74165 0.979339
139 1 0.746752 0.836069 0.0843764
119 1 0.919496 0.672275 0.0915905
100 1 0.00437543 0.76503 0.0809313
121 1 0.978693 0.833994 -0.00720158
120 1 0.810536 0.74201 0.0648345
143 1 0.890124 0.82505 0.0819515
118 1 0.901755 0.747571 0.00840616
123 1 0.0803156 0.839279 0.0759156
124 1 0.993851 0.91421 0.0739876
122 1 0.068366 0.920083 0.987111
266 1 0.0794186 0.905309 0.168984
128 1 0.159352 0.921683 0.0744609
270 1 0.246078 0.917959 0.155757
126 1 0.240224 0.922981 -0.000424889
9 1 0.328746 0.0094981 -0.00456785
11 1 0.420299 0.0102603 0.0819512
132 1 0.329486 0.919271 0.0797265
136 1 0.496039 0.917305 0.0790163
274 1 0.42894 0.931863 0.160181
130 1 0.415055 0.919114 0.994703
135 1 0.605208 0.832543 0.0657833
140 1 0.669385 0.922805 0.0807299
134 1 0.570997 0.913468 0.00134661
19 1 0.750716 0.0206939 0.0735595
138 1 0.751642 0.923746 1.00466
144 1 0.829969 0.924898 0.0863497
265 1 0.996315 0.828341 0.166381
1 1 0.981357 -0.0075455 0.996961
142 1 0.902362 0.912325 1.00739
145 1 3.89427e-05 0.997996 0.154453
146 1 0.0694272 0.0823486 0.168538
147 1 0.0713447 0.98716 0.234559
290 1 0.0840542 0.0786818 0.322374
150 1 0.240637 0.0930461 0.162074
152 1 0.168508 0.0852767 0.252254
294 1 0.245806 0.0783959 0.324666
297 1 0.335168 0.0097804 0.332917
154 1 0.416915 0.0763156 0.165035
156 1 0.334447 0.0736198 0.247895
298 1 0.432735 0.0830381 0.343891
160 1 0.515429 0.0780341 0.259052
159 1 0.601307 1.00735 0.249076
164 1 0.670204 0.0865113 0.266695
305 1 0.669784 0.00668456 0.349453
162 1 0.755705 0.0777058 0.173642
306 1 0.761257 0.0987638 0.345096
148 1 -0.00237559 0.0764599 0.258849
168 1 0.847887 0.0700487 0.244564
170 1 0.0794633 0.249105 0.160334
313 1 0.995513 0.154384 0.33173
171 1 0.0809852 0.175251 0.263239
172 1 0.988168 0.254697 0.270253
175 1 0.260111 0.163008 0.244475
176 1 0.171115 0.249882 0.254731
180 1 0.343999 0.237879 0.244746
321 1 0.329464 0.16063 0.334741
318 1 0.265155 0.242444 0.335092
179 1 0.43691 0.153425 0.255932
178 1 0.42797 0.247501 0.163686
322 1 0.399302 0.24625 0.327272
183 1 0.597882 0.168192 0.253616
184 1 0.512919 0.234944 0.244438
207 1 0.60063 0.331433 0.256754
185 1 0.68915 0.172264 0.169538
188 1 0.692323 0.255682 0.245299
329 1 0.666681 0.163045 0.341839
326 1 0.586694 0.248455 0.326751
186 1 0.757405 0.256845 0.143102
187 1 0.759677 0.151975 0.25308
169 1 -0.000666183 0.16887 0.177707
193 1 -0.00835009 0.329831 0.173204
189 1 0.84107 0.161513 0.175297
192 1 0.841895 0.253674 0.247648
190 1 0.923214 0.253836 0.177317
191 1 0.928161 0.167183 0.253492
215 1 0.921571 0.337069 0.251959
213 1 0.826979 0.335076 0.183203
333 1 0.848399 0.148459 0.332384
195 1 0.0759524 0.323817 0.251435
196 1 0.980212 0.429261 0.246323
341 1 0.149185 0.335637 0.332021
217 1 0.0154052 0.508951 0.164299
219 1 0.0936726 0.505343 0.245169
361 1 0.00490831 0.501647 0.346874
345 1 0.32835 0.327707 0.329853
200 1 0.180548 0.41352 0.239397
199 1 0.246865 0.320705 0.251411
342 1 0.248611 0.420683 0.327168
225 1 0.334027 0.503873 0.160238
203 1 0.407619 0.328208 0.243575
204 1 0.330114 0.412449 0.234876
201 1 0.321791 0.316496 0.17127
227 1 0.421735 0.514796 0.242162
229 1 0.504457 0.505094 0.172434
208 1 0.511922 0.400073 0.245387
231 1 0.579482 0.490983 0.251337
350 1 0.577393 0.427777 0.333253
377 1 0.666809 0.496929 0.341645
210 1 0.737673 0.41421 0.165209
211 1 0.739357 0.354503 0.260898
212 1 0.66345 0.426781 0.255984
235 1 0.76038 0.505462 0.275537
237 1 0.835017 0.517376 0.175747
214 1 0.905994 0.436918 0.166392
216 1 0.836243 0.427708 0.251646
239 1 0.918876 0.516044 0.250412
221 1 0.15217 0.509742 0.152434
218 1 0.0823535 0.593407 0.149133
245 1 0.162568 0.671879 0.158992
224 1 0.158646 0.588184 0.235642
243 1 0.0789012 0.680607 0.239628
223 1 0.236567 0.510293 0.227375
366 1 0.240355 0.579542 0.327506
247 1 0.234837 0.661197 0.245962
228 1 0.333996 0.580433 0.245529
253 1 0.481094 0.671748 0.163217
249 1 0.327801 0.671809 0.169332
251 1 0.421645 0.664582 0.247748
369 1 0.340255 0.501767 0.325794
232 1 0.505107 0.587564 0.242032
230 1 0.594805 0.571164 0.173683
374 1 0.587018 0.566753 0.337495
236 1 0.65346 0.591113 0.266277
397 1 0.502909 0.66242 0.323376
233 1 0.669464 0.497752 0.17652
378 1 0.772823 0.596609 0.339648
261 1 0.819137 0.663921 0.153805
220 1 0.996412 0.594276 0.233736
240 1 0.829638 0.587777 0.256341
263 1 0.914025 0.677606 0.240566
242 1 0.0981373 0.755895 0.151107
244 1 0.981379 0.760777 0.256305
386 1 0.07549 0.75575 0.325797
246 1 0.256541 0.765948 0.169411
389 1 0.161995 0.6679 0.330154
248 1 0.155921 0.746882 0.254715
271 1 0.249513 0.82998 0.255489
390 1 0.252376 0.736568 0.320209
250 1 0.403483 0.775701 0.160274
252 1 0.330467 0.746989 0.247706
275 1 0.4289 0.839868 0.262708
257 1 0.657515 0.656244 0.174735
255 1 0.573713 0.668734 0.240764
256 1 0.507418 0.761897 0.247476
279 1 0.584672 0.840911 0.226696
421 1 0.525227 0.847731 0.331275
259 1 0.741788 0.667258 0.260926
260 1 0.646579 0.760771 0.241172
258 1 0.736602 0.737663 0.168166
283 1 0.742157 0.838279 0.26199
241 1 0.998798 0.676728 0.166618
264 1 0.820516 0.745713 0.24793
262 1 0.90303 0.754908 0.162044
385 1 0.985821 0.667547 0.326813
429 1 0.835457 0.842336 0.350923
406 1 0.912018 0.761891 0.342283
289 1 0.995722 0.996356 0.341799
293 1 0.159598 -0.0025163 0.31794
267 1 0.0795512 0.824949 0.24624
268 1 0.995359 0.897205 0.251027
413 1 0.174611 0.819399 0.340934
409 1 0.994728 0.822303 0.345558
272 1 0.168011 0.924296 0.245124
151 1 0.246567 -0.00917346 0.243115
153 1 0.32246 0.0156589 0.15926
276 1 0.344665 0.92863 0.266265
414 1 0.254235 0.916445 0.327568
157 1 0.515749 1.00943 0.150073
155 1 0.424417 1.00279 0.243763
417 1 0.34477 0.829672 0.337191
418 1 0.421441 0.927839 0.34344
278 1 0.588164 0.917207 0.154072
280 1 0.50626 0.927647 0.247508
161 1 0.673691 0.0166644 0.153688
163 1 0.743782 0.00960928 0.25322
284 1 0.661005 0.917462 0.250146
282 1 0.747727 0.920797 0.175799
285 1 0.812431 0.834848 0.188464
167 1 0.923914 0.994663 0.235231
309 1 0.815545 1.00455 0.342894
287 1 0.905877 0.841552 0.251511
165 1 0.831711 1.00034 0.162713
288 1 0.825567 0.934818 0.250032
286 1 0.901483 0.90288 0.168736
430 1 0.914316 0.917503 0.332755
296 1 0.157599 0.0877349 0.405575
291 1 0.0740334 0.00181517 0.402389
437 1 0.159071 0.00712418 0.489083
300 1 0.340254 0.0832112 0.406309
438 1 0.250062 0.0737764 0.49366
304 1 0.503018 0.0828192 0.423655
301 1 0.506799 0.992003 0.33303
445 1 0.505166 0.0022489 0.499273
302 1 0.580619 0.0811049 0.343228
327 1 0.576534 0.176563 0.413444
308 1 0.672367 0.0840391 0.440481
303 1 0.574644 0.996053 0.419308
446 1 0.573916 0.078973 0.493808
331 1 0.736081 0.172893 0.430584
307 1 0.742216 1.01062 0.427298
450 1 0.752469 0.0915515 0.517336
310 1 0.917865 0.0644798 0.32427
292 1 -0.00633333 0.0829842 0.406323
312 1 0.833756 0.0764324 0.427232
311 1 0.909479 0.995757 0.415655
454 1 0.932686 0.0625847 0.501043
317 1 0.17729 0.162067 0.336018
314 1 0.0787578 0.248554 0.334016
315 1 0.0716394 0.164517 0.422386
320 1 0.163094 0.24751 0.395811
319 1 0.257448 0.15571 0.43069
324 1 0.345356 0.251062 0.419788
349 1 0.503475 0.313109 0.310934
323 1 0.428815 0.162284 0.417847
347 1 0.417203 0.332885 0.425724
328 1 0.489326 0.25962 0.410961
325 1 0.503728 0.169445 0.341868
332 1 0.653804 0.244727 0.426025
351 1 0.583409 0.338765 0.404629
353 1 0.681814 0.320921 0.344708
330 1 0.77256 0.227983 0.340026
355 1 0.760126 0.32473 0.412726
474 1 0.735532 0.25975 0.507109
334 1 0.897554 0.25758 0.33629
335 1 0.916193 0.166445 0.422565
316 1 0.988217 0.249523 0.404297
336 1 0.830325 0.237166 0.437841
339 1 0.0903144 0.348978 0.414462
338 1 0.0847616 0.42055 0.305757
340 1 0.00264149 0.420839 0.42617
365 1 0.164963 0.509039 0.326372
344 1 0.175244 0.430696 0.403772
343 1 0.250797 0.335149 0.413177
348 1 0.336501 0.407624 0.398639
346 1 0.419495 0.410361 0.323021
352 1 0.507324 0.409512 0.417392
371 1 0.42146 0.481587 0.42067
356 1 0.654661 0.429269 0.416944
373 1 0.49826 0.501858 0.325275
375 1 0.580655 0.502229 0.432217
357 1 0.844086 0.347115 0.32644
354 1 0.764411 0.420376 0.336023
360 1 0.841518 0.417792 0.429803
498 1 0.751863 0.426191 0.510094
337 1 0.00104504 0.339733 0.338936
481 1 0.0126881 0.334379 0.486625
359 1 0.904116 0.325273 0.420023
381 1 0.843094 0.506588 0.34303
358 1 0.921959 0.407412 0.347456
383 1 0.920229 0.499905 0.420293
525 1 0.83522 0.518002 0.508043
502 1 0.926785 0.425338 0.497026
362 1 0.0729872 0.596732 0.330924
363 1 0.079795 0.493787 0.416369
506 1 0.084592 0.586253 0.487092
368 1 0.174429 0.598436 0.422905
364 1 -0.000270709 0.597456 0.418688
367 1 0.266975 0.499049 0.409711
510 1 0.254942 0.578188 0.49611
513 1 0.331377 0.488918 0.485693
370 1 0.41867 0.580776 0.328625
372 1 0.331422 0.594428 0.407562
514 1 0.429425 0.577822 0.481604
521 1 0.66144 0.495728 0.508594
376 1 0.501951 0.570159 0.401433
517 1 0.486414 0.491174 0.520054
401 1 0.668851 0.658786 0.342604
380 1 0.671441 0.587335 0.41749
399 1 0.57921 0.665241 0.410113
379 1 0.757019 0.494175 0.414594
522 1 0.750931 0.584078 0.513453
384 1 0.832104 0.5998 0.423364
382 1 0.922402 0.584381 0.335879
526 1 0.930293 0.587789 0.5123
407 1 0.922841 0.666241 0.419142
505 1 -0.00368597 0.505092 0.497755
533 1 0.174242 0.665403 0.508445
387 1 0.0864355 0.67574 0.406698
392 1 0.175483 0.746746 0.418366
411 1 0.0859037 0.826022 0.41524
530 1 0.0917801 0.753589 0.501224
391 1 0.249853 0.66683 0.422991
534 1 0.251968 0.749167 0.500784
394 1 0.410499 0.747616 0.332474
393 1 0.333477 0.652206 0.315023
541 1 0.513673 0.655867 0.496583
395 1 0.423355 0.678555 0.424881
396 1 0.318981 0.741212 0.404601
400 1 0.490365 0.75687 0.402471
565 1 0.502044 0.817383 0.490621
398 1 0.586498 0.745717 0.340852
425 1 0.663262 0.82712 0.345143
423 1 0.578474 0.823799 0.416067
404 1 0.674693 0.748837 0.420355
403 1 0.749145 0.662938 0.439054
402 1 0.757125 0.763096 0.331799
408 1 0.845599 0.754774 0.431534
549 1 0.832482 0.680339 0.513096
427 1 0.750417 0.814213 0.420214
573 1 0.836742 0.831855 0.5133
405 1 0.851848 0.674006 0.330216
388 1 0.00456641 0.748753 0.4181
431 1 0.927583 0.843637 0.420321
550 1 0.920357 0.755749 0.498521
553 1 -0.00117669 0.826488 0.510581
410 1 0.0732641 0.901209 0.327537
554 1 0.0910458 0.92123 0.479381
416 1 0.158069 0.918717 0.390537
295 1 0.256584 0.997665 0.408994
561 1 0.328055 0.833428 0.484555
415 1 0.237928 0.837112 0.411261
420 1 0.330651 0.914822 0.40088
441 1 0.334073 -0.00547646 0.48602
299 1 0.422912 -0.00361209 0.41475
419 1 0.421804 0.839869 0.422053
562 1 0.413665 0.917047 0.492445
424 1 0.504368 0.92045 0.413866
422 1 0.599698 0.91647 0.347696
453 1 0.838542 1.00311 0.501546
428 1 0.676064 0.908694 0.43473
426 1 0.735556 0.926243 0.334876
412 1 -0.0114313 0.919023 0.421911
432 1 0.828619 0.91335 0.419834
574 1 0.922176 0.912261 0.512965
433 1 0.00974064 0.992313 0.507851
434 1 0.0798401 0.0859047 0.51012
435 1 0.0917236 0.999078 0.60348
578 1 0.0912493 0.0857001 0.657597
440 1 0.169754 0.0968762 0.570613
463 1 0.244196 0.161926 0.54772
444 1 0.339341 0.0766709 0.573375
439 1 0.262995 -0.00410511 0.589664
442 1 0.416251 0.0783014 0.495079
467 1 0.429203 0.176723 0.577018
448 1 0.49799 0.0872513 0.594129
471 1 0.566187 0.171231 0.588953
447 1 0.580267 -0.0120693 0.595816
452 1 0.648359 0.0834739 0.58325
590 1 0.57007 0.0973594 0.668312
594 1 0.743565 0.100444 0.668767
475 1 0.74215 0.179763 0.575927
451 1 0.756044 0.0018751 0.589832
477 1 0.832062 0.161142 0.506462
436 1 1.01115 0.0820765 0.588097
456 1 0.830728 0.0721567 0.583139
455 1 0.922343 0.998428 0.591852
459 1 0.0834656 0.185712 0.576991
458 1 0.103146 0.271092 0.485817
460 1 -0.00265557 0.249933 0.572339
605 1 0.167526 0.166828 0.648126
465 1 0.349354 0.168806 0.501204
461 1 0.152201 0.160829 0.488271
462 1 0.256116 0.246522 0.485535
464 1 0.175331 0.273015 0.576807
609 1 0.306445 0.174086 0.661032
606 1 0.241693 0.256261 0.669695
466 1 0.425789 0.254289 0.503037
468 1 0.31657 0.253463 0.576002
489 1 0.337954 0.32908 0.494268
470 1 0.581081 0.278814 0.495445
493 1 0.490997 0.339419 0.50168
469 1 0.497121 0.169825 0.49686
472 1 0.503368 0.262828 0.586945
495 1 0.579867 0.346662 0.575311
473 1 0.645151 0.17195 0.51572
476 1 0.646546 0.252018 0.580794
501 1 0.823156 0.344382 0.508928
480 1 0.832361 0.252182 0.579774
621 1 0.835363 0.175805 0.666258
457 1 0.999491 0.154572 0.498425
478 1 0.915792 0.265906 0.511395
479 1 0.91635 0.167545 0.580885
503 1 0.92077 0.345947 0.587113
482 1 0.0980457 0.426933 0.492202
483 1 0.0854293 0.334643 0.581466
488 1 0.162568 0.415294 0.585491
484 1 0.0199715 0.430416 0.58202
649 1 0.0250127 0.505609 0.668456
629 1 0.176767 0.343812 0.671324
485 1 0.180387 0.339718 0.497932
486 1 0.254675 0.414454 0.494367
487 1 0.257417 0.339787 0.579724
511 1 0.256077 0.486199 0.559371
490 1 0.41841 0.414151 0.51038
492 1 0.332986 0.413884 0.588467
657 1 0.325456 0.501869 0.671638
633 1 0.336424 0.343476 0.670153
491 1 0.405742 0.327526 0.582829
515 1 0.402587 0.48955 0.586944
494 1 0.571431 0.412171 0.493227
496 1 0.49245 0.41339 0.582948
519 1 0.574992 0.506734 0.579451
638 1 0.574082 0.409025 0.660005
500 1 0.654504 0.418203 0.590658
637 1 0.48133 0.335941 0.670258
497 1 0.665608 0.337526 0.497964
499 1 0.749321 0.341471 0.580569
523 1 0.744903 0.490211 0.593431
642 1 0.745575 0.402293 0.673679
645 1 0.816995 0.329181 0.656079
504 1 0.844726 0.421981 0.595357
646 1 0.939583 0.419789 0.654788
669 1 0.82844 0.496225 0.680171
507 1 0.105424 0.507166 0.567803
508 1 0.0202204 0.587826 0.585618
650 1 0.0988763 0.590777 0.66937
529 1 0.015757 0.677177 0.500691
531 1 0.0884246 0.676304 0.588461
673 1 -0.001451 0.656165 0.665473
509 1 0.181051 0.517967 0.482571
512 1 0.164887 0.592882 0.578677
654 1 0.248967 0.578891 0.652913
537 1 0.331881 0.670127 0.491973
516 1 0.333067 0.579976 0.572239
520 1 0.48087 0.583919 0.58616
518 1 0.584897 0.586573 0.51358
661 1 0.49312 0.498202 0.660422
662 1 0.584742 0.582044 0.667189
524 1 0.668023 0.567365 0.59495
666 1 0.752734 0.572343 0.658695
528 1 0.842826 0.58513 0.595346
527 1 0.911553 0.496948 0.576616
670 1 0.926783 0.576023 0.654515
551 1 0.922417 0.662665 0.584121
532 1 -0.00360685 0.752934 0.58486
674 1 0.0787176 0.753575 0.670165
536 1 0.184486 0.743141 0.600039
555 1 0.102411 0.824267 0.588803
701 1 0.172327 0.836116 0.67567
535 1 0.258018 0.664095 0.579077
678 1 0.252279 0.740782 0.675088
540 1 0.328624 0.743632 0.586131
681 1 0.329058 0.644498 0.667821
538 1 0.409496 0.754687 0.503984
539 1 0.408715 0.656973 0.568833
544 1 0.495797 0.744547 0.583602
545 1 0.66458 0.666284 0.508691
542 1 0.586885 0.752194 0.504408
543 1 0.585088 0.668972 0.591093
548 1 0.653441 0.760906 0.589565
547 1 0.761562 0.658246 0.590565
546 1 0.740992 0.740464 0.523183
552 1 0.835918 0.746628 0.591508
689 1 0.684723 0.652433 0.664809
694 1 0.916391 0.756915 0.662464
693 1 0.821183 0.668669 0.680607
557 1 0.168935 0.842688 0.493519
560 1 0.173659 0.920759 0.596057
558 1 0.248783 0.928204 0.500536
559 1 0.258369 0.82701 0.597209
705 1 0.345776 0.821695 0.676514
564 1 0.342441 0.908746 0.587033
563 1 0.42614 0.831753 0.585579
443 1 0.41686 1.00014 0.582288
568 1 0.499409 0.912306 0.566822
449 1 0.67585 0.00502842 0.513561
569 1 0.668261 0.832584 0.509935
566 1 0.583855 0.915884 0.497104
567 1 0.583932 0.832049 0.583803
572 1 0.655706 0.91776 0.574066
710 1 0.601252 0.908767 0.675061
570 1 0.753094 0.920273 0.509816
571 1 0.757014 0.832184 0.60353
593 1 0.669595 0.0190909 0.662649
713 1 0.669913 0.830825 0.670586
714 1 0.750526 0.924691 0.655982
556 1 0.0157771 0.908074 0.591605
576 1 0.840429 0.922215 0.581741
575 1 0.918124 0.83622 0.592602
597 1 0.841626 0.0022261 0.670503
717 1 0.831928 0.835035 0.676219
577 1 0.00424087 0.994168 0.677428
580 1 0.0123475 0.0795059 0.73166
579 1 0.0890793 -0.00664926 0.747079
581 1 0.172948 -0.00158636 0.68
603 1 0.0920604 0.15935 0.743755
584 1 0.180831 0.0697907 0.76156
582 1 0.249588 0.0809419 0.661632
588 1 0.332951 0.0788817 0.752982
583 1 0.260298 0.994622 0.75322
585 1 0.334856 0.992681 0.661463
586 1 0.409763 0.0912802 0.670473
613 1 0.50035 0.183338 0.683928
592 1 0.490126 0.0868524 0.741894
611 1 0.408902 0.177483 0.751515
589 1 0.505016 0.0047723 0.665782
733 1 0.495849 1.00492 0.824902
615 1 0.579869 0.179669 0.755133
596 1 0.672492 0.0910787 0.744996
738 1 0.745507 0.0885899 0.838341
600 1 0.823899 0.0917642 0.744091
619 1 0.746179 0.180298 0.760836
598 1 0.903878 0.0899199 0.669052
623 1 0.933336 0.171266 0.744482
602 1 0.0877067 0.254434 0.664921
604 1 0.0177193 0.247543 0.745432
608 1 0.159561 0.256804 0.750733
607 1 0.233988 0.162893 0.740085
749 1 0.167628 0.164265 0.844201
612 1 0.324688 0.245449 0.746669
631 1 0.257106 0.332779 0.750666
610 1 0.414072 0.254945 0.672422
754 1 0.426427 0.254515 0.828281
777 1 0.32599 0.338428 0.834009
635 1 0.408832 0.335815 0.750235
616 1 0.501984 0.250257 0.759201
614 1 0.581602 0.262982 0.665117
639 1 0.578524 0.325045 0.752058
641 1 0.66575 0.33098 0.661938
618 1 0.749221 0.242655 0.671635
617 1 0.655617 0.164387 0.668755
620 1 0.668441 0.261388 0.754186
785 1 0.674946 0.334142 0.835343
762 1 0.76553 0.253767 0.831356
601 1 0.0104196 0.171925 0.664223
622 1 0.904725 0.261623 0.657253
625 1 0.00664337 0.32608 0.658566
624 1 0.842149 0.264838 0.745085
626 1 0.0890845 0.408822 0.673647
769 1 1.00628 0.324567 0.82647
627 1 0.0976494 0.343609 0.755374
770 1 0.0779644 0.427676 0.833753
628 1 0.00641721 0.42059 0.737618
651 1 0.0912119 0.5036 0.752799
630 1 0.255052 0.416642 0.665923
632 1 0.171064 0.424902 0.762643
655 1 0.252864 0.49199 0.751119
773 1 0.168484 0.340698 0.834529
774 1 0.258235 0.411939 0.85079
634 1 0.414271 0.415293 0.670102
636 1 0.331011 0.421812 0.757374
659 1 0.416436 0.493546 0.752643
778 1 0.408514 0.415989 0.852006
640 1 0.48924 0.40151 0.767928
644 1 0.663754 0.406392 0.751435
805 1 0.513109 0.496617 0.839699
665 1 0.675122 0.500906 0.681216
643 1 0.77182 0.343601 0.754908
786 1 0.745433 0.411458 0.839646
809 1 0.661893 0.495902 0.819125
648 1 0.857033 0.415999 0.734847
647 1 0.926442 0.327969 0.742773
790 1 0.932985 0.42456 0.820452
794 1 0.0872925 0.583878 0.842574
652 1 0.0261369 0.589227 0.752549
675 1 0.0933578 0.677698 0.739512
793 1 0.0101854 0.509917 0.83703
653 1 0.17469 0.50456 0.667114
656 1 0.170651 0.582294 0.755053
660 1 0.335559 0.573357 0.75589
798 1 0.239901 0.583641 0.839628
658 1 0.408296 0.567936 0.666114
802 1 0.425786 0.585903 0.83453
801 1 0.342018 0.512324 0.8463
829 1 0.509849 0.658333 0.809422
664 1 0.507318 0.57391 0.745707
663 1 0.571528 0.48181 0.745894
687 1 0.596294 0.665049 0.748912
667 1 0.747081 0.475462 0.758144
668 1 0.676403 0.577521 0.755642
671 1 0.929513 0.502675 0.742614
672 1 0.842732 0.577785 0.752755
814 1 0.927582 0.58249 0.82387
695 1 0.917111 0.653345 0.749055
680 1 0.16987 0.755462 0.748947
676 1 0.996266 0.748905 0.754546
818 1 0.0905404 0.748806 0.844693
677 1 0.179611 0.667599 0.671022
679 1 0.256205 0.659272 0.751412
703 1 0.25322 0.833301 0.753996
822 1 0.250077 0.757108 0.820289
684 1 0.339202 0.742546 0.753132
825 1 0.335102 0.661189 0.825256
682 1 0.420563 0.747054 0.674605
685 1 0.49334 0.656218 0.669419
683 1 0.418801 0.662556 0.741252
707 1 0.423637 0.837468 0.749451
688 1 0.504355 0.751862 0.749737
686 1 0.573566 0.751747 0.6614
692 1 0.65659 0.752808 0.743639
833 1 0.677402 0.657761 0.830571
830 1 0.575741 0.74624 0.827487
691 1 0.762903 0.660998 0.763663
690 1 0.749135 0.752766 0.665427
834 1 0.761446 0.754515 0.821732
696 1 0.830395 0.751391 0.743156
837 1 0.834263 0.660384 0.839982
838 1 0.913748 0.755001 0.845928
697 1 1.00487 0.8238 0.676929
698 1 0.0739692 0.905246 0.681507
699 1 0.0890068 0.815142 0.752476
700 1 0.997881 0.915005 0.772393
704 1 0.173012 0.92045 0.750457
702 1 0.251683 0.914866 0.675053
708 1 0.354812 0.911065 0.744303
709 1 0.502629 0.829395 0.668846
706 1 0.42524 0.919776 0.662691
587 1 0.424536 0.00573582 0.749044
712 1 0.513467 0.918694 0.722739
850 1 0.435311 0.914536 0.826219
711 1 0.589144 0.830604 0.753197
591 1 0.5822 1.00171 0.73676
853 1 0.504321 0.826169 0.822702
857 1 0.677845 0.828708 0.831441
854 1 0.572836 0.925451 0.816395
595 1 0.749008 0.0162559 0.747077
716 1 0.655293 0.923147 0.75687
715 1 0.749713 0.834912 0.749778
858 1 0.739832 0.933333 0.828535
718 1 0.913011 0.918652 0.668792
599 1 0.92221 -0.000489828 0.749603
861 1 0.827013 0.853264 0.83329
719 1 0.914613 0.826749 0.752809
720 1 0.829425 0.918616 0.748803
2 1 0.0769085 0.0834802 0.991091
722 1 0.0845815 0.0844306 0.82038
5 1 0.15233 -0.00863886 -0.00287913
726 1 0.249197 0.0861147 0.837786
728 1 0.158248 0.0658428 0.906699
732 1 0.32853 0.0716188 0.911574
727 1 0.238538 0.995857 0.926585
725 1 0.177755 0.984367 0.833853
753 1 0.3308 0.1716 0.844902
730 1 0.416477 0.0943551 0.822928
736 1 0.5045 0.0877102 0.927552
757 1 0.494031 0.159798 0.839875
17 1 0.676516 1.00942 0.00941317
13 1 0.498395 1.00869 0.992242
737 1 0.659753 0.0116895 0.825826
734 1 0.575629 0.0794946 0.825137
759 1 0.589183 0.165639 0.905431
735 1 0.58956 0.000306972 0.934075
761 1 0.670257 0.174961 0.836985
740 1 0.66593 0.0862629 0.921746
763 1 0.756396 0.179491 0.922788
765 1 0.832463 0.16961 0.821671
742 1 0.911523 0.0798756 0.829872
724 1 -0.0149299 0.0754272 0.915449
721 1 0.0065869 1.01365 0.819367
744 1 0.829226 0.087219 0.917969
745 1 -0.00685595 0.160607 0.83704
746 1 0.0862271 0.252383 0.83312
747 1 0.0843254 0.16452 0.913108
771 1 0.0881238 0.347821 0.91252
748 1 0.00663248 0.245091 0.908427
57 1 0.335106 0.337175 0.0085961
750 1 0.242054 0.253988 0.843343
751 1 0.238883 0.1675 0.924402
752 1 0.168956 0.257357 0.92366
775 1 0.254659 0.32588 0.926326
755 1 0.414636 0.153834 0.915074
756 1 0.343774 0.259517 0.935896
781 1 0.495699 0.334871 0.862076
760 1 0.50946 0.247982 0.916725
38 1 0.588308 0.247679 0.995861
758 1 0.586086 0.246534 0.841498
764 1 0.674678 0.254376 0.907888
42 1 0.757814 0.260828 0.997248
768 1 0.843242 0.240944 0.91203
787 1 0.770495 0.326385 0.92135
69 1 0.844971 0.33702 1.00377
46 1 0.941023 0.244981 0.993136
766 1 0.919064 0.249086 0.827805
767 1 0.910443 0.159206 0.91633
791 1 0.91082 0.321841 0.903434
776 1 0.177598 0.414756 0.931198
772 1 0.992049 0.407415 0.908509
54 1 0.251484 0.409558 0.0122513
799 1 0.265512 0.505428 0.936121
81 1 0.3437 0.497529 0.0193456
58 1 0.438103 0.413827 0.024638
779 1 0.415165 0.328049 0.930945
780 1 0.328913 0.411113 0.929289
85 1 0.506439 0.512811 0.0127892
783 1 0.592676 0.330802 0.917447
784 1 0.505715 0.420065 0.927347
62 1 0.586248 0.423084 0.0114659
782 1 0.579224 0.396708 0.839044
788 1 0.664397 0.414837 0.906737
807 1 0.60136 0.503208 0.904364
66 1 0.762916 0.41637 -0.00733364
65 1 0.668916 0.337651 -0.0136783
93 1 0.839333 0.506891 1.00121
811 1 0.751476 0.494315 0.915564
789 1 0.8562 0.351906 0.825988
792 1 0.837451 0.426024 0.917073
77 1 0.177621 0.500298 0.00406189
795 1 0.0998983 0.494009 0.934125
74 1 0.0805498 0.590666 1.0045
819 1 0.0950834 0.675163 0.926068
800 1 0.174539 0.594226 0.92945
797 1 0.164274 0.490643 0.844756
78 1 0.252078 0.594588 1.00536
804 1 0.340279 0.581992 0.9341
823 1 0.250331 0.666479 0.916603
82 1 0.420661 0.585619 -0.00147551
803 1 0.424674 0.49902 0.920497
808 1 0.496735 0.58755 0.91373
86 1 0.592588 0.577459 0.985769
806 1 0.587754 0.580893 0.825259
812 1 0.675248 0.581615 0.899772
831 1 0.578598 0.648828 0.89483
90 1 0.752326 0.582992 1.0015
810 1 0.753466 0.571851 0.825598
813 1 0.84479 0.487998 0.833105
817 1 0.99456 0.671449 0.838346
815 1 0.92876 0.496992 0.914032
796 1 1.00147 0.602517 0.927729
816 1 0.844411 0.576842 0.916174
824 1 0.176877 0.766149 0.908577
843 1 0.0880596 0.848119 0.904877
820 1 0.989756 0.759687 0.921588
841 1 0.0102634 0.822911 0.836683
129 1 0.330635 0.826846 -0.00242369
821 1 0.167448 0.669065 0.823817
845 1 0.165149 0.833862 0.826841
102 1 0.23939 0.749434 0.992211
847 1 0.253294 0.824172 0.919008
828 1 0.322921 0.74897 0.906726
106 1 0.418057 0.745053 0.993517
105 1 0.329027 0.674701 0.995074
826 1 0.418078 0.748185 0.834673
827 1 0.415223 0.678032 0.916473
851 1 0.434105 0.834611 0.911092
109 1 0.494949 0.664861 0.0217532
832 1 0.51047 0.735637 0.909495
836 1 0.659595 0.744625 0.903663
113 1 0.670036 0.666483 0.974151
835 1 0.75194 0.665707 0.903878
117 1 0.838507 0.653638 1.01405
840 1 0.830132 0.743734 0.917059
839 1 0.915491 0.671678 0.925143
842 1 0.0827556 0.925605 0.831949
723 1 0.071556 -0.00786158 0.9055
844 1 0.992744 0.906596 0.892857
848 1 0.16224 0.914957 0.921422
849 1 0.333128 0.835074 0.826473
846 1 0.25481 0.918155 0.848018
729 1 0.347823 0.988025 0.834761
731 1 0.420682 0.995227 0.91001
852 1 0.331889 0.915979 0.93011
137 1 0.685267 0.818396 0.993287
855 1 0.58354 0.834663 0.914498
856 1 0.510005 0.914335 0.897727
860 1 0.665639 0.914043 0.906035
21 1 0.83213 -0.00320072 0.993639
739 1 0.737238 -0.000191901 0.919969
859 1 0.755233 0.838991 0.912141
864 1 0.828053 0.917395 0.925937
141 1 0.826954 0.82897 -0.00526127
741 1 0.821475 0.00291421 0.832043
743 1 0.911994 0.996027 0.915606
862 1 0.902651 0.924552 0.834065
863 1 0.910004 0.844144 0.906226
