ITEM: TIMESTEP
3750
ITEM: NUMBER OF ATOMS
864
ITEM: BOX BOUNDS pp pp pp
0.0000000000000000e+00 3.1559999999999999e+01
0.0000000000000000e+00 3.1559999999999999e+01
0.0000000000000000e+00 3.1559999999999999e+01
ITEM: ATOMS id type xs ys zs
4 1 0.997757 0.0895012 0.0758478
27 1 0.0906752 0.164454 0.0873668
8 1 0.166825 0.0828154 0.0797021
12 1 0.333895 0.0767836 0.0641065
31 1 0.257286 0.156686 0.0604793
177 1 0.326619 0.158146 0.15953
154 1 0.424703 0.0769331 0.165206
10 1 0.417761 0.0809279 0.998083
16 1 0.494954 0.0835348 0.0785579
157 1 0.502427 0.00728242 0.166278
39 1 0.587013 0.167752 0.0700139
15 1 0.578238 0.00463673 0.087387
20 1 0.660996 0.0818149 0.0801738
24 1 0.826248 0.0697636 0.0787036
162 1 0.744291 0.0907517 0.155948
161 1 0.657134 0.00817045 0.166562
22 1 0.923655 0.082474 -0.00190634
47 1 0.910563 0.161248 0.0950865
29 1 0.156168 0.169707 -0.000939979
32 1 0.163334 0.235307 0.0867051
28 1 0.0236643 0.259931 0.0935086
51 1 0.0830017 0.344259 0.080278
170 1 0.085999 0.261236 0.187199
26 1 0.0795406 0.257148 1.00117
173 1 0.177568 0.141635 0.171857
174 1 0.249409 0.229672 0.156233
30 1 0.25018 0.239435 0.981138
36 1 0.336832 0.245631 0.0870447
35 1 0.41966 0.149328 0.089299
59 1 0.421213 0.322461 0.080516
61 1 0.499975 0.318711 -0.0146002
201 1 0.348878 0.325767 0.163781
34 1 0.422314 0.241229 0.00162745
40 1 0.493968 0.231498 0.0787283
63 1 0.580469 0.32894 0.0729255
38 1 0.57846 0.245464 0.986541
182 1 0.583066 0.244745 0.14602
43 1 0.737018 0.170114 0.0818421
44 1 0.664499 0.256689 0.0699356
41 1 0.662842 0.166641 0.990168
67 1 0.754897 0.32384 0.0797197
48 1 0.835004 0.254733 0.0887783
190 1 0.910112 0.243515 0.194383
52 1 1.00625 0.42506 0.070154
56 1 0.174746 0.409854 0.0885684
75 1 0.0890652 0.499717 0.0829402
55 1 0.261731 0.327676 0.0907104
79 1 0.256012 0.47507 0.0858816
198 1 0.260566 0.409377 0.16427
77 1 0.166399 0.496048 0.00605105
54 1 0.252025 0.415529 0.992034
60 1 0.338418 0.399799 0.0751482
83 1 0.424551 0.482983 0.0749313
57 1 0.33526 0.327706 1.00507
58 1 0.423778 0.398687 0.999743
64 1 0.501376 0.404829 0.0743064
87 1 0.56208 0.49978 0.0783153
89 1 0.664526 0.504766 -0.00473339
68 1 0.665755 0.399225 0.083378
65 1 0.657598 0.330131 0.992173
72 1 0.82329 0.424279 0.0770886
71 1 0.939101 0.324554 0.0722979
214 1 0.910805 0.411325 0.152163
70 1 0.916803 0.411487 0.99266
193 1 0.996 0.331618 0.176194
99 1 0.0953973 0.669191 0.0816121
80 1 0.177275 0.578542 0.0813644
245 1 0.171293 0.666833 0.168752
84 1 0.329379 0.578127 0.0916746
101 1 0.173017 0.670937 1.0049
78 1 0.260252 0.565174 0.00853335
107 1 0.403136 0.666045 0.0760987
82 1 0.402657 0.5808 0.00401278
88 1 0.504828 0.588567 0.0860983
230 1 0.573829 0.578036 0.162933
86 1 0.588984 0.584727 -0.00911084
113 1 0.66699 0.666692 -0.00876011
92 1 0.670275 0.584024 0.095895
91 1 0.750769 0.502544 0.089251
234 1 0.751879 0.571743 0.16437
95 1 0.921423 0.504744 0.0773497
76 1 -0.00381669 0.580042 0.0799268
96 1 0.821914 0.586978 0.0921547
100 1 0.000156827 0.753468 0.0890085
123 1 0.0937299 0.840476 0.0799645
242 1 0.0773882 0.752411 0.161789
104 1 0.167858 0.758414 0.100168
265 1 0.0102188 0.847406 0.15516
103 1 0.250166 0.666819 0.0837892
246 1 0.256616 0.767486 0.163265
273 1 0.332731 0.853857 0.152343
127 1 0.238554 0.845293 0.0932242
102 1 0.252037 0.753723 0.00666468
108 1 0.345228 0.752443 0.0812121
131 1 0.41474 0.840189 0.0760755
112 1 0.48392 0.754408 0.0893433
133 1 0.508068 0.833235 0.00744049
250 1 0.408842 0.75289 0.16836
253 1 0.505942 0.667111 0.160757
111 1 0.587417 0.661207 0.0869885
135 1 0.573559 0.829435 0.0915789
281 1 0.668828 0.837478 0.170478
115 1 0.758675 0.671537 0.0768573
116 1 0.679176 0.7603 0.100065
258 1 0.74799 0.762265 0.186497
139 1 0.751587 0.847085 0.0805512
120 1 0.838667 0.76653 0.0739066
261 1 0.837522 0.657164 0.16324
119 1 0.915347 0.668702 0.0830252
143 1 0.919428 0.851422 0.0862599
262 1 0.92302 0.749727 0.15674
3 1 0.091884 0.00719378 0.0777173
128 1 0.164853 0.919519 0.0910357
124 1 0.999478 0.928719 0.083202
122 1 0.0850139 0.925569 0.00587055
149 1 0.162295 0.00783048 0.159594
7 1 0.257725 -0.00798081 0.0688854
126 1 0.232336 0.915743 -0.00327758
132 1 0.338728 0.917307 0.0694952
153 1 0.33334 -0.000309221 0.18168
11 1 0.411734 -0.000108306 0.0793329
277 1 0.501283 0.842353 0.165704
274 1 0.415583 0.921936 0.172356
9 1 0.332845 0.991145 0.995852
136 1 0.496861 0.929145 0.0859399
13 1 0.498753 0.989831 -0.0132597
140 1 0.659181 0.90023 0.086936
165 1 0.834506 0.0204419 0.165428
19 1 0.748531 -0.00705284 0.0742342
282 1 0.741157 0.929003 0.157861
138 1 0.746663 0.912673 -0.00157114
1 1 1.01067 1.00529 0.00317688
23 1 0.923246 0.00373661 0.0878685
144 1 0.837695 0.927101 0.0929256
286 1 0.918128 0.923628 0.168097
146 1 0.0759457 0.0849424 0.16232
152 1 0.168052 0.0664374 0.257602
148 1 0.00754915 0.0891631 0.261422
169 1 -0.00223573 0.173918 0.180394
290 1 0.0850449 0.10367 0.339777
150 1 0.251899 0.0660703 0.167638
321 1 0.329268 0.160614 0.332789
175 1 0.258336 0.160073 0.243146
294 1 0.249803 0.0760472 0.338264
156 1 0.330527 0.0848648 0.250695
179 1 0.414147 0.162566 0.251941
160 1 0.493702 0.0832197 0.249338
158 1 0.568109 0.0863201 0.171088
181 1 0.493568 0.158522 0.180512
183 1 0.596129 0.166098 0.247633
325 1 0.49849 0.156394 0.327052
164 1 0.662767 0.0855563 0.244873
302 1 0.575323 0.0867589 0.330202
187 1 0.750595 0.157721 0.249906
163 1 0.759617 0.0132892 0.255293
166 1 0.92107 0.0918012 0.183818
189 1 0.825873 0.148023 0.162427
168 1 0.842427 0.0816357 0.261389
191 1 0.91191 0.159435 0.268864
171 1 0.0974942 0.173042 0.250584
314 1 0.0831083 0.252846 0.335613
172 1 -0.00678929 0.263456 0.256956
337 1 0.979372 0.340113 0.329692
195 1 0.0754075 0.333021 0.269307
197 1 0.175161 0.315792 0.16462
313 1 0.0058995 0.181568 0.336584
176 1 0.179033 0.241291 0.247899
199 1 0.253414 0.328014 0.243835
318 1 0.270485 0.251589 0.334568
180 1 0.324365 0.240685 0.237203
317 1 0.186599 0.17731 0.341873
345 1 0.344377 0.331381 0.339128
178 1 0.410901 0.236106 0.17734
205 1 0.49313 0.30621 0.166179
184 1 0.510914 0.239401 0.248193
322 1 0.414006 0.236777 0.328174
203 1 0.42369 0.318955 0.253151
349 1 0.505359 0.334549 0.326941
326 1 0.578488 0.250588 0.346932
207 1 0.593625 0.319811 0.239715
185 1 0.661644 0.163683 0.15481
186 1 0.753645 0.245137 0.159869
209 1 0.670231 0.319743 0.163949
213 1 0.811303 0.335102 0.174475
188 1 0.669304 0.243897 0.251067
330 1 0.756355 0.250706 0.349166
192 1 0.825963 0.236278 0.258101
211 1 0.74021 0.327539 0.257758
353 1 0.666346 0.336646 0.338399
357 1 0.826439 0.338766 0.33381
215 1 0.912415 0.337588 0.245305
334 1 0.911347 0.249591 0.33868
194 1 0.0877068 0.403131 0.172609
196 1 -0.000915706 0.421301 0.245382
361 1 0.991295 0.502505 0.336139
200 1 0.17848 0.415566 0.237567
204 1 0.341281 0.402858 0.245124
202 1 0.426904 0.404526 0.146671
208 1 0.488774 0.409039 0.241925
373 1 0.492003 0.519322 0.334052
346 1 0.437785 0.413363 0.328292
206 1 0.57409 0.405164 0.166388
350 1 0.586047 0.417517 0.327917
212 1 0.661275 0.405975 0.252627
210 1 0.736368 0.41676 0.170752
354 1 0.751506 0.419658 0.341806
217 1 0.0125742 0.500811 0.169028
381 1 0.83951 0.498855 0.334469
216 1 0.833528 0.406611 0.250577
239 1 0.918407 0.498934 0.238565
358 1 0.910069 0.428468 0.339523
219 1 0.102215 0.488046 0.241908
218 1 0.0852363 0.574681 0.16776
362 1 0.100571 0.594165 0.322521
221 1 0.177529 0.487147 0.168
222 1 0.255286 0.576633 0.167679
225 1 0.343974 0.4838 0.169996
223 1 0.245261 0.500692 0.242009
224 1 0.173951 0.591206 0.235882
228 1 0.331427 0.583986 0.239444
226 1 0.411241 0.590745 0.171174
229 1 0.496071 0.499569 0.166985
227 1 0.412537 0.492347 0.245273
370 1 0.402907 0.588414 0.317853
232 1 0.489989 0.572524 0.246611
231 1 0.583263 0.49091 0.238183
374 1 0.585825 0.589473 0.338263
377 1 0.662904 0.505302 0.333228
257 1 0.688543 0.662057 0.176301
255 1 0.589459 0.658763 0.236588
235 1 0.746252 0.496502 0.252564
233 1 0.658469 0.493077 0.156399
236 1 0.666534 0.575924 0.256032
378 1 0.766838 0.586379 0.335168
401 1 0.663091 0.667507 0.319433
237 1 0.829679 0.500147 0.169753
220 1 0.000152873 0.586911 0.254051
238 1 0.91007 0.572176 0.161671
240 1 0.832455 0.57218 0.250166
269 1 0.163369 0.837891 0.166321
241 1 1.00427 0.65538 0.153029
243 1 0.0643049 0.675806 0.250133
244 1 -0.00291149 0.759444 0.249497
267 1 0.0956192 0.842495 0.243332
386 1 0.0944208 0.756353 0.321138
247 1 0.255378 0.671855 0.245989
248 1 0.169235 0.747909 0.230257
271 1 0.246476 0.839369 0.248449
249 1 0.330198 0.670585 0.169205
251 1 0.417312 0.669623 0.247481
252 1 0.335616 0.754882 0.251639
254 1 0.5913 0.751331 0.163055
256 1 0.497273 0.753725 0.251684
279 1 0.582663 0.836233 0.245956
260 1 0.660931 0.750853 0.247965
259 1 0.766574 0.666842 0.265275
264 1 0.839068 0.766267 0.247949
283 1 0.739405 0.843998 0.250069
402 1 0.746016 0.75798 0.322603
263 1 0.926528 0.668309 0.234635
285 1 0.848003 0.836714 0.156281
287 1 0.923537 0.834267 0.242096
406 1 0.919299 0.776478 0.329788
147 1 0.0886448 0.00110363 0.248938
266 1 0.0877676 0.924497 0.165948
410 1 0.107858 0.925341 0.322686
151 1 0.264332 0.984609 0.257712
272 1 0.173013 0.936533 0.246288
270 1 0.243886 0.93296 0.163339
297 1 0.339201 -0.00602732 0.334759
276 1 0.342061 0.904528 0.255854
155 1 0.415957 0.0101878 0.247543
275 1 0.425193 0.838034 0.248206
278 1 0.593982 0.919448 0.166876
159 1 0.58387 1.00041 0.250569
280 1 0.497895 0.93289 0.245724
305 1 0.665643 0.0113211 0.327991
429 1 0.826511 0.832969 0.337702
284 1 0.665681 0.937889 0.25442
145 1 -0.016673 0.0114262 0.168415
167 1 0.925906 0.995053 0.259093
268 1 0.0161079 0.922905 0.252301
288 1 0.828268 0.912351 0.24335
291 1 0.0923833 -0.00137959 0.411645
292 1 1.01023 0.0748762 0.410556
315 1 0.092509 0.179047 0.416448
434 1 0.095313 0.0683439 0.496451
457 1 0.996375 0.172681 0.498909
295 1 0.26306 1.0003 0.417751
296 1 0.174738 0.0856324 0.41492
300 1 0.338495 0.0785778 0.415636
437 1 0.179061 -0.000624344 0.500737
441 1 0.325674 0.987781 0.52029
298 1 0.420151 0.0734248 0.336737
304 1 0.497729 0.0848863 0.421938
299 1 0.415443 0.00810352 0.43695
446 1 0.582252 0.0630316 0.5125
327 1 0.591206 0.16961 0.425048
329 1 0.675913 0.153724 0.324798
303 1 0.581961 1.00375 0.397754
445 1 0.501917 -0.0038131 0.506463
306 1 0.744902 0.0825465 0.341785
308 1 0.669946 0.0870796 0.420688
309 1 0.842544 -0.00644555 0.340853
450 1 0.734348 0.0691729 0.507368
449 1 0.655742 0.991036 0.487472
312 1 0.818618 0.0691614 0.428742
310 1 0.923897 0.0862015 0.336714
477 1 0.846383 0.163727 0.503479
333 1 0.828529 0.165514 0.345737
335 1 0.913285 0.162065 0.411433
316 1 0.991998 0.258941 0.41256
458 1 0.0739432 0.271203 0.483078
320 1 0.181042 0.25593 0.412012
461 1 0.168819 0.15849 0.504741
319 1 0.260441 0.161766 0.419325
324 1 0.3299 0.238553 0.432186
323 1 0.413589 0.159376 0.42048
469 1 0.504056 0.174715 0.49636
347 1 0.424035 0.33005 0.412326
489 1 0.349674 0.327991 0.494058
466 1 0.421328 0.249879 0.493327
328 1 0.49047 0.251366 0.418123
351 1 0.576605 0.34151 0.411151
332 1 0.66421 0.254224 0.417142
493 1 0.505519 0.334986 0.494263
331 1 0.747732 0.163118 0.434371
355 1 0.751159 0.33992 0.41664
497 1 0.662404 0.330569 0.502807
336 1 0.831067 0.23426 0.432674
359 1 0.910506 0.338723 0.412653
338 1 0.0736443 0.433178 0.338205
365 1 0.182788 0.514516 0.328655
339 1 0.061354 0.33677 0.39826
363 1 0.0967915 0.516608 0.413066
344 1 0.173635 0.426054 0.402825
509 1 0.183217 0.503826 0.483808
341 1 0.173492 0.338275 0.332623
342 1 0.266498 0.413895 0.329513
343 1 0.262662 0.329031 0.40517
367 1 0.264456 0.495439 0.418082
513 1 0.334003 0.500176 0.512316
348 1 0.347598 0.417165 0.413603
352 1 0.493486 0.428635 0.416934
490 1 0.429185 0.407839 0.504438
494 1 0.589493 0.428166 0.503502
356 1 0.656658 0.42603 0.412209
379 1 0.759297 0.496618 0.429112
498 1 0.734018 0.410955 0.511666
521 1 0.658996 0.517894 0.482555
360 1 0.845056 0.418168 0.422862
340 1 0.98739 0.421515 0.420856
383 1 0.913234 0.508439 0.415611
506 1 0.0898229 0.602436 0.486909
368 1 0.182039 0.599662 0.419016
369 1 0.335293 0.50398 0.324046
366 1 0.2619 0.581491 0.329025
372 1 0.330126 0.591528 0.409799
391 1 0.268768 0.670819 0.40979
510 1 0.254433 0.577326 0.497121
371 1 0.415104 0.514696 0.416758
517 1 0.513914 0.506773 0.49897
514 1 0.417314 0.565992 0.514949
397 1 0.48812 0.670418 0.333461
375 1 0.573195 0.504259 0.412991
376 1 0.498546 0.590226 0.411245
518 1 0.585388 0.589022 0.489257
545 1 0.665446 0.669526 0.495638
380 1 0.679132 0.590278 0.400862
403 1 0.754676 0.669899 0.400344
384 1 0.838929 0.585736 0.419675
382 1 0.913918 0.580415 0.330149
385 1 0.994961 0.683797 0.32231
364 1 0.994127 0.584563 0.400543
407 1 0.916969 0.666419 0.422949
405 1 0.842749 0.666949 0.333577
387 1 0.0829884 0.670938 0.410226
392 1 0.171945 0.734994 0.400893
411 1 0.094272 0.834255 0.408828
390 1 0.247949 0.744857 0.323846
537 1 0.339281 0.661683 0.504311
389 1 0.181052 0.661277 0.321239
534 1 0.254196 0.741337 0.492628
413 1 0.175939 0.831053 0.333403
415 1 0.264279 0.813248 0.41347
393 1 0.342405 0.676132 0.327685
394 1 0.425803 0.767813 0.339097
396 1 0.343943 0.740169 0.412012
395 1 0.416028 0.656868 0.414733
538 1 0.422869 0.746772 0.496932
398 1 0.586328 0.753828 0.329714
399 1 0.590908 0.676206 0.407827
400 1 0.504094 0.746546 0.41987
423 1 0.594541 0.835358 0.411751
425 1 0.674776 0.837994 0.336643
404 1 0.669371 0.744689 0.41188
546 1 0.752338 0.7487 0.482367
388 1 -0.000797972 0.751668 0.412857
408 1 0.851741 0.75221 0.427139
409 1 0.0156701 0.841609 0.332592
431 1 0.928391 0.83979 0.427378
289 1 0.00497947 0.993683 0.333641
416 1 0.177822 0.911593 0.403643
412 1 0.00758486 0.911463 0.413833
554 1 0.106752 0.914746 0.489799
433 1 0.0062218 0.984147 0.48599
293 1 0.17901 1.00043 0.342291
414 1 0.26623 0.919584 0.33423
561 1 0.325765 0.82468 0.50971
557 1 0.179173 0.826751 0.477219
558 1 0.245278 0.911211 0.501316
417 1 0.340532 0.831217 0.335632
419 1 0.435657 0.827266 0.422835
418 1 0.41652 0.913787 0.349464
420 1 0.331163 0.906125 0.429592
562 1 0.411913 0.903124 0.499055
421 1 0.502442 0.844195 0.327874
422 1 0.599624 0.917636 0.330245
301 1 0.489051 0.988716 0.337309
424 1 0.499674 0.925982 0.426151
428 1 0.65987 0.926631 0.411535
569 1 0.664268 0.840754 0.49541
565 1 0.512932 0.832503 0.516957
307 1 0.731808 1.00111 0.42357
427 1 0.759508 0.856118 0.421711
426 1 0.7433 0.937839 0.328282
432 1 0.830577 0.922895 0.409387
570 1 0.733894 0.919498 0.502792
311 1 0.919126 0.977007 0.425868
430 1 0.91644 0.91811 0.335101
574 1 0.919034 0.898543 0.517874
436 1 1.00142 0.0688148 0.571321
435 1 0.0834767 0.996139 0.579086
459 1 0.0752537 0.151597 0.578542
438 1 0.251517 0.0836337 0.498192
439 1 0.234605 1.00288 0.584709
440 1 0.15282 0.0758714 0.593621
444 1 0.32089 0.101794 0.588024
442 1 0.418242 0.0940678 0.510961
467 1 0.41905 0.183697 0.570812
443 1 0.425713 0.00208529 0.586601
448 1 0.50503 0.0864863 0.583189
447 1 0.580691 0.990932 0.601929
452 1 0.655246 0.0753028 0.590896
473 1 0.66119 0.159531 0.507335
451 1 0.726159 0.9907 0.592498
454 1 0.913856 0.0750937 0.50126
456 1 0.821753 0.062691 0.580449
598 1 0.918618 0.0708641 0.656476
479 1 0.920898 0.162223 0.589642
597 1 0.830451 0.9871 0.665543
460 1 0.00871305 0.249603 0.572889
464 1 0.138585 0.235993 0.57057
465 1 0.332428 0.15849 0.500425
462 1 0.245112 0.240117 0.51001
463 1 0.235211 0.168708 0.588959
487 1 0.241651 0.326007 0.571441
468 1 0.326778 0.239188 0.582969
491 1 0.439505 0.338721 0.583826
471 1 0.58117 0.171269 0.589831
470 1 0.594488 0.255151 0.502756
472 1 0.504367 0.253773 0.574883
495 1 0.57233 0.333348 0.581954
637 1 0.504203 0.342091 0.665803
475 1 0.760104 0.152272 0.573925
476 1 0.661829 0.248303 0.596345
474 1 0.737786 0.243107 0.505879
499 1 0.760194 0.330334 0.584672
480 1 0.835669 0.248944 0.576561
501 1 0.833459 0.320682 0.501795
478 1 0.91471 0.256346 0.499396
503 1 0.923427 0.344706 0.568166
481 1 0.993494 0.345388 0.497426
482 1 0.0742191 0.431327 0.487468
485 1 0.162572 0.3439 0.467434
483 1 0.0823737 0.33144 0.584005
484 1 0.00981769 0.419862 0.584951
488 1 0.168696 0.416445 0.593101
486 1 0.251717 0.418909 0.492506
511 1 0.241213 0.513568 0.586969
630 1 0.245897 0.42543 0.662064
492 1 0.335347 0.41402 0.565258
515 1 0.429728 0.494105 0.582832
634 1 0.417162 0.415348 0.662309
661 1 0.501298 0.493322 0.668768
496 1 0.51877 0.433255 0.584757
500 1 0.67031 0.419397 0.589542
665 1 0.67156 0.499978 0.681287
641 1 0.692024 0.321458 0.659719
504 1 0.838724 0.418799 0.562982
523 1 0.762566 0.488461 0.59265
502 1 0.927537 0.44195 0.50189
646 1 0.920754 0.424845 0.658879
533 1 0.172703 0.678004 0.500332
507 1 0.100117 0.493471 0.586075
505 1 0.0202951 0.523529 0.487235
508 1 -0.000848615 0.596849 0.575419
531 1 0.0786798 0.660542 0.57567
657 1 0.344562 0.493618 0.658425
512 1 0.161118 0.592966 0.575101
677 1 0.171221 0.659149 0.670497
654 1 0.262659 0.585496 0.662535
535 1 0.254518 0.668322 0.571182
516 1 0.343175 0.58119 0.58205
685 1 0.500493 0.666185 0.666017
658 1 0.430186 0.582133 0.670007
520 1 0.50564 0.579297 0.593154
519 1 0.587438 0.513765 0.568991
662 1 0.599508 0.579232 0.658616
525 1 0.82713 0.505914 0.504541
522 1 0.748262 0.598031 0.49102
549 1 0.83984 0.665663 0.507138
524 1 0.677195 0.582917 0.570647
528 1 0.829869 0.582508 0.585301
666 1 0.75243 0.572043 0.652863
693 1 0.840574 0.662835 0.660296
526 1 0.919175 0.580434 0.487488
527 1 0.909378 0.51422 0.585524
551 1 0.922595 0.666788 0.577105
529 1 -0.00146843 0.674158 0.490407
530 1 0.0894814 0.750485 0.49288
532 1 1.00669 0.74185 0.588959
555 1 0.0777717 0.827607 0.577862
674 1 0.0781477 0.741829 0.663371
536 1 0.166835 0.760839 0.571374
681 1 0.3424 0.650292 0.669976
540 1 0.336899 0.732793 0.598452
541 1 0.494367 0.662013 0.49574
539 1 0.426096 0.658221 0.5851
682 1 0.41859 0.749632 0.666317
544 1 0.49939 0.749029 0.578039
705 1 0.324714 0.821189 0.670491
542 1 0.587491 0.752074 0.502084
543 1 0.58132 0.668445 0.574644
686 1 0.578974 0.741221 0.678813
567 1 0.582526 0.833654 0.606166
547 1 0.74117 0.682292 0.57116
548 1 0.657649 0.751347 0.599901
552 1 0.837956 0.746807 0.586569
571 1 0.7541 0.827165 0.579734
690 1 0.757716 0.746261 0.68309
550 1 0.924976 0.770499 0.511363
717 1 0.830146 0.821756 0.670254
694 1 0.920511 0.737315 0.666541
553 1 0.0135535 0.827959 0.4946
698 1 0.081461 0.922826 0.649608
556 1 0.00828971 0.909317 0.574025
559 1 0.250485 0.829447 0.58581
560 1 0.165919 0.916118 0.579173
564 1 0.343685 0.909647 0.592521
563 1 0.401893 0.814442 0.584361
568 1 0.486873 0.918945 0.598987
566 1 0.582517 0.913468 0.522462
710 1 0.592991 0.925376 0.672984
453 1 0.830561 0.983266 0.49756
593 1 0.66727 -0.00158227 0.685864
573 1 0.837425 0.833595 0.50174
572 1 0.670779 0.895269 0.595258
714 1 0.750854 0.909465 0.6765
576 1 0.832833 0.917112 0.592372
575 1 0.917687 0.82487 0.60682
455 1 0.913646 0.993384 0.584118
718 1 0.920681 0.918766 0.664303
577 1 0.998738 0.989534 0.662369
578 1 0.0717189 0.0768305 0.671518
580 1 0.995745 0.0714345 0.735475
603 1 0.0810665 0.160481 0.74215
579 1 0.0695809 0.997361 0.735135
584 1 0.154326 0.0639398 0.742477
601 1 -0.00231094 0.152085 0.668067
582 1 0.248088 0.0846727 0.674526
588 1 0.331126 0.0745611 0.757774
583 1 0.241062 0.996798 0.739119
585 1 0.328084 0.0125857 0.655917
586 1 0.422033 0.0913433 0.656046
589 1 0.503125 0.992376 0.67395
611 1 0.408404 0.175246 0.750318
587 1 0.425758 0.00289146 0.752225
590 1 0.575811 0.084737 0.666352
591 1 0.588974 1.02068 0.755292
592 1 0.508513 0.0799066 0.751785
596 1 0.674049 0.0801106 0.761103
615 1 0.585824 0.159811 0.754019
733 1 0.495588 1.00134 0.838227
594 1 0.755765 0.0722187 0.668569
619 1 0.739541 0.160898 0.755564
738 1 0.760028 0.0837452 0.848506
621 1 0.831409 0.15685 0.66427
600 1 0.835401 0.0885492 0.75454
623 1 0.919189 0.152396 0.740604
599 1 0.914755 -0.0146697 0.751932
602 1 0.0713232 0.231198 0.663788
604 1 0.986512 0.236916 0.740585
605 1 0.158017 0.162374 0.668624
606 1 0.243244 0.23569 0.671209
609 1 0.339071 0.163504 0.67192
608 1 0.163256 0.237349 0.755095
607 1 0.246608 0.147312 0.759232
631 1 0.244032 0.315707 0.756263
610 1 0.408231 0.263511 0.662743
612 1 0.329164 0.253971 0.742313
613 1 0.499001 0.180092 0.666604
616 1 0.48946 0.247955 0.750457
614 1 0.587394 0.252908 0.677251
620 1 0.677864 0.258963 0.769247
645 1 0.841188 0.34015 0.662361
617 1 0.660361 0.163457 0.670317
618 1 0.753115 0.233371 0.649637
643 1 0.766288 0.322804 0.737783
622 1 0.917577 0.249704 0.651522
624 1 0.840771 0.23278 0.74047
647 1 0.909566 0.323154 0.741405
765 1 0.830736 0.174229 0.830642
766 1 0.908652 0.251112 0.83174
626 1 0.0902729 0.422747 0.678706
629 1 0.15812 0.335102 0.667166
627 1 0.0731788 0.329677 0.723377
770 1 0.087814 0.413347 0.82673
653 1 0.166125 0.50248 0.666033
632 1 0.168115 0.411069 0.759159
633 1 0.315867 0.344091 0.658826
636 1 0.32388 0.410907 0.734098
635 1 0.421197 0.339981 0.740958
640 1 0.501411 0.412175 0.744439
781 1 0.500928 0.35463 0.834104
639 1 0.579532 0.320698 0.757034
638 1 0.590882 0.409147 0.664369
644 1 0.675088 0.403562 0.744207
782 1 0.579629 0.417755 0.822114
642 1 0.751624 0.412919 0.668022
648 1 0.853059 0.421723 0.738131
667 1 0.758922 0.501737 0.749307
625 1 0.998958 0.332231 0.659719
628 1 -0.00773872 0.41945 0.742595
671 1 0.919532 0.515265 0.749517
769 1 1.00574 0.339463 0.81794
790 1 0.914465 0.419027 0.827193
650 1 0.0874822 0.584825 0.673121
651 1 0.0981192 0.512223 0.766777
673 1 0.0138046 0.668049 0.676563
794 1 0.0988633 0.595409 0.84945
817 1 0.00866226 0.654764 0.835348
656 1 0.167726 0.597068 0.745215
655 1 0.247935 0.501503 0.753572
679 1 0.245763 0.666884 0.749935
798 1 0.232625 0.584342 0.821111
659 1 0.442283 0.507973 0.749076
660 1 0.349258 0.576237 0.74692
683 1 0.432913 0.664778 0.75419
801 1 0.333935 0.503999 0.835092
825 1 0.338192 0.672929 0.835617
663 1 0.573529 0.507007 0.764073
664 1 0.509186 0.593448 0.767279
833 1 0.66614 0.66619 0.841291
668 1 0.679436 0.582937 0.766759
813 1 0.836193 0.494503 0.838225
810 1 0.765909 0.588574 0.828841
669 1 0.833322 0.499688 0.668609
649 1 0.00675059 0.502416 0.661822
652 1 0.0125996 0.58329 0.751467
672 1 0.841811 0.591425 0.745371
670 1 0.9276 0.585452 0.675775
814 1 0.921315 0.585101 0.830944
695 1 0.926984 0.666743 0.763011
675 1 0.0898637 0.67054 0.764312
676 1 -0.00315345 0.756027 0.740104
818 1 0.0740298 0.761964 0.849381
699 1 0.0802008 0.811915 0.751239
701 1 0.162965 0.83471 0.658234
678 1 0.254926 0.735856 0.678943
680 1 0.169813 0.75387 0.740633
822 1 0.259068 0.745862 0.831985
684 1 0.345667 0.749268 0.756053
709 1 0.475272 0.842025 0.657458
688 1 0.496368 0.763406 0.75383
707 1 0.400962 0.836137 0.7482
713 1 0.682927 0.827052 0.685239
689 1 0.675738 0.654285 0.660142
687 1 0.601441 0.654235 0.745992
711 1 0.582245 0.835812 0.751798
692 1 0.677742 0.744247 0.74663
691 1 0.751809 0.656046 0.747813
837 1 0.840602 0.66785 0.832002
715 1 0.746596 0.835944 0.77206
834 1 0.754429 0.732437 0.825274
696 1 0.836695 0.74569 0.747965
861 1 0.84359 0.83565 0.82872
838 1 0.916238 0.751734 0.834987
697 1 0.0219626 0.840577 0.674158
581 1 0.168468 0.99705 0.663711
841 1 0.992927 0.841299 0.842679
700 1 1.00897 0.906259 0.752507
704 1 0.165462 0.913767 0.738757
702 1 0.244194 0.915464 0.658417
703 1 0.260467 0.828095 0.752431
708 1 0.332877 0.915546 0.745178
706 1 0.406932 0.933666 0.674691
712 1 0.481514 0.907736 0.752855
854 1 0.594572 0.92982 0.835339
595 1 0.757586 0.00601536 0.755358
857 1 0.663956 0.816342 0.837137
716 1 0.67405 0.917492 0.761476
858 1 0.75067 0.929248 0.84279
741 1 0.82781 0.00384047 0.837897
737 1 0.678663 0.00530907 0.833754
719 1 0.914811 0.830531 0.744727
720 1 0.840393 0.912074 0.75165
862 1 0.915844 0.924554 0.844575
721 1 -0.00803367 0.992022 0.832196
2 1 0.0717048 0.0989521 0.999967
722 1 0.0751516 0.0726693 0.827907
728 1 0.161933 0.0922061 0.900253
725 1 0.158662 0.998703 0.832871
724 1 0.997084 0.0999124 0.92097
6 1 0.239267 0.080895 0.982099
726 1 0.252515 0.0590841 0.839919
727 1 0.245613 0.992231 0.921176
732 1 0.336485 0.0686331 0.920576
729 1 0.336629 0.997509 0.839322
33 1 0.342221 0.169853 0.985099
37 1 0.49334 0.166185 0.982193
730 1 0.411546 0.0879236 0.837541
736 1 0.490642 0.0798876 0.910855
14 1 0.594621 0.0827071 0.993919
734 1 0.581377 0.085638 0.843583
761 1 0.669823 0.152847 0.839616
18 1 0.747677 0.0896851 1.0076
45 1 0.835744 0.170227 0.0118809
740 1 0.672562 0.0816857 0.921294
763 1 0.750145 0.165066 0.921917
744 1 0.835889 0.085442 0.931467
745 1 0.982597 0.176391 0.836169
742 1 0.916166 0.0806455 0.837292
767 1 0.904113 0.170437 0.926809
746 1 0.0736657 0.255663 0.816096
749 1 0.15326 0.145828 0.813961
747 1 0.0760075 0.168027 0.910216
752 1 0.155653 0.24842 0.911505
748 1 0.000422394 0.243272 0.919614
751 1 0.248359 0.165566 0.899684
750 1 0.241708 0.240699 0.827121
775 1 0.256861 0.33229 0.910894
777 1 0.337116 0.3377 0.827551
755 1 0.419434 0.167105 0.910987
753 1 0.327302 0.155496 0.829259
756 1 0.3304 0.244207 0.904568
754 1 0.421908 0.262356 0.832865
779 1 0.422108 0.349324 0.906422
757 1 0.490934 0.162415 0.814807
759 1 0.580891 0.167976 0.915336
760 1 0.502841 0.234156 0.901498
758 1 0.597025 0.24409 0.846893
764 1 0.673138 0.250063 0.91386
42 1 0.758169 0.251581 -0.0111344
789 1 0.842066 0.33333 0.834953
762 1 0.757848 0.261388 0.841223
787 1 0.771639 0.359391 0.920984
46 1 0.917225 0.24068 0.0101339
69 1 0.847635 0.335506 0.99692
768 1 0.841472 0.268768 0.91679
25 1 0.000708789 0.174654 0.00321884
791 1 0.930688 0.332903 0.907207
771 1 0.0784431 0.329857 0.90704
50 1 0.095854 0.410473 0.999327
49 1 0.00995093 0.347574 0.988254
773 1 0.161359 0.329207 0.82864
797 1 0.171853 0.486224 0.843221
53 1 0.180148 0.330809 1.00908
776 1 0.172652 0.402284 0.915011
774 1 0.245905 0.41095 0.825254
780 1 0.34571 0.425093 0.920795
778 1 0.410143 0.423198 0.822937
784 1 0.502237 0.423215 0.919623
803 1 0.417022 0.51428 0.913117
62 1 0.587519 0.415068 -0.006205
85 1 0.49787 0.503464 0.994286
783 1 0.574169 0.330694 0.912698
807 1 0.58759 0.49617 0.909664
66 1 0.746442 0.415639 0.0109127
785 1 0.667444 0.362531 0.847192
786 1 0.75852 0.409128 0.814757
788 1 0.67386 0.42701 0.920686
809 1 0.689687 0.512604 0.840094
772 1 -0.00252683 0.413811 0.897679
792 1 0.84605 0.427419 0.9265
793 1 0.00724393 0.508124 0.833061
73 1 0.00106787 0.496301 0.98916
795 1 0.0939076 0.491664 0.917865
74 1 0.0855135 0.585916 0.00101437
97 1 0.00317417 0.668697 0.00225129
800 1 0.17987 0.57805 0.938965
819 1 0.0854335 0.674061 0.9275
799 1 0.24915 0.499882 0.912381
81 1 0.338564 0.489567 0.011795
823 1 0.242357 0.660612 0.923185
105 1 0.323888 0.663444 1.01409
802 1 0.425719 0.591287 0.836245
829 1 0.488889 0.672639 0.851614
804 1 0.328623 0.590039 0.9204
827 1 0.409053 0.649987 0.931486
808 1 0.51559 0.587734 0.920109
805 1 0.508653 0.492659 0.845669
806 1 0.59075 0.590868 0.845169
831 1 0.580683 0.676971 0.923964
812 1 0.671577 0.577673 0.925248
90 1 0.742993 0.596289 -0.00441492
811 1 0.763644 0.505427 0.920926
835 1 0.755649 0.669025 0.916042
93 1 0.815056 0.509939 1.01012
94 1 0.913946 0.581879 0.00193974
815 1 0.923259 0.50961 0.911413
796 1 0.000571655 0.59599 0.921255
816 1 0.837094 0.579949 0.922566
839 1 0.917214 0.66152 0.918707
125 1 0.167519 0.825695 1.00321
98 1 0.0784631 0.760176 -0.00256359
824 1 0.16237 0.746257 0.924695
820 1 -0.00608428 0.745188 0.915662
121 1 -0.00331376 0.839208 -0.0038169
129 1 0.333954 0.82849 -0.00191164
821 1 0.172671 0.671585 0.839975
847 1 0.246402 0.842217 0.921943
828 1 0.319431 0.739798 0.929395
849 1 0.320735 0.82292 0.84303
106 1 0.40331 0.744968 0.99887
826 1 0.420746 0.756166 0.83559
851 1 0.421627 0.82889 0.92858
109 1 0.506198 0.669832 0.00690234
110 1 0.604983 0.751172 0.027251
853 1 0.509516 0.816849 0.839649
830 1 0.586595 0.739469 0.80788
832 1 0.496586 0.750901 0.932304
836 1 0.669876 0.741431 0.91878
114 1 0.740087 0.752787 -0.00365532
117 1 0.829651 0.664732 0.996635
141 1 0.849925 0.842098 0.00265307
118 1 0.91611 0.752847 0.00227222
840 1 0.838218 0.748026 0.91752
863 1 0.916235 0.824052 0.921383
5 1 0.162366 0.0118702 -0.00470337
843 1 0.0983466 0.842805 0.922073
842 1 0.0791108 0.920815 0.836829
723 1 0.0910389 0.0197368 0.924382
848 1 0.150715 0.933829 0.910063
844 1 0.0102137 0.933467 0.922659
845 1 0.16276 0.829894 0.83426
846 1 0.2284 0.913001 0.833608
852 1 0.335162 0.916554 0.908747
130 1 0.414493 0.920362 0.998207
850 1 0.421973 0.920989 0.835189
731 1 0.413707 -0.00550212 0.918756
134 1 0.587436 0.908085 0.0148011
855 1 0.586142 0.822741 0.91842
856 1 0.499321 0.914462 0.912926
735 1 0.579255 1.00354 0.921673
17 1 0.659344 0.987282 1.00101
137 1 0.674987 0.835214 1.00356
859 1 0.750918 0.825822 0.904086
739 1 0.754985 1.00043 0.933895
860 1 0.663393 0.896162 0.915621
864 1 0.827116 0.918043 0.92247
142 1 0.92815 0.918015 0.995039
21 1 0.84232 0.992029 -0.00158013
743 1 0.927399 0.00487484 0.917822
