ITEM: TIMESTEP
4500
ITEM: NUMBER OF ATOMS
864
ITEM: BOX BOUNDS pp pp pp
0.0000000000000000e+00 3.1559999999999999e+01
0.0000000000000000e+00 3.1559999999999999e+01
0.0000000000000000e+00 3.1559999999999999e+01
ITEM: ATOMS id type xs ys zs
4 1 0.0174048 0.0827642 0.0994001
74 1 0.0985611 0.0745067 0.167525
6 1 0.255269 0.085795 0.00469801
214 1 0.910023 0.411439 0.333669
8 1 0.175114 0.0736135 0.0940816
78 1 0.261215 0.0815246 0.168722
12 1 0.331672 0.0811768 0.0835034
105 1 0.348933 0.170256 0.177253
159 1 0.589031 0.00565665 0.408368
82 1 0.41736 0.0811997 0.168416
16 1 0.498114 0.0774099 0.0872497
35 1 0.408007 0.171627 0.0869635
521 1 0.663879 0.495727 0.173305
261 1 0.824454 0.17325 0.49695
443 1 0.413815 0.494723 0.0823892
39 1 0.581437 0.157043 0.0869488
20 1 0.666609 0.0877571 0.0843334
657 1 0.354986 0.491405 0.48862
587 1 0.440143 0.49943 0.411555
43 1 0.739394 0.18289 0.0769782
18 1 0.760162 0.0972848 0.00926694
155 1 0.410288 0.00238275 0.421479
37 1 0.504767 0.166782 0.0143709
24 1 0.840111 0.102907 0.0812398
26 1 0.0831995 0.246946 0.0107524
246 1 0.258888 0.256348 0.492107
27 1 0.0872956 0.165118 0.0979506
98 1 0.0828276 0.251202 0.167098
101 1 0.171442 0.164954 0.161177
32 1 0.168625 0.264115 0.0957158
28 1 0.00135858 0.249281 0.0824682
51 1 0.0688644 0.336021 0.077138
31 1 0.262062 0.167605 0.0924307
36 1 0.338101 0.261883 0.093087
129 1 0.332464 0.330036 0.177502
59 1 0.421922 0.345365 0.08934
106 1 0.428267 0.251829 0.172469
216 1 0.820989 0.404443 0.424693
455 1 0.914274 0.483782 0.0786363
40 1 0.514495 0.247942 0.086074
63 1 0.583645 0.335875 0.0741532
83 1 0.408822 0.00342459 0.25916
44 1 0.662303 0.255989 0.0775493
67 1 0.741061 0.331694 0.0747927
38 1 0.590841 0.226123 0.00342398
58 1 0.421711 0.400351 0.00137629
47 1 0.916041 0.173888 0.0915103
121 1 0.00935084 0.34043 0.174226
48 1 0.822814 0.240582 0.0876078
71 1 0.925339 0.337918 0.092259
258 1 0.746498 0.245362 0.497072
122 1 0.0855104 0.411597 0.169732
9 1 0.332996 0.00219554 0.00394788
34 1 0.423248 0.261628 0.00729561
125 1 0.161829 0.338656 0.166321
55 1 0.249452 0.338508 0.0834371
56 1 0.157817 0.426957 0.0826546
208 1 0.502022 0.410751 0.405994
10 1 0.415249 0.0877045 0.0194119
60 1 0.324798 0.420119 0.0697186
64 1 0.495991 0.418833 0.0902092
134 1 0.587972 0.404941 0.172184
57 1 0.333911 0.334476 0.00504786
68 1 0.663179 0.419099 0.0601504
72 1 0.833778 0.411334 0.0808363
595 1 0.750038 0.486008 0.415359
505 1 0.0193626 0.489584 0.160489
204 1 0.341681 0.413912 0.405647
52 1 0.0102088 0.427784 0.0694948
523 1 0.743896 0.484058 0.243758
278 1 0.59915 0.411565 0.495052
262 1 0.924131 0.248068 0.49851
76 1 0.00597077 0.0744844 0.251425
80 1 0.172053 0.0829073 0.247216
266 1 0.100476 0.410946 0.481223
173 1 0.155506 0.158341 0.340546
84 1 0.332368 0.0856254 0.2454
177 1 0.337278 0.16529 0.332545
103 1 0.251771 0.167983 0.247901
75 1 0.0901791 0.00568888 0.2417
91 1 0.750152 0.00338756 0.247152
107 1 0.421943 0.1507 0.255203
154 1 0.418355 0.0865944 0.34287
109 1 0.50949 0.171701 0.172489
88 1 0.503843 0.0888128 0.23463
86 1 0.592205 0.0852064 0.172461
181 1 0.511894 0.174753 0.337136
111 1 0.582002 0.165671 0.254345
90 1 0.758769 0.0950774 0.177781
113 1 0.667098 0.163217 0.180607
92 1 0.673946 0.0805396 0.254264
185 1 0.659392 0.167329 0.333787
115 1 0.762694 0.164772 0.253573
162 1 0.750586 0.0831789 0.332857
22 1 0.903296 0.0761795 0.00538309
94 1 0.919304 0.0735318 0.157925
147 1 0.0837366 0.00202594 0.413755
96 1 0.847277 0.0743302 0.252228
97 1 0.00883686 0.163478 0.177156
99 1 0.0902571 0.16162 0.254058
100 1 0.0227261 0.239881 0.253471
104 1 0.162337 0.244202 0.245401
170 1 0.0886204 0.248768 0.334531
102 1 0.255815 0.243601 0.16962
127 1 0.234933 0.335394 0.247424
174 1 0.236628 0.238038 0.33151
197 1 0.16987 0.326647 0.326115
108 1 0.330393 0.240118 0.256529
178 1 0.423357 0.262169 0.327295
112 1 0.498654 0.24613 0.251607
131 1 0.412648 0.325247 0.246268
110 1 0.588523 0.246908 0.168368
182 1 0.580568 0.250835 0.337807
205 1 0.503 0.326052 0.340968
135 1 0.577619 0.333392 0.26492
117 1 0.840429 0.166244 0.167223
114 1 0.741336 0.240211 0.167797
116 1 0.655464 0.247136 0.250481
119 1 0.921507 0.156074 0.236394
193 1 0.00109244 0.323799 0.327428
118 1 0.935819 0.242133 0.178628
120 1 0.844122 0.263367 0.231544
143 1 0.919564 0.339889 0.232584
123 1 0.0881145 0.326297 0.255171
194 1 0.0972463 0.409751 0.333464
19 1 0.747153 0.0058897 0.0933071
126 1 0.251454 0.434381 0.166729
226 1 0.4077 0.0886251 0.495425
201 1 0.330606 0.334104 0.330055
128 1 0.161445 0.436279 0.249225
130 1 0.409968 0.429147 0.165253
132 1 0.328946 0.415506 0.252435
202 1 0.436398 0.425867 0.316066
25 1 0.00361556 0.15022 0.00698482
45 1 0.834925 0.16928 0.00135282
133 1 0.502349 0.328488 0.1486
136 1 0.515634 0.419868 0.250054
61 1 0.506579 0.33556 0.00380783
89 1 0.663376 0.00979342 0.165258
589 1 0.51019 0.498231 0.330535
137 1 0.67052 0.317908 0.158427
140 1 0.668989 0.39171 0.24736
138 1 0.740997 0.425518 0.149373
139 1 0.752861 0.326899 0.246521
141 1 0.828848 0.329033 0.14977
198 1 0.252661 0.417492 0.322519
142 1 0.928054 0.418793 0.165678
124 1 0.0046901 0.413104 0.261116
144 1 0.831033 0.418339 0.237947
213 1 0.844548 0.329662 0.339699
146 1 0.090934 0.073895 0.330504
169 1 0.0109152 0.154127 0.326175
148 1 0.988312 0.093052 0.4225
597 1 0.830815 0.477491 0.343378
282 1 0.742415 0.409428 0.493185
29 1 0.185483 0.165978 0.0143266
150 1 0.254206 0.0875125 0.320986
152 1 0.176014 0.0769324 0.409771
156 1 0.329363 0.0691049 0.410462
270 1 0.265091 0.416537 0.486296
30 1 0.255942 0.246654 0.0167874
160 1 0.501727 0.0875059 0.418575
79 1 0.254954 0.00388521 0.260058
179 1 0.42162 0.175205 0.414955
157 1 0.497479 0.0103067 0.310478
519 1 0.588739 0.497642 0.256441
257 1 0.672292 0.163491 0.497031
158 1 0.583134 0.0721858 0.319267
164 1 0.662085 0.0791626 0.420393
183 1 0.589732 0.163614 0.418876
187 1 0.748273 0.173232 0.416966
447 1 0.581488 0.49095 0.0830985
46 1 0.916867 0.251741 0.00292875
189 1 0.841678 0.158146 0.321337
166 1 0.926764 0.0776453 0.330993
168 1 0.81632 0.0822967 0.425163
191 1 0.92646 0.175949 0.408661
233 1 0.66037 0.00842081 0.49674
171 1 0.0836651 0.156871 0.422186
167 1 0.909413 0.00517118 0.426219
2 1 0.095222 0.0774545 0.0117641
175 1 0.251776 0.157396 0.413883
176 1 0.16046 0.234066 0.427648
199 1 0.248078 0.321698 0.418058
591 1 0.584981 0.490657 0.414119
206 1 0.589898 0.423031 0.328225
180 1 0.343664 0.257226 0.403929
184 1 0.507611 0.242754 0.427696
203 1 0.423684 0.326697 0.430737
249 1 0.327722 0.160487 0.496841
265 1 0.0107767 0.327645 0.496485
517 1 0.502273 0.497189 0.165376
3 1 0.0835194 0.00351813 0.0887417
188 1 0.660197 0.24275 0.420587
207 1 0.594888 0.339119 0.414019
210 1 0.748434 0.3985 0.329347
209 1 0.664461 0.327733 0.330769
186 1 0.751404 0.258635 0.331779
211 1 0.735563 0.330305 0.421759
192 1 0.8314 0.242217 0.415251
190 1 0.919791 0.240249 0.314125
212 1 0.665105 0.421407 0.400071
172 1 0.0144378 0.240117 0.419261
215 1 0.913802 0.328524 0.422106
200 1 0.18557 0.417187 0.406764
145 1 0.994001 0.00463942 0.35047
195 1 0.0797714 0.322598 0.412597
196 1 0.9931 0.41303 0.422645
273 1 0.344369 0.350753 0.499853
585 1 0.334275 0.499823 0.32921
290 1 0.087202 0.081196 0.662751
220 1 0.0146157 0.101464 0.587923
224 1 0.173828 0.092665 0.597673
228 1 0.333444 0.0828256 0.57119
247 1 0.272774 0.167818 0.590018
294 1 0.255346 0.0934068 0.674278
805 1 0.490846 0.491895 0.831846
813 1 0.817765 0.492355 0.843119
54 1 0.236747 0.431202 0.993637
232 1 0.48137 0.0798654 0.583092
236 1 0.656708 0.0652097 0.594874
302 1 0.57937 0.0889166 0.665471
255 1 0.568964 0.162943 0.592126
259 1 0.758282 0.16898 0.581894
329 1 0.667447 0.165904 0.665782
219 1 0.0771233 0.00122547 0.598209
62 1 0.573907 0.411374 0.99901
274 1 0.433038 0.414746 0.50051
240 1 0.825337 0.0700425 0.58357
263 1 0.918419 0.16878 0.583496
310 1 0.904583 0.0711372 0.670982
815 1 0.902526 0.497543 0.912781
313 1 0.999646 0.167343 0.670866
243 1 0.102222 0.174258 0.600347
267 1 0.0867904 0.322093 0.579514
244 1 0.991532 0.252188 0.593009
317 1 0.180251 0.179904 0.674676
235 1 0.747818 0.00340474 0.570627
248 1 0.177288 0.26299 0.576299
271 1 0.257544 0.34501 0.576619
318 1 0.264234 0.261633 0.665096
251 1 0.410803 0.166647 0.580916
252 1 0.323594 0.260383 0.565123
275 1 0.437313 0.326771 0.580379
256 1 0.50143 0.236064 0.575445
279 1 0.584654 0.317967 0.59917
326 1 0.589618 0.248721 0.676189
281 1 0.679729 0.319863 0.509347
260 1 0.662919 0.251336 0.592838
283 1 0.748009 0.334475 0.586475
330 1 0.756788 0.252418 0.667839
353 1 0.683954 0.331811 0.664619
264 1 0.833115 0.253363 0.577509
357 1 0.836321 0.331817 0.668166
334 1 0.920678 0.24167 0.66357
234 1 0.755864 0.0880395 0.505463
741 1 0.824116 0.497265 0.660912
268 1 0.999701 0.402221 0.570154
338 1 0.0861584 0.406709 0.670398
253 1 0.49054 0.156601 0.502682
655 1 0.265004 0.494713 0.570398
341 1 0.176575 0.334185 0.655807
272 1 0.169566 0.422853 0.575664
276 1 0.359127 0.424326 0.587276
218 1 0.0962512 0.09547 0.508692
346 1 0.424084 0.415914 0.67326
280 1 0.506105 0.428924 0.592654
737 1 0.669375 0.488609 0.686915
284 1 0.664668 0.414094 0.601777
350 1 0.590308 0.417931 0.684269
69 1 0.837546 0.320929 0.993754
723 1 0.0950802 0.479184 0.756989
354 1 0.755658 0.416176 0.662658
288 1 0.829271 0.427395 0.570664
369 1 0.325776 0.00197261 0.836214
729 1 0.335651 0.498711 0.668508
245 1 0.188928 0.165481 0.50908
287 1 0.92078 0.328458 0.573907
297 1 0.321241 0.00924811 0.675194
801 1 0.337256 0.49655 0.848558
385 1 0.00715547 0.165253 0.807305
296 1 0.18996 0.0969492 0.753177
292 1 0.987568 0.0657031 0.760889
42 1 0.755236 0.251203 0.990699
300 1 0.329554 0.0873895 0.763275
319 1 0.253895 0.183256 0.753133
663 1 0.595677 0.496717 0.58884
366 1 0.258678 0.0911282 0.852966
66 1 0.7527 0.409845 0.995209
298 1 0.418893 0.0793058 0.679704
304 1 0.501404 0.0849611 0.749838
323 1 0.413343 0.163234 0.746011
370 1 0.405753 0.0752062 0.830273
727 1 0.255037 0.499381 0.742257
13 1 0.500177 0.0206652 0.993002
308 1 0.670255 0.0891602 0.746558
327 1 0.582527 0.161952 0.742714
306 1 0.74932 0.08923 0.655923
333 1 0.843317 0.172482 0.661004
250 1 0.424877 0.249889 0.509692
312 1 0.834574 0.0736939 0.748413
335 1 0.919635 0.152038 0.74486
405 1 0.828744 0.147591 0.836919
286 1 0.910483 0.426935 0.506077
375 1 0.578539 0.0164634 0.91196
337 1 0.995513 0.336412 0.657608
315 1 0.0854816 0.164577 0.732684
314 1 0.0850859 0.256919 0.680559
320 1 0.176947 0.267879 0.74053
316 1 0.996035 0.250251 0.739381
339 1 0.0837944 0.338376 0.750562
389 1 0.177721 0.182883 0.824556
321 1 0.337191 0.157599 0.66892
324 1 0.3442 0.257424 0.739364
343 1 0.262693 0.342115 0.74607
393 1 0.33478 0.178168 0.831568
322 1 0.422143 0.250264 0.659711
349 1 0.505386 0.344671 0.666607
394 1 0.419737 0.264039 0.827506
325 1 0.487154 0.167365 0.673654
328 1 0.492926 0.252948 0.739798
332 1 0.674449 0.251136 0.744768
351 1 0.580688 0.331609 0.752695
331 1 0.762455 0.161029 0.749486
355 1 0.758673 0.325832 0.745504
336 1 0.850194 0.241581 0.768129
359 1 0.925133 0.336327 0.748842
429 1 0.849607 0.322055 0.822939
406 1 0.923482 0.249443 0.840887
409 1 0.00205791 0.328586 0.832967
410 1 0.0705365 0.416848 0.839989
295 1 0.249518 0.0144221 0.757371
344 1 0.181652 0.409768 0.746494
342 1 0.254076 0.411219 0.661069
414 1 0.267723 0.409068 0.842513
348 1 0.331602 0.424834 0.744689
345 1 0.34752 0.336389 0.6503
347 1 0.418619 0.34469 0.749302
418 1 0.413338 0.413155 0.839219
417 1 0.338988 0.329514 0.826254
735 1 0.581507 0.498843 0.765499
352 1 0.504834 0.411103 0.764568
422 1 0.590589 0.409821 0.845907
739 1 0.766426 0.484052 0.756471
426 1 0.75147 0.415005 0.835804
356 1 0.6745 0.406646 0.756945
360 1 0.83661 0.411626 0.751933
358 1 0.90367 0.415177 0.655486
363 1 0.0808251 0.0227916 0.91312
340 1 0.997078 0.418935 0.741071
50 1 0.0844847 0.418764 0.987399
362 1 0.08437 0.0894148 0.829667
371 1 0.412055 0.00725663 0.924998
254 1 0.599726 0.245933 0.506202
368 1 0.171786 0.101195 0.918016
372 1 0.338414 0.0813829 0.930963
367 1 0.229564 0.0158735 0.928196
293 1 0.185425 0.0115693 0.670008
222 1 0.24203 0.0657624 0.50868
651 1 0.077236 0.492532 0.58456
430 1 0.919914 0.418503 0.839313
397 1 0.504959 0.173771 0.829654
376 1 0.498822 0.0872276 0.911618
374 1 0.579914 0.0873975 0.82742
399 1 0.569047 0.16974 0.917903
380 1 0.674698 0.0949488 0.901433
803 1 0.422949 0.490658 0.924764
242 1 0.08603 0.243537 0.508399
378 1 0.752223 0.0798264 0.816216
401 1 0.665395 0.166248 0.815322
384 1 0.817716 0.0666329 0.912049
403 1 0.74659 0.168975 0.905157
238 1 0.908405 0.0911324 0.507069
364 1 0.0116918 0.0980221 0.916164
65 1 0.671063 0.322069 0.993814
382 1 0.924828 0.0850464 0.85023
386 1 0.0862178 0.260673 0.817758
387 1 0.0877572 0.175321 0.928983
413 1 0.160549 0.336812 0.829355
437 1 0.158645 0.49915 0.975969
388 1 0.995554 0.250236 0.929139
383 1 0.908572 0.00276732 0.926303
391 1 0.250961 0.171311 0.924904
70 1 0.921813 0.408781 0.998742
392 1 0.175444 0.25618 0.942695
390 1 0.250156 0.257738 0.830346
396 1 0.340398 0.268947 0.914419
415 1 0.247706 0.33336 0.929265
277 1 0.5139 0.332212 0.504501
395 1 0.427783 0.189917 0.924412
400 1 0.511013 0.250777 0.935899
398 1 0.589218 0.2431 0.814194
229 1 0.502972 0.000906429 0.51693
423 1 0.589983 0.339083 0.928052
41 1 0.676119 0.168102 0.99473
402 1 0.765205 0.235215 0.822313
425 1 0.666172 0.332819 0.837119
404 1 0.664402 0.251161 0.912392
427 1 0.753529 0.319372 0.906661
289 1 0.995667 0.00231038 0.672837
408 1 0.83816 0.232102 0.908139
407 1 0.914642 0.160953 0.927765
431 1 0.928606 0.343103 0.913055
49 1 0.00305526 0.333145 0.997096
811 1 0.758751 0.49062 0.924492
412 1 0.992179 0.423755 0.916403
411 1 0.0856924 0.31669 0.920796
269 1 0.170205 0.343434 0.504027
285 1 0.830698 0.327861 0.505255
416 1 0.153321 0.417301 0.903407
420 1 0.346968 0.414303 0.925182
421 1 0.51565 0.316579 0.838263
365 1 0.169477 0.0134897 0.834777
419 1 0.436948 0.325114 0.91839
424 1 0.497316 0.417965 0.912734
428 1 0.671805 0.411969 0.918784
291 1 0.0905232 0.0087649 0.750212
432 1 0.833649 0.399166 0.918232
373 1 0.497348 0.00741411 0.838863
33 1 0.337874 0.179264 0.991716
230 1 0.582114 0.0982053 0.501183
14 1 0.58952 0.0846478 0.994697
217 1 0.998268 0.0189344 0.504957
809 1 0.67163 0.495626 0.841428
241 1 0.99716 0.157752 0.501967
733 1 0.496946 0.494623 0.686398
53 1 0.160768 0.350813 0.99871
665 1 0.671132 0.489732 0.501114
449 1 0.669034 0.498898 0.984421
301 1 0.508704 0.0128878 0.676694
649 1 0.995748 0.499881 0.501341
440 1 0.163901 0.568704 0.0576526
459 1 0.0729038 0.659554 0.0754187
11 1 0.415301 0.99868 0.0808519
510 1 0.255939 0.573136 0.164181
678 1 0.250154 0.752282 0.490941
462 1 0.242426 0.753049 0.00318587
444 1 0.342923 0.589929 0.078373
513 1 0.333699 0.503118 0.180099
628 1 0.00912505 0.918499 0.421605
448 1 0.495379 0.58071 0.0928057
452 1 0.663308 0.570079 0.0880794
451 1 0.747813 0.500106 0.0660048
518 1 0.595548 0.584963 0.170832
497 1 0.664005 0.826235 0.00131446
456 1 0.83676 0.587367 0.0842299
522 1 0.741173 0.589091 0.151289
436 1 0.988954 0.574852 0.0792063
479 1 0.904801 0.66821 0.0658271
697 1 0.996759 0.83325 0.499166
225 1 0.327802 0.995477 0.489004
533 1 0.150345 0.665416 0.15592
464 1 0.147771 0.744934 0.0755112
483 1 0.072087 0.82748 0.0781258
669 1 0.815926 0.514988 0.495516
463 1 0.254251 0.662422 0.0800787
534 1 0.250972 0.7571 0.160664
507 1 0.0830652 0.502627 0.25418
467 1 0.426791 0.659002 0.0753218
468 1 0.333552 0.756347 0.0695079
537 1 0.350007 0.667563 0.147275
541 1 0.509502 0.660906 0.172268
538 1 0.421059 0.744679 0.164695
471 1 0.563017 0.660115 0.067318
472 1 0.495068 0.756355 0.0868336
476 1 0.658128 0.750204 0.079838
545 1 0.661493 0.662973 0.160684
542 1 0.580006 0.766292 0.162768
475 1 0.763695 0.671306 0.0839326
546 1 0.738603 0.753478 0.167348
499 1 0.754616 0.840655 0.0900334
480 1 0.822357 0.759709 0.105758
648 1 0.844201 0.90389 0.407583
549 1 0.842284 0.657276 0.166935
460 1 0.995277 0.751521 0.0782018
550 1 0.913697 0.737219 0.162759
553 1 0.997032 0.828627 0.16778
573 1 0.84667 0.831766 0.177156
641 1 0.654682 0.834377 0.338731
77 1 0.170903 0.994676 0.163224
681 1 0.353263 0.661722 0.494867
484 1 0.00360022 0.912559 0.0772524
554 1 0.0804818 0.913163 0.164827
525 1 0.828174 0.500339 0.164042
487 1 0.247541 0.829724 0.0838288
488 1 0.167191 0.904119 0.0853464
492 1 0.326039 0.911178 0.0787262
7 1 0.269734 0.997687 0.100107
558 1 0.243184 0.910308 0.170576
491 1 0.414659 0.830319 0.07826
562 1 0.414223 0.909666 0.155362
496 1 0.499765 0.928446 0.0605251
151 1 0.244836 0.986941 0.418804
561 1 0.341463 0.821156 0.165516
454 1 0.915425 0.581653 0.00241903
495 1 0.584499 0.848951 0.0785828
73 1 0.987409 0.992631 0.161681
500 1 0.677662 0.919441 0.0919233
565 1 0.496719 0.830131 0.16884
566 1 0.586348 0.906171 0.169569
502 1 0.919128 0.917535 0.0107959
504 1 0.837675 0.911502 0.10035
569 1 0.667572 0.838077 0.167866
693 1 0.836809 0.659656 0.490915
503 1 0.902999 0.828386 0.0795156
574 1 0.925166 0.906503 0.161725
474 1 0.747859 0.753029 0.00541997
506 1 0.0594113 0.597753 0.163348
529 1 0.973227 0.66057 0.141949
578 1 0.084275 0.592664 0.335484
527 1 0.911533 0.502563 0.252763
512 1 0.164604 0.586754 0.243847
81 1 0.340203 0.988487 0.177436
514 1 0.420859 0.588963 0.181154
643 1 0.735967 0.849137 0.423937
516 1 0.334188 0.582072 0.255756
539 1 0.414087 0.670594 0.249128
586 1 0.432442 0.577136 0.33283
520 1 0.506808 0.570928 0.250133
543 1 0.592685 0.666502 0.253964
524 1 0.675894 0.583725 0.244384
528 1 0.816385 0.572615 0.24791
526 1 0.918205 0.566998 0.157468
508 1 0.00439366 0.56957 0.243244
470 1 0.562916 0.756768 0.00952147
689 1 0.66926 0.677721 0.499887
531 1 0.0907865 0.662335 0.241088
530 1 0.0684094 0.746684 0.160932
532 1 0.00321567 0.737057 0.263593
602 1 0.0908664 0.735451 0.330656
557 1 0.159081 0.837438 0.172197
605 1 0.17171 0.675069 0.337386
535 1 0.260282 0.653151 0.236205
536 1 0.180656 0.746968 0.244037
606 1 0.25708 0.756242 0.330245
540 1 0.334969 0.73779 0.248587
544 1 0.505896 0.749884 0.255415
610 1 0.428334 0.760864 0.338882
617 1 0.664822 0.659736 0.33482
613 1 0.508431 0.666189 0.328709
614 1 0.575106 0.749402 0.337267
547 1 0.741802 0.672572 0.255983
548 1 0.656228 0.75465 0.25732
618 1 0.747129 0.757072 0.349298
645 1 0.823305 0.82306 0.343132
551 1 0.922734 0.650707 0.242697
552 1 0.837237 0.743206 0.251871
575 1 0.912746 0.833576 0.261664
458 1 0.0699099 0.741574 0.00353798
555 1 0.070978 0.822802 0.246629
626 1 0.0773817 0.921134 0.32408
646 1 0.917486 0.91524 0.325538
559 1 0.255735 0.832178 0.243637
633 1 0.336736 0.821677 0.339049
560 1 0.168529 0.911831 0.242392
564 1 0.338673 0.9058 0.236817
563 1 0.419864 0.832655 0.254176
568 1 0.50026 0.915351 0.244537
634 1 0.426034 0.919049 0.335571
637 1 0.501537 0.834814 0.334215
446 1 0.591639 0.576139 0.0151315
567 1 0.581244 0.842926 0.252531
638 1 0.57093 0.918824 0.335419
570 1 0.756663 0.916376 0.17557
571 1 0.739811 0.828228 0.252269
572 1 0.672115 0.923412 0.240648
21 1 0.826187 0.995119 0.0149288
556 1 5.31985e-06 0.916339 0.254126
576 1 0.832745 0.912196 0.244923
677 1 0.156361 0.66747 0.49431
603 1 0.0694378 0.663976 0.4305
690 1 0.755269 0.738482 0.483394
582 1 0.250217 0.588713 0.335362
584 1 0.165525 0.591468 0.40847
607 1 0.264861 0.667757 0.421129
149 1 0.16789 0.97953 0.331664
583 1 0.23953 0.503387 0.419562
85 1 0.47973 0.98832 0.166901
658 1 0.424812 0.573087 0.489317
609 1 0.344282 0.674893 0.339073
588 1 0.335109 0.587087 0.403055
611 1 0.433786 0.664473 0.409131
473 1 0.673407 0.66783 0.0128908
644 1 0.655952 0.921106 0.431621
592 1 0.518616 0.583314 0.418119
590 1 0.586727 0.579753 0.329857
615 1 0.583674 0.684727 0.428561
438 1 0.249559 0.581541 0.00564968
596 1 0.659696 0.585436 0.425082
594 1 0.754054 0.575041 0.339506
621 1 0.8237 0.660277 0.324342
600 1 0.81839 0.584411 0.414916
619 1 0.744803 0.660678 0.405496
601 1 0.991705 0.654937 0.331331
598 1 0.911353 0.571 0.338254
580 1 0.983975 0.587647 0.414357
153 1 0.330585 0.982799 0.331338
623 1 0.910638 0.652724 0.395738
627 1 0.0685048 0.816248 0.413251
604 1 0.989632 0.732998 0.418513
494 1 0.590076 0.935058 0.00592418
87 1 0.586263 0.995416 0.236693
608 1 0.165056 0.738592 0.419496
612 1 0.340736 0.744197 0.422295
163 1 0.744962 0.995382 0.413893
509 1 0.149476 0.524595 0.155269
635 1 0.423822 0.845051 0.417751
616 1 0.490429 0.760915 0.43322
639 1 0.563756 0.840815 0.42036
515 1 0.41168 0.505482 0.239937
620 1 0.670871 0.765156 0.424688
624 1 0.849248 0.747212 0.417914
622 1 0.914942 0.728519 0.325082
435 1 0.0783433 0.504973 0.0599261
647 1 0.921926 0.823696 0.397356
625 1 0.00013311 0.832833 0.340616
511 1 0.251908 0.510559 0.255221
632 1 0.144647 0.912099 0.412952
702 1 0.23889 0.916821 0.493125
629 1 0.14829 0.826225 0.333282
630 1 0.246908 0.898067 0.326905
631 1 0.236531 0.837378 0.418686
706 1 0.395916 0.911175 0.495604
439 1 0.250011 0.504451 0.0697368
23 1 0.9133 0.99288 0.0788215
636 1 0.331942 0.916902 0.414205
640 1 0.505776 0.928967 0.433337
93 1 0.842499 0.996092 0.169302
486 1 0.238601 0.913796 0.0101053
237 1 0.832207 0.998227 0.499366
5 1 0.169848 0.989727 0.0145877
642 1 0.74845 0.925599 0.335648
1 1 0.00981873 0.9978 0.00821753
453 1 0.826568 0.506786 0.00521423
661 1 0.516525 0.500656 0.498321
577 1 0.00791733 0.501956 0.345479
698 1 0.0745807 0.929572 0.498008
465 1 0.323642 0.669727 0.00391429
466 1 0.423001 0.742557 0.00281567
694 1 0.920653 0.738841 0.499895
593 1 0.675929 0.512803 0.335955
673 1 0.995085 0.666205 0.497401
685 1 0.496458 0.662335 0.49079
165 1 0.839037 0.989014 0.327225
599 1 0.901175 0.502485 0.428204
161 1 0.658394 0.992464 0.331206
701 1 0.164203 0.830474 0.49628
15 1 0.58242 0.996254 0.0828466
485 1 0.153884 0.829177 0.00374267
579 1 0.0796181 0.502107 0.426394
581 1 0.178495 0.510169 0.334141
17 1 0.678289 0.996683 0.0157104
442 1 0.424795 0.582685 0.00129914
95 1 0.923454 0.999182 0.255494
477 1 0.826742 0.671525 9.69245e-05
722 1 0.0872261 0.576859 0.668083
656 1 0.184905 0.596389 0.579037
675 1 0.0881885 0.669143 0.583732
749 1 0.159855 0.671859 0.664858
679 1 0.23889 0.680854 0.564952
671 1 0.92448 0.505739 0.594591
307 1 0.749077 0.982882 0.757405
726 1 0.248966 0.589488 0.662726
753 1 0.326166 0.673272 0.680349
660 1 0.343572 0.573946 0.597116
730 1 0.420411 0.581832 0.675076
683 1 0.424851 0.656022 0.583423
664 1 0.513969 0.573767 0.577706
668 1 0.655231 0.581028 0.585655
807 1 0.584732 0.500052 0.914795
738 1 0.748016 0.591484 0.657394
379 1 0.753005 0.985177 0.92694
501 1 0.836066 0.840637 0.998335
305 1 0.661859 0.996365 0.666496
652 1 0.00362204 0.589075 0.581096
672 1 0.837681 0.573542 0.591188
742 1 0.914112 0.595223 0.681324
695 1 0.906153 0.666451 0.581933
433 1 0.987053 0.51087 0.991794
746 1 0.0771622 0.756946 0.665502
769 1 0.99506 0.840794 0.667199
699 1 0.0750016 0.835406 0.594067
498 1 0.742322 0.911745 0.993421
680 1 0.167806 0.748712 0.580172
703 1 0.253074 0.82837 0.577468
773 1 0.165192 0.831251 0.670522
481 1 0.996375 0.829093 0.987811
684 1 0.338694 0.743101 0.586263
754 1 0.405002 0.741858 0.677584
707 1 0.408513 0.824924 0.611817
777 1 0.315626 0.82082 0.666238
688 1 0.474888 0.745864 0.597258
687 1 0.56516 0.67156 0.585726
692 1 0.654296 0.759466 0.577615
691 1 0.747877 0.671546 0.592127
762 1 0.743799 0.745744 0.664239
696 1 0.837892 0.74899 0.593475
653 1 0.17164 0.518071 0.509395
676 1 0.989655 0.752852 0.592475
719 1 0.917502 0.842155 0.596849
789 1 0.838498 0.825562 0.686056
650 1 0.077103 0.584744 0.508167
659 1 0.423134 0.510583 0.589984
700 1 0.0016297 0.914748 0.577458
721 1 0.00632433 0.500496 0.668651
770 1 0.0872389 0.912372 0.66917
445 1 0.507548 0.504631 0.996967
654 1 0.277121 0.586308 0.502997
704 1 0.16594 0.891424 0.58247
795 1 0.0758093 0.515374 0.900969
774 1 0.254194 0.91575 0.664676
381 1 0.835304 0.993664 0.836438
708 1 0.322751 0.92162 0.578974
712 1 0.479443 0.918542 0.582041
781 1 0.49037 0.836131 0.683721
785 1 0.652674 0.827888 0.67064
682 1 0.407978 0.762996 0.505796
711 1 0.563029 0.837918 0.586584
782 1 0.582475 0.924562 0.668632
716 1 0.659805 0.914683 0.589935
715 1 0.736362 0.830634 0.585124
797 1 0.172017 0.50342 0.839964
720 1 0.838544 0.906699 0.583507
710 1 0.585508 0.923074 0.511385
821 1 0.164203 0.670385 0.831782
728 1 0.176554 0.584983 0.752845
724 1 0.996729 0.582127 0.740007
482 1 0.079846 0.915744 0.99618
732 1 0.328256 0.577743 0.766384
751 1 0.247861 0.667341 0.750934
667 1 0.742323 0.501167 0.585058
705 1 0.32456 0.836848 0.50018
686 1 0.566272 0.757604 0.502487
802 1 0.416338 0.565949 0.838104
239 1 0.925956 0.997313 0.588985
755 1 0.419581 0.66109 0.759304
734 1 0.575283 0.566741 0.667328
757 1 0.486561 0.66204 0.676752
736 1 0.49827 0.583568 0.75111
806 1 0.581687 0.593921 0.83114
377 1 0.66423 0.99459 0.856013
761 1 0.648378 0.672344 0.650393
765 1 0.831107 0.662742 0.677636
740 1 0.663951 0.585841 0.734002
744 1 0.836168 0.587187 0.751729
299 1 0.406823 0.991236 0.745132
767 1 0.911535 0.66931 0.762519
814 1 0.903863 0.563363 0.822346
745 1 0.00237701 0.672386 0.658488
747 1 0.0758522 0.656673 0.736749
818 1 0.0828699 0.749298 0.844812
752 1 0.149361 0.732635 0.749927
845 1 0.15671 0.836012 0.82707
750 1 0.24683 0.739856 0.670899
775 1 0.232389 0.821277 0.753085
822 1 0.239448 0.748512 0.83424
756 1 0.329507 0.756567 0.752652
779 1 0.411552 0.847223 0.761738
849 1 0.311043 0.850145 0.836269
826 1 0.389272 0.755369 0.83315
759 1 0.583223 0.661769 0.747248
758 1 0.558906 0.757678 0.66499
760 1 0.492834 0.742573 0.765818
857 1 0.667087 0.834116 0.841444
829 1 0.501222 0.667687 0.837461
764 1 0.654025 0.752964 0.747028
763 1 0.740307 0.676286 0.741135
834 1 0.741239 0.749411 0.814601
787 1 0.745121 0.824859 0.749754
833 1 0.666114 0.669447 0.844465
766 1 0.909709 0.749862 0.676182
748 1 0.00309231 0.7486 0.746302
768 1 0.828433 0.744479 0.756809
309 1 0.818303 0.982535 0.655239
771 1 0.0767713 0.839847 0.745323
772 1 0.999389 0.912143 0.753938
776 1 0.167703 0.932614 0.742652
842 1 0.0648573 0.909229 0.837965
846 1 0.234172 0.914782 0.833921
780 1 0.314399 0.914918 0.756331
778 1 0.414067 0.923301 0.668597
850 1 0.414665 0.927973 0.841913
784 1 0.487561 0.92455 0.76102
793 1 0.000700326 0.504414 0.825605
783 1 0.580147 0.836325 0.743191
713 1 0.663928 0.84426 0.510664
714 1 0.761308 0.919019 0.507731
786 1 0.746643 0.892455 0.67489
788 1 0.669901 0.90964 0.75582
792 1 0.835434 0.900381 0.770151
861 1 0.82494 0.81404 0.836146
791 1 0.917239 0.824932 0.769247
790 1 0.89979 0.916285 0.683906
841 1 0.00403211 0.820251 0.836183
794 1 0.0897042 0.583565 0.825379
490 1 0.414721 0.923363 0.993099
800 1 0.172064 0.587887 0.911332
799 1 0.250867 0.506545 0.914663
798 1 0.248914 0.58365 0.838791
804 1 0.330511 0.597082 0.925749
227 1 0.397344 0.997256 0.579057
825 1 0.325387 0.667422 0.823439
863 1 0.911168 0.837616 0.901645
862 1 0.924856 0.914589 0.838965
808 1 0.502043 0.576967 0.909193
827 1 0.413148 0.666174 0.915184
450 1 0.753835 0.581816 0.993118
831 1 0.590934 0.668038 0.929378
812 1 0.669442 0.575494 0.904348
670 1 0.918073 0.578907 0.504919
469 1 0.497015 0.661715 0.984331
441 1 0.333428 0.504553 0.995013
810 1 0.745362 0.587493 0.828069
816 1 0.829694 0.576288 0.906888
835 1 0.763647 0.673092 0.922891
457 1 0.00163854 0.660137 0.998213
837 1 0.827069 0.668233 0.847342
817 1 0.00200255 0.649256 0.822678
796 1 0.989458 0.581373 0.920385
839 1 0.917477 0.656184 0.909842
820 1 0.990893 0.729973 0.908452
819 1 0.0782013 0.668455 0.908389
824 1 0.166262 0.745579 0.919783
361 1 0.00315024 0.996634 0.828996
709 1 0.489175 0.842853 0.508233
223 1 0.235561 0.984876 0.578926
823 1 0.245902 0.6693 0.917463
847 1 0.231775 0.838275 0.923042
221 1 0.161862 0.988718 0.501801
851 1 0.421801 0.841361 0.913249
828 1 0.332816 0.752557 0.929318
461 1 0.1658 0.669638 0.997708
853 1 0.496804 0.848511 0.841146
718 1 0.920225 0.914898 0.502412
830 1 0.583098 0.7499 0.839002
832 1 0.499715 0.759085 0.905186
836 1 0.682194 0.743262 0.921935
743 1 0.91964 0.501812 0.741533
434 1 0.087082 0.584904 0.987727
838 1 0.910135 0.745355 0.841004
840 1 0.834914 0.765277 0.92642
478 1 0.91265 0.745968 0.99369
848 1 0.14871 0.919458 0.910941
843 1 0.0822018 0.827128 0.920278
311 1 0.914287 0.996257 0.768731
731 1 0.407456 0.501827 0.753875
852 1 0.325369 0.930585 0.913971
493 1 0.49535 0.829478 0.993722
856 1 0.504524 0.936458 0.921578
717 1 0.852793 0.819624 0.515665
662 1 0.583685 0.597337 0.502881
854 1 0.584209 0.925061 0.828461
855 1 0.581824 0.837847 0.908322
864 1 0.846781 0.921791 0.928138
858 1 0.744259 0.909199 0.842957
860 1 0.659908 0.906358 0.922176
859 1 0.746214 0.83125 0.922284
674 1 0.0769041 0.756328 0.518302
844 1 0.00109436 0.929557 0.927901
489 1 0.32153 0.84713 0.985663
303 1 0.608773 0.99756 0.75709
725 1 0.175371 0.501736 0.661575
666 1 0.745203 0.607544 0.503409
231 1 0.572531 0.997522 0.595759
