ITEM: TIMESTEP
13250
ITEM: NUMBER OF ATOMS
864
ITEM: BOX BOUNDS pp pp pp
0.0000000000000000e+00 3.1559999999999999e+01
0.0000000000000000e+00 3.1559999999999999e+01
0.0000000000000000e+00 3.1559999999999999e+01
ITEM: ATOMS id type xs ys zs
27 1 0.0949845 0.172762 0.0971825
8 1 0.161853 0.087109 0.0993462
4 1 0.994642 0.0835807 0.0807895
2 1 0.0790697 0.0749515 0.00899865
29 1 0.166117 0.159389 0.0143731
30 1 0.243244 0.254466 0.0106895
57 1 0.336338 0.340319 0.012418
12 1 0.338234 0.0938389 0.0927801
33 1 0.319245 0.158342 0.00374823
11 1 0.408035 0.013227 0.081004
250 1 0.413661 0.260819 0.482904
16 1 0.507661 0.075351 0.0782093
35 1 0.426278 0.175775 0.10395
95 1 0.927012 0.00692112 0.261375
20 1 0.666363 0.0900744 0.0918813
39 1 0.5869 0.17158 0.0865177
14 1 0.59541 0.0948055 0.00548965
15 1 0.586675 0.00825138 0.095254
435 1 0.0866243 0.494162 0.0914054
517 1 0.507449 0.495233 0.176882
90 1 0.750851 0.102346 0.17604
43 1 0.756423 0.183196 0.0814492
17 1 0.652851 0.00280568 0.00660251
89 1 0.668028 0.0161376 0.179931
93 1 0.835027 0.00415801 0.156978
19 1 0.741425 0.0121653 0.0865528
24 1 0.823239 0.0889629 0.0840558
81 1 0.335524 0.0041754 0.180056
47 1 0.929078 0.174434 0.0811797
505 1 0.00481674 0.494322 0.171391
451 1 0.757893 0.496946 0.0736563
286 1 0.899536 0.430746 0.490399
51 1 0.0898746 0.337792 0.0817984
98 1 0.0979858 0.258489 0.177287
32 1 0.165144 0.25009 0.0851333
31 1 0.241085 0.166268 0.0925228
55 1 0.25059 0.338759 0.0940339
125 1 0.173734 0.333436 0.169855
36 1 0.337706 0.244689 0.0902728
40 1 0.494524 0.257179 0.0976657
44 1 0.66454 0.253682 0.0872946
63 1 0.573455 0.341036 0.0742523
439 1 0.267192 0.498735 0.0921181
114 1 0.749068 0.248469 0.154227
58 1 0.432643 0.431759 0.0122606
455 1 0.91439 0.496504 0.078056
28 1 0.00265512 0.263114 0.0885936
48 1 0.829402 0.271728 0.0809897
117 1 0.838636 0.183752 0.16875
46 1 0.916373 0.262664 0.0123434
52 1 0.991906 0.42142 0.0834503
122 1 0.0816996 0.411717 0.156599
121 1 0.000614716 0.338785 0.167643
50 1 0.0935053 0.420904 0.0109077
5 1 0.155025 0.00770715 0.00701629
56 1 0.173647 0.409921 0.0852155
126 1 0.25961 0.418505 0.168225
6 1 0.245813 0.0803473 0.0129028
59 1 0.400492 0.32766 0.0958885
60 1 0.346018 0.413796 0.0984592
159 1 0.584011 0.0056391 0.434927
64 1 0.489009 0.395355 0.0988685
53 1 0.167572 0.331923 0.00677929
68 1 0.667889 0.425035 0.0805164
67 1 0.742742 0.34652 0.0722921
72 1 0.826388 0.424961 0.0908061
137 1 0.664806 0.33151 0.169012
141 1 0.805401 0.336937 0.168056
269 1 0.16633 0.34198 0.491099
193 1 0.00630714 0.350209 0.329322
71 1 0.919191 0.335225 0.0857486
49 1 0.0116567 0.337386 0.00467223
153 1 0.319392 0.00337491 0.352659
62 1 0.594877 0.423247 0.00339052
74 1 0.0803619 0.0931515 0.167267
37 1 0.501482 0.173479 0.00702615
75 1 0.0799727 0.00732972 0.239201
265 1 0.96863 0.351139 0.497261
80 1 0.152686 0.0872453 0.254825
78 1 0.259929 0.0823193 0.185651
84 1 0.333843 0.0921383 0.279524
73 1 0.00426884 0.0174821 0.166303
82 1 0.404531 0.0866899 0.17918
249 1 0.325175 0.173664 0.499479
83 1 0.407567 0.00898022 0.255724
85 1 0.492665 0.0230538 0.164033
86 1 0.572431 0.103457 0.180512
88 1 0.495625 0.0797236 0.282203
92 1 0.659409 0.0896836 0.252851
87 1 0.580241 0.0119762 0.250248
96 1 0.837375 0.0904841 0.255593
162 1 0.731034 0.0833757 0.34004
69 1 0.830591 0.341342 0.00173809
94 1 0.918868 0.0964063 0.161303
237 1 0.826361 0.000709885 0.498141
76 1 0.998368 0.0956277 0.251773
77 1 0.163124 0.0007014 0.170505
101 1 0.165034 0.180199 0.180519
99 1 0.0824559 0.169874 0.251149
100 1 0.00251035 0.267013 0.254076
97 1 0.00650901 0.172777 0.157189
170 1 0.0826965 0.264165 0.354465
102 1 0.248447 0.25025 0.173539
103 1 0.242619 0.169674 0.26139
105 1 0.329901 0.162229 0.182838
104 1 0.149496 0.253511 0.263376
108 1 0.331025 0.247197 0.241977
106 1 0.420232 0.263262 0.174501
107 1 0.413235 0.167679 0.263321
131 1 0.426022 0.347013 0.247437
109 1 0.504762 0.184677 0.179217
133 1 0.516082 0.330214 0.187898
112 1 0.500677 0.256722 0.263667
110 1 0.591817 0.257214 0.174483
111 1 0.572759 0.175954 0.264982
113 1 0.667288 0.166995 0.165227
116 1 0.671333 0.248973 0.250167
115 1 0.74079 0.179645 0.256775
120 1 0.825368 0.251795 0.241146
118 1 0.906217 0.268163 0.166405
119 1 0.916306 0.184489 0.259749
169 1 0.00440381 0.180706 0.326507
190 1 0.926618 0.263605 0.337811
507 1 0.0871169 0.499357 0.248649
123 1 0.0841168 0.339968 0.245455
124 1 0.00134967 0.418392 0.241712
91 1 0.753226 0.0153563 0.257766
194 1 0.0852378 0.435251 0.334268
577 1 0.990468 0.498516 0.336565
511 1 0.250792 0.493363 0.240146
127 1 0.247064 0.324462 0.256743
128 1 0.168232 0.413302 0.236712
129 1 0.333172 0.341409 0.196632
132 1 0.346301 0.435755 0.259081
130 1 0.427475 0.423167 0.174576
202 1 0.41383 0.432745 0.351483
205 1 0.50596 0.353418 0.347765
134 1 0.58768 0.422885 0.151642
136 1 0.500977 0.419249 0.258487
135 1 0.586974 0.344591 0.268163
210 1 0.738673 0.407358 0.325999
140 1 0.666334 0.423218 0.246185
139 1 0.732705 0.334865 0.25424
138 1 0.74877 0.429361 0.158386
143 1 0.921523 0.340499 0.253288
214 1 0.911786 0.420074 0.325012
144 1 0.824587 0.412261 0.240572
142 1 0.914814 0.403225 0.168939
213 1 0.830132 0.336719 0.330086
147 1 0.0885831 0.0014272 0.426191
173 1 0.154425 0.181986 0.334526
45 1 0.845101 0.166083 0.01315
218 1 0.0770674 0.0852152 0.499538
146 1 0.0866035 0.096839 0.333226
152 1 0.158823 0.0833272 0.42363
145 1 0.0163694 0.0139812 0.336967
246 1 0.241228 0.254682 0.494355
196 1 0.997015 0.426205 0.415385
150 1 0.237284 0.0988851 0.347325
154 1 0.41155 0.0980736 0.350427
155 1 0.441447 0.0103145 0.423761
156 1 0.326442 0.0890805 0.42591
160 1 0.511117 0.0925431 0.423879
161 1 0.650053 0.00206869 0.345432
158 1 0.583443 0.0990469 0.351784
241 1 0.985971 0.180225 0.496364
165 1 0.834378 0.0168181 0.337157
164 1 0.669526 0.0790381 0.428789
65 1 0.662532 0.330911 0.00408789
168 1 0.8168 0.0853567 0.423944
238 1 0.908206 0.0736589 0.490359
34 1 0.418093 0.241973 0.013817
148 1 0.995607 0.0880621 0.417242
166 1 0.91187 0.0962107 0.340542
242 1 0.0702787 0.260385 0.49492
171 1 0.0918947 0.166056 0.416034
197 1 0.164994 0.343753 0.324558
21 1 0.838207 0.00254334 0.0174098
175 1 0.250268 0.1728 0.432476
176 1 0.166739 0.25456 0.415057
174 1 0.252972 0.261054 0.337339
177 1 0.325187 0.180587 0.349675
178 1 0.414109 0.269457 0.331515
179 1 0.415693 0.170476 0.432178
180 1 0.33288 0.261098 0.420871
184 1 0.509848 0.280935 0.427984
185 1 0.653833 0.18933 0.336101
181 1 0.491661 0.185444 0.351685
183 1 0.59162 0.181603 0.432528
182 1 0.579516 0.26119 0.353897
207 1 0.596871 0.350642 0.418884
188 1 0.661636 0.25675 0.420966
186 1 0.749394 0.25467 0.354397
187 1 0.728863 0.16203 0.428669
192 1 0.851348 0.270644 0.40916
209 1 0.668903 0.330504 0.345843
215 1 0.904704 0.35688 0.407427
172 1 0.991502 0.267531 0.411735
189 1 0.816869 0.173724 0.330593
191 1 0.895081 0.172883 0.42439
579 1 0.0860893 0.499823 0.425592
195 1 0.0746959 0.351332 0.415658
200 1 0.188214 0.416735 0.411614
441 1 0.346626 0.494608 0.00951237
198 1 0.256512 0.424218 0.325727
199 1 0.25619 0.341759 0.42665
204 1 0.320967 0.431808 0.413298
10 1 0.403787 0.101153 0.0101496
201 1 0.341123 0.348452 0.334163
203 1 0.402477 0.34817 0.429193
591 1 0.585684 0.48625 0.430807
208 1 0.507258 0.420776 0.443907
206 1 0.588986 0.433137 0.336397
216 1 0.828268 0.435612 0.398536
212 1 0.675476 0.425212 0.41334
211 1 0.753217 0.356631 0.424654
163 1 0.744493 0.0045502 0.419605
54 1 0.247679 0.418617 0.00606272
25 1 0.0173301 0.161782 0.0159507
509 1 0.168038 0.487767 0.161244
453 1 0.831018 0.499404 0.00285145
258 1 0.745483 0.263713 0.498755
649 1 0.995634 0.498475 0.491187
224 1 0.168908 0.0847978 0.592178
38 1 0.577978 0.255973 0.999756
221 1 0.162179 0.0176032 0.507376
307 1 0.746046 0.0090197 0.751226
219 1 0.0729858 0.0163885 0.590878
426 1 0.75321 0.407167 0.832353
289 1 0.00565606 0.0128606 0.675677
223 1 0.25725 0.0224249 0.580817
247 1 0.244064 0.182327 0.57518
266 1 0.0838044 0.427814 0.502868
731 1 0.415597 0.484085 0.75396
228 1 0.321562 0.100091 0.583379
305 1 0.667572 0.00932516 0.677294
226 1 0.42448 0.0963055 0.503982
232 1 0.494104 0.0719197 0.604608
236 1 0.659988 0.0862121 0.59024
230 1 0.594883 0.0999447 0.516284
233 1 0.65877 0.010242 0.524744
229 1 0.50659 0.00535148 0.507489
306 1 0.745479 0.0799882 0.674347
240 1 0.847589 0.096985 0.570941
234 1 0.743438 0.0788206 0.507288
70 1 0.926461 0.427039 0.995994
220 1 0.984028 0.0954665 0.578189
743 1 0.925895 0.491878 0.751847
310 1 0.918303 0.0992952 0.662962
317 1 0.163277 0.172972 0.678953
243 1 0.0717904 0.176929 0.581476
244 1 0.991531 0.26034 0.581391
248 1 0.155752 0.25539 0.562667
271 1 0.231544 0.33981 0.574608
253 1 0.50242 0.17964 0.501504
222 1 0.253975 0.0924479 0.504611
251 1 0.420032 0.175688 0.585462
252 1 0.3308 0.24937 0.61358
275 1 0.413135 0.326917 0.600284
255 1 0.565514 0.172878 0.596808
256 1 0.499445 0.268037 0.597798
254 1 0.588533 0.276202 0.518375
22 1 0.918718 0.0871722 0.994895
259 1 0.742997 0.171444 0.58849
270 1 0.255816 0.420936 0.50075
257 1 0.664713 0.185823 0.512041
260 1 0.672289 0.263895 0.595302
264 1 0.825179 0.260261 0.567914
263 1 0.896993 0.187657 0.588715
225 1 0.346178 0.00479799 0.513021
313 1 0.993147 0.173775 0.662282
797 1 0.165698 0.499127 0.842091
432 1 0.844921 0.417308 0.912307
262 1 0.91741 0.255335 0.502243
267 1 0.0640627 0.340192 0.601733
268 1 0.993525 0.425675 0.564644
297 1 0.33153 0.0054536 0.668324
42 1 0.759917 0.245403 0.99311
272 1 0.161115 0.417328 0.575654
799 1 0.25658 0.490704 0.920549
301 1 0.506514 0.0119127 0.689138
277 1 0.498455 0.337253 0.519555
274 1 0.40523 0.41881 0.523114
276 1 0.327902 0.416173 0.598113
273 1 0.32676 0.327569 0.512844
279 1 0.585391 0.345659 0.600913
280 1 0.493832 0.431073 0.606012
284 1 0.678637 0.425271 0.619714
278 1 0.572858 0.420038 0.523543
283 1 0.748115 0.339755 0.582616
288 1 0.847399 0.430745 0.59392
281 1 0.664254 0.36238 0.50405
365 1 0.163309 0.00416556 0.837698
287 1 0.910795 0.333594 0.5913
285 1 0.838069 0.349873 0.509748
290 1 0.0809516 0.105726 0.664098
296 1 0.150419 0.0814022 0.757154
291 1 0.0796826 0.00711431 0.75233
294 1 0.255368 0.0914965 0.672175
295 1 0.263658 0.00930893 0.756237
319 1 0.236001 0.166086 0.762541
300 1 0.337655 0.0906743 0.759788
298 1 0.419175 0.0902512 0.688882
801 1 0.331795 0.492769 0.836319
302 1 0.585567 0.0895516 0.671857
304 1 0.51003 0.0872275 0.770759
308 1 0.662627 0.0773845 0.776177
66 1 0.751233 0.419957 0.979818
231 1 0.581399 0.011039 0.607038
292 1 0.989772 0.0904905 0.754678
312 1 0.857574 0.0830988 0.745187
314 1 0.0885369 0.258232 0.665281
315 1 0.0728961 0.170227 0.756197
320 1 0.166816 0.244907 0.76685
339 1 0.0835833 0.322399 0.753174
341 1 0.173618 0.327542 0.671816
318 1 0.245485 0.24288 0.679081
324 1 0.324552 0.23525 0.752849
343 1 0.244144 0.336635 0.750266
323 1 0.4204 0.170596 0.779688
321 1 0.347806 0.166886 0.680446
322 1 0.431281 0.263934 0.681234
328 1 0.490948 0.257162 0.785464
397 1 0.49676 0.178578 0.85416
327 1 0.580911 0.16836 0.760677
325 1 0.499502 0.174262 0.694934
326 1 0.569186 0.255796 0.690867
351 1 0.582213 0.336377 0.784334
329 1 0.664961 0.165706 0.678936
332 1 0.665011 0.251017 0.757491
330 1 0.740913 0.236505 0.67453
331 1 0.743704 0.166382 0.758906
336 1 0.828591 0.237557 0.756265
355 1 0.746934 0.31647 0.754088
333 1 0.824322 0.156024 0.677787
334 1 0.912413 0.255035 0.670571
335 1 0.918113 0.17213 0.751239
316 1 0.993497 0.256865 0.752064
359 1 0.907954 0.324131 0.765845
338 1 0.076364 0.420346 0.671278
721 1 0.988067 0.486208 0.653778
344 1 0.168389 0.422408 0.756865
723 1 0.0911378 0.49692 0.766336
345 1 0.330359 0.343702 0.674034
342 1 0.239379 0.41509 0.660349
371 1 0.420481 0.00743673 0.931442
348 1 0.331832 0.41145 0.764342
347 1 0.407698 0.327646 0.768723
349 1 0.506207 0.336974 0.678007
346 1 0.416422 0.419723 0.675735
352 1 0.498673 0.419452 0.757965
431 1 0.930878 0.331966 0.92987
350 1 0.579417 0.425072 0.676917
217 1 0.993904 0.00624176 0.501021
353 1 0.65892 0.328413 0.679592
356 1 0.662488 0.40973 0.75597
354 1 0.759925 0.410662 0.682819
357 1 0.820594 0.311856 0.663199
427 1 0.7585 0.3293 0.920772
26 1 0.0761453 0.24918 0.991038
358 1 0.909672 0.412334 0.676492
337 1 0.989399 0.336818 0.671605
340 1 0.99678 0.395095 0.767863
360 1 0.836004 0.411528 0.758607
430 1 0.91834 0.419291 0.842505
362 1 0.0709165 0.089988 0.848323
369 1 0.337866 0.0179911 0.835396
387 1 0.0771412 0.170266 0.917944
389 1 0.155646 0.162987 0.837069
368 1 0.154694 0.0909451 0.921017
366 1 0.248142 0.0896159 0.836921
372 1 0.328999 0.0847052 0.935828
391 1 0.236299 0.155642 0.936115
409 1 0.982747 0.320477 0.835994
370 1 0.419109 0.0789127 0.840386
376 1 0.514851 0.0907825 0.925954
373 1 0.490127 0.00416425 0.840773
423 1 0.592494 0.337394 0.919443
374 1 0.583602 0.090736 0.84512
401 1 0.67092 0.166175 0.832146
261 1 0.807746 0.173818 0.502323
380 1 0.67867 0.0818132 0.922947
399 1 0.590927 0.162983 0.925374
378 1 0.757357 0.0964268 0.84375
403 1 0.758383 0.165631 0.91754
245 1 0.16083 0.160297 0.500548
377 1 0.673353 0.00140674 0.850981
384 1 0.838399 0.0935378 0.916396
729 1 0.328857 0.497503 0.671096
364 1 0.997744 0.06421 0.93412
382 1 0.918233 0.0518209 0.847319
385 1 0.000476995 0.187059 0.834657
407 1 0.929958 0.168776 0.926846
235 1 0.758831 0.0023709 0.599845
386 1 0.0832789 0.25734 0.832068
392 1 0.165743 0.239947 0.926149
424 1 0.509568 0.434451 0.926869
390 1 0.253286 0.253631 0.836839
393 1 0.307374 0.163637 0.853294
417 1 0.330828 0.344583 0.847632
396 1 0.346059 0.250552 0.936971
413 1 0.159856 0.343148 0.828043
419 1 0.416024 0.333439 0.926862
395 1 0.402039 0.169814 0.920114
394 1 0.392497 0.243257 0.846709
422 1 0.572253 0.428099 0.840709
425 1 0.675626 0.333843 0.837168
61 1 0.501205 0.340098 0.993465
400 1 0.499655 0.252738 0.922657
398 1 0.594978 0.253012 0.854707
402 1 0.764104 0.241517 0.842165
404 1 0.678334 0.242609 0.91838
405 1 0.847312 0.15448 0.830606
429 1 0.83499 0.332738 0.847198
388 1 0.995393 0.248639 0.925179
408 1 0.845526 0.239985 0.932069
406 1 0.911366 0.241355 0.841717
416 1 0.170821 0.428191 0.930713
412 1 0.998264 0.432764 0.916154
411 1 0.0954345 0.326677 0.920688
410 1 0.0804438 0.415869 0.836598
428 1 0.670005 0.414761 0.902503
661 1 0.494384 0.496054 0.518658
414 1 0.251039 0.409899 0.83531
420 1 0.342503 0.422826 0.922057
415 1 0.255054 0.332395 0.928943
421 1 0.501033 0.352318 0.861395
418 1 0.424891 0.430501 0.84339
293 1 0.178887 0.00788795 0.69077
282 1 0.75731 0.421555 0.507506
18 1 0.757755 0.0866001 0.99811
665 1 0.672633 0.485283 0.500193
41 1 0.67316 0.162479 0.989521
459 1 0.0755634 0.667302 0.0882169
690 1 0.734892 0.755586 0.488745
440 1 0.158274 0.578259 0.0784883
463 1 0.239586 0.644609 0.0847387
157 1 0.520634 0.999348 0.353036
444 1 0.331508 0.585594 0.0956934
149 1 0.169924 0.995217 0.341033
448 1 0.496331 0.591052 0.0942353
471 1 0.57997 0.659304 0.096477
447 1 0.59908 0.508162 0.0703404
445 1 0.503859 0.51958 0.0149139
452 1 0.676459 0.595396 0.0905193
456 1 0.827657 0.598001 0.088121
525 1 0.830861 0.501344 0.16408
593 1 0.680932 0.514311 0.320789
436 1 0.00268712 0.587719 0.085482
479 1 0.913706 0.670652 0.0802361
454 1 0.920022 0.588317 0.0060013
1 1 0.988398 0.988575 0.00820258
694 1 0.914074 0.749322 0.498445
457 1 0.994785 0.67747 0.0110984
464 1 0.156199 0.741763 0.0954743
481 1 0.00725246 0.841412 0.00741039
648 1 0.827974 0.906072 0.415753
167 1 0.912712 0.997941 0.411878
685 1 0.51528 0.667841 0.4987
485 1 0.175442 0.829809 0.0218481
534 1 0.243931 0.750165 0.164136
465 1 0.327185 0.676256 0.0258586
468 1 0.333015 0.759095 0.0928772
467 1 0.418017 0.663782 0.0783815
472 1 0.493157 0.745909 0.0829192
462 1 0.237867 0.740714 0.0258972
542 1 0.560009 0.762341 0.170308
545 1 0.676122 0.669905 0.165576
470 1 0.572069 0.74599 0.00676669
476 1 0.662924 0.75449 0.0866294
475 1 0.76676 0.685771 0.10371
473 1 0.682187 0.679441 0.00492751
474 1 0.748018 0.762962 0.0147426
477 1 0.825101 0.682456 0.00986609
438 1 0.250602 0.564651 0.00858965
480 1 0.828274 0.765825 0.0874354
460 1 0.00341038 0.760473 0.0898232
549 1 0.844951 0.677535 0.177106
483 1 0.0895484 0.830669 0.0970006
488 1 0.160919 0.920402 0.0900664
478 1 0.922463 0.761283 0.00897925
705 1 0.323673 0.850168 0.497072
487 1 0.256559 0.84747 0.103005
486 1 0.247566 0.916619 0.0122947
482 1 0.077696 0.920158 0.0196411
497 1 0.660213 0.838261 0.0120847
650 1 0.0805563 0.587245 0.487861
492 1 0.3445 0.913872 0.0937377
491 1 0.414258 0.83197 0.0791366
562 1 0.425392 0.930076 0.171661
565 1 0.490983 0.843179 0.171684
23 1 0.919333 0.993936 0.0978659
496 1 0.489741 0.922939 0.0821118
495 1 0.580058 0.837695 0.0778892
500 1 0.657418 0.932031 0.0951819
494 1 0.572869 0.915799 0.002681
499 1 0.746374 0.853023 0.0931954
501 1 0.812726 0.849874 0.0129399
504 1 0.833564 0.91627 0.0979139
498 1 0.737649 0.92817 0.0198574
570 1 0.745622 0.928577 0.178769
484 1 0.00596494 0.927758 0.104293
503 1 0.918161 0.838694 0.0830986
79 1 0.251047 0.991702 0.257016
506 1 0.0948567 0.579546 0.166081
531 1 0.0781612 0.660416 0.249277
583 1 0.245073 0.514027 0.414848
581 1 0.171054 0.503266 0.329975
512 1 0.162999 0.589553 0.247144
510 1 0.255901 0.588918 0.180066
535 1 0.248386 0.665938 0.256952
513 1 0.341293 0.503171 0.176368
514 1 0.404538 0.590803 0.172844
515 1 0.423706 0.508987 0.251239
516 1 0.347776 0.589215 0.278872
539 1 0.423507 0.674051 0.272071
589 1 0.508956 0.510041 0.353387
586 1 0.432005 0.592378 0.365218
437 1 0.154483 0.504578 0.00229828
518 1 0.582279 0.589827 0.178331
520 1 0.50543 0.592118 0.267017
524 1 0.687042 0.59524 0.254469
151 1 0.257529 0.99847 0.443129
522 1 0.757838 0.598226 0.173776
450 1 0.753268 0.577703 0.00233788
493 1 0.497426 0.830535 0.0069527
528 1 0.837052 0.594985 0.248734
521 1 0.676057 0.515412 0.16194
508 1 0.015424 0.571167 0.257427
526 1 0.915452 0.57285 0.173165
529 1 0.984724 0.669833 0.154395
527 1 0.919746 0.514814 0.262885
530 1 0.0863389 0.764633 0.191841
532 1 0.98966 0.739689 0.246245
605 1 0.160211 0.684282 0.340164
536 1 0.173981 0.754648 0.254776
533 1 0.162912 0.662492 0.172558
537 1 0.330554 0.663385 0.172605
559 1 0.266427 0.833487 0.260842
540 1 0.322016 0.745325 0.252409
538 1 0.410117 0.756613 0.174639
563 1 0.417856 0.852776 0.257722
544 1 0.498798 0.768472 0.261669
561 1 0.345928 0.850587 0.171261
541 1 0.505257 0.664445 0.168274
543 1 0.575434 0.683579 0.243354
613 1 0.521341 0.68227 0.326511
548 1 0.675028 0.766338 0.249378
547 1 0.753609 0.68143 0.254724
546 1 0.740991 0.768728 0.168937
618 1 0.755467 0.771183 0.330252
551 1 0.925034 0.655019 0.242192
552 1 0.841836 0.746358 0.258165
550 1 0.917989 0.753334 0.157938
575 1 0.92369 0.834943 0.256568
557 1 0.172545 0.828212 0.173933
553 1 0.999929 0.829276 0.167845
555 1 0.066796 0.844544 0.25512
554 1 0.0849746 0.911916 0.17068
556 1 0.00877747 0.923629 0.250884
626 1 0.0768722 0.9222 0.347239
560 1 0.151269 0.921448 0.268599
558 1 0.240767 0.91122 0.192857
564 1 0.338748 0.924559 0.259779
568 1 0.509657 0.924172 0.250545
638 1 0.584694 0.926395 0.334285
566 1 0.573931 0.918035 0.164541
567 1 0.58173 0.832718 0.248962
569 1 0.658899 0.846017 0.162848
572 1 0.649563 0.923112 0.252499
642 1 0.748398 0.936354 0.333116
571 1 0.772781 0.842657 0.240709
573 1 0.841719 0.836856 0.166318
574 1 0.924314 0.91463 0.179817
645 1 0.832792 0.847913 0.327811
576 1 0.843908 0.942175 0.253504
658 1 0.403721 0.588546 0.493384
578 1 0.093038 0.591932 0.331752
603 1 0.0871999 0.669593 0.421936
601 1 0.00465538 0.672638 0.328376
9 1 0.317559 0.997459 0.00964341
523 1 0.749505 0.513239 0.23778
609 1 0.335126 0.677467 0.343596
584 1 0.166757 0.59013 0.426161
582 1 0.249841 0.594236 0.335596
607 1 0.238717 0.679263 0.406091
585 1 0.326136 0.51192 0.340661
588 1 0.324912 0.589212 0.410464
611 1 0.424002 0.680627 0.421947
592 1 0.517532 0.57561 0.432886
590 1 0.596162 0.596158 0.326512
646 1 0.916014 0.919591 0.34245
597 1 0.826991 0.507392 0.305251
594 1 0.750351 0.589426 0.337114
617 1 0.68042 0.69059 0.333283
596 1 0.663075 0.587873 0.414533
600 1 0.815991 0.579942 0.423518
595 1 0.742001 0.504224 0.419056
519 1 0.588951 0.513107 0.251107
580 1 0.00693437 0.590178 0.406438
598 1 0.903307 0.593029 0.34025
602 1 0.0828823 0.746047 0.309494
608 1 0.150851 0.750988 0.428843
604 1 0.00788032 0.741994 0.423732
606 1 0.262 0.763281 0.340878
629 1 0.153429 0.834434 0.343123
502 1 0.925198 0.907351 0.0181946
633 1 0.343308 0.848404 0.347445
610 1 0.423711 0.75955 0.342519
612 1 0.340705 0.752596 0.430422
7 1 0.259573 0.998979 0.103007
13 1 0.4995 0.998865 0.00151284
637 1 0.49138 0.849367 0.351193
616 1 0.512858 0.757753 0.411139
614 1 0.597042 0.755776 0.332656
615 1 0.595164 0.67057 0.408826
621 1 0.832072 0.676076 0.339011
620 1 0.657146 0.765138 0.41458
619 1 0.743769 0.669362 0.41946
624 1 0.842014 0.755243 0.419803
622 1 0.926275 0.74203 0.34891
625 1 0.0101725 0.824416 0.349288
623 1 0.9228 0.654938 0.429325
647 1 0.920334 0.828642 0.428313
434 1 0.0748869 0.587382 0.00905211
587 1 0.415323 0.503924 0.430732
628 1 0.00121555 0.914811 0.416569
627 1 0.0850943 0.837764 0.427101
636 1 0.346943 0.923491 0.429164
631 1 0.246866 0.839413 0.421062
630 1 0.248142 0.916142 0.344445
632 1 0.175092 0.921724 0.427157
634 1 0.428352 0.939134 0.331889
635 1 0.426994 0.842925 0.436955
640 1 0.505088 0.911337 0.444518
644 1 0.658722 0.922373 0.423997
639 1 0.584619 0.849631 0.415218
443 1 0.416891 0.511144 0.0882591
718 1 0.910353 0.922653 0.493805
641 1 0.665624 0.850438 0.327668
643 1 0.737442 0.839705 0.41964
442 1 0.403874 0.586201 0.000616683
3 1 0.0886716 0.996842 0.0968174
599 1 0.920232 0.520983 0.426503
682 1 0.445948 0.751928 0.499018
656 1 0.162928 0.583927 0.593862
722 1 0.0872965 0.580409 0.679132
466 1 0.41696 0.748739 0.998102
714 1 0.740163 0.931922 0.500441
363 1 0.0828814 0.998682 0.924284
660 1 0.34429 0.592388 0.611311
683 1 0.424149 0.667042 0.583558
717 1 0.825334 0.839531 0.501795
657 1 0.326932 0.507509 0.513988
664 1 0.503986 0.590496 0.587289
668 1 0.671985 0.589099 0.589039
803 1 0.421176 0.503667 0.925076
663 1 0.588896 0.512992 0.589821
662 1 0.596661 0.586823 0.509536
727 1 0.249172 0.505002 0.748309
653 1 0.16301 0.51503 0.50008
666 1 0.749635 0.595939 0.509759
669 1 0.824561 0.513436 0.506144
461 1 0.168099 0.666804 0.995362
725 1 0.159169 0.504306 0.671841
659 1 0.417259 0.513739 0.595852
672 1 0.839924 0.600441 0.592273
652 1 0.995081 0.580665 0.597445
675 1 0.0786719 0.654322 0.575802
699 1 0.0822325 0.844541 0.592856
671 1 0.920803 0.512897 0.580384
733 1 0.506707 0.509946 0.6775
680 1 0.157534 0.756463 0.587313
679 1 0.25406 0.667776 0.59216
703 1 0.24864 0.830669 0.579382
749 1 0.141236 0.663173 0.665498
750 1 0.249115 0.759041 0.670411
383 1 0.908806 0.99477 0.940429
684 1 0.333853 0.751865 0.607586
858 1 0.745951 0.9209 0.845064
688 1 0.495113 0.754215 0.596553
737 1 0.654656 0.515627 0.679023
687 1 0.58901 0.676673 0.5952
692 1 0.661477 0.750975 0.588688
691 1 0.745382 0.679539 0.588529
762 1 0.751286 0.747703 0.670662
696 1 0.837853 0.75839 0.596072
793 1 0.0035317 0.512049 0.835333
676 1 0.997734 0.759618 0.591392
695 1 0.91603 0.679326 0.579689
719 1 0.922486 0.839833 0.586794
745 1 0.998705 0.666538 0.666934
433 1 0.0065209 0.504359 0.993886
704 1 0.165576 0.933469 0.589878
700 1 0.996723 0.910393 0.5824
769 1 0.997713 0.834443 0.671244
449 1 0.672546 0.502176 0.986716
773 1 0.175333 0.843843 0.661115
708 1 0.319136 0.932459 0.580169
702 1 0.230991 0.921308 0.510188
777 1 0.318126 0.836528 0.670784
707 1 0.415221 0.832249 0.598997
778 1 0.423495 0.920652 0.678045
712 1 0.497305 0.925579 0.603002
864 1 0.835011 0.914341 0.93885
706 1 0.413768 0.914528 0.527555
655 1 0.249412 0.50214 0.592574
710 1 0.587677 0.907595 0.52581
711 1 0.592597 0.834934 0.601112
709 1 0.494527 0.839769 0.528598
715 1 0.760144 0.846559 0.595178
716 1 0.666841 0.915642 0.588184
786 1 0.756653 0.933343 0.67465
713 1 0.657496 0.830743 0.504706
677 1 0.169066 0.666095 0.514016
720 1 0.837645 0.913868 0.574816
490 1 0.411303 0.922903 0.998118
728 1 0.159821 0.580168 0.760497
747 1 0.0845477 0.658789 0.763034
862 1 0.920947 0.906333 0.829891
726 1 0.244426 0.597602 0.668962
299 1 0.413631 0.99635 0.757865
739 1 0.760088 0.514309 0.751598
730 1 0.423965 0.593337 0.677733
805 1 0.506886 0.520803 0.844881
732 1 0.343539 0.582283 0.740304
861 1 0.842574 0.837928 0.842686
735 1 0.581675 0.503336 0.761087
736 1 0.478787 0.594291 0.766639
734 1 0.573407 0.604719 0.674616
806 1 0.594147 0.596502 0.830402
738 1 0.751704 0.589699 0.678
740 1 0.67665 0.59708 0.755712
742 1 0.913489 0.589316 0.66551
724 1 0.998366 0.565658 0.735431
744 1 0.843218 0.582873 0.749793
811 1 0.755274 0.505631 0.910446
746 1 0.0747231 0.751239 0.653856
752 1 0.155963 0.757553 0.731102
748 1 0.00663511 0.754906 0.755862
753 1 0.321458 0.669683 0.684586
751 1 0.233637 0.668361 0.756832
756 1 0.312005 0.747508 0.753563
822 1 0.237477 0.756624 0.823248
845 1 0.159086 0.83038 0.826856
754 1 0.40574 0.755757 0.67584
755 1 0.407577 0.674406 0.764654
761 1 0.672682 0.678931 0.678596
757 1 0.490146 0.669955 0.666749
760 1 0.495226 0.761806 0.744992
759 1 0.576843 0.683447 0.753807
758 1 0.574989 0.74999 0.673312
785 1 0.677717 0.842159 0.673584
829 1 0.485637 0.681813 0.833021
765 1 0.845765 0.675382 0.669179
764 1 0.656358 0.759243 0.767716
763 1 0.753168 0.682463 0.762545
766 1 0.908877 0.751445 0.676415
767 1 0.931054 0.660708 0.755219
768 1 0.8267 0.756762 0.755612
770 1 0.0867354 0.929322 0.661286
771 1 0.0828406 0.839442 0.742551
776 1 0.176969 0.923542 0.761741
809 1 0.678607 0.509948 0.81767
775 1 0.240476 0.840996 0.745536
774 1 0.24821 0.927965 0.666382
846 1 0.252947 0.927406 0.840635
781 1 0.512526 0.85145 0.675357
779 1 0.403575 0.832977 0.764848
780 1 0.3298 0.923352 0.746217
784 1 0.499429 0.919137 0.760187
849 1 0.313241 0.823068 0.83872
782 1 0.594132 0.928021 0.662133
783 1 0.586455 0.849418 0.742125
303 1 0.584758 0.988282 0.768106
859 1 0.749 0.845071 0.920641
788 1 0.672409 0.918847 0.746964
787 1 0.763321 0.84278 0.739188
807 1 0.592663 0.518563 0.900767
789 1 0.852138 0.849371 0.672232
790 1 0.942393 0.931876 0.663244
791 1 0.920911 0.831393 0.748377
772 1 0.0117665 0.921373 0.745476
792 1 0.829315 0.924807 0.764146
815 1 0.912972 0.506339 0.926383
741 1 0.849419 0.500527 0.681918
794 1 0.0748802 0.585927 0.839306
796 1 0.990364 0.586048 0.918256
686 1 0.583747 0.748473 0.51495
379 1 0.74892 0.988521 0.937986
311 1 0.921191 0.991965 0.759523
689 1 0.66396 0.674743 0.50135
654 1 0.257175 0.590692 0.500587
800 1 0.168006 0.589873 0.92719
798 1 0.244894 0.57769 0.830917
678 1 0.252804 0.753235 0.505066
802 1 0.405307 0.580518 0.832492
795 1 0.0858007 0.507195 0.919292
804 1 0.324557 0.575097 0.920979
651 1 0.0867636 0.51033 0.591828
673 1 0.997858 0.659985 0.509304
808 1 0.509569 0.588231 0.926045
812 1 0.676068 0.58217 0.906639
361 1 0.00556311 0.998162 0.845371
701 1 0.154387 0.839011 0.500529
810 1 0.75819 0.598689 0.828469
835 1 0.749205 0.660155 0.919206
239 1 0.913903 0.996414 0.579272
698 1 0.0705667 0.921686 0.514634
814 1 0.923169 0.584969 0.832211
816 1 0.840783 0.603881 0.916607
837 1 0.839268 0.667723 0.828957
813 1 0.828378 0.511524 0.834136
841 1 0.00188958 0.837739 0.824961
819 1 0.0727186 0.666628 0.924527
818 1 0.0920337 0.747863 0.839512
824 1 0.177999 0.746037 0.92083
821 1 0.173442 0.665887 0.847722
817 1 0.00509946 0.675254 0.835078
820 1 0.00251395 0.757011 0.925849
823 1 0.262808 0.655415 0.925836
825 1 0.315935 0.676953 0.82721
828 1 0.31698 0.752051 0.926339
469 1 0.499912 0.66673 0.986504
309 1 0.84722 0.997285 0.66533
827 1 0.409661 0.654761 0.922699
826 1 0.403804 0.749593 0.84527
833 1 0.673873 0.68586 0.840572
832 1 0.494547 0.759688 0.912215
830 1 0.575548 0.746698 0.834018
831 1 0.591475 0.687715 0.916061
853 1 0.500983 0.833961 0.829924
836 1 0.681304 0.762113 0.910959
834 1 0.764616 0.766601 0.849784
840 1 0.838981 0.760653 0.935638
863 1 0.918232 0.846173 0.925905
839 1 0.919186 0.682825 0.908233
838 1 0.928192 0.76144 0.832059
844 1 0.0137509 0.923829 0.91538
843 1 0.0905022 0.839397 0.92396
842 1 0.0761732 0.91634 0.83118
848 1 0.165743 0.920361 0.920992
674 1 0.0735693 0.751025 0.516052
847 1 0.244023 0.83411 0.932571
852 1 0.341342 0.928424 0.921505
367 1 0.24916 0.993545 0.923857
850 1 0.418841 0.924471 0.843937
851 1 0.412089 0.837663 0.916285
860 1 0.663613 0.91595 0.930612
855 1 0.57981 0.817624 0.930348
857 1 0.6744 0.839282 0.838456
854 1 0.584864 0.904339 0.840425
856 1 0.496911 0.916082 0.93425
670 1 0.902831 0.593023 0.507115
458 1 0.0896322 0.753694 0.98375
697 1 0.994404 0.826284 0.505833
375 1 0.569529 0.992 0.920971
381 1 0.830845 0.997368 0.843288
693 1 0.82609 0.686031 0.504889
681 1 0.337041 0.668819 0.501333
227 1 0.416333 0.997101 0.596563
667 1 0.748936 0.500984 0.59805
489 1 0.330539 0.841533 0.987989
446 1 0.597117 0.612265 0.997377
