ITEM: TIMESTEP
1250
ITEM: NUMBER OF ATOMS
864
ITEM: BOX BOUNDS pp pp pp
0.0000000000000000e+00 3.1559999999999999e+01
0.0000000000000000e+00 3.1559999999999999e+01
0.0000000000000000e+00 3.1559999999999999e+01
ITEM: ATOMS id type xs ys zs
8 1 0.172052 0.072492 0.0916751
27 1 0.0840614 0.167358 0.0930911
513 1 0.353513 0.494293 0.179021
2 1 0.0679235 0.086286 0.0145359
12 1 0.334905 0.0719703 0.0889369
222 1 0.254615 0.0601075 0.492727
78 1 0.249908 0.0894407 0.176136
101 1 0.171957 0.162674 0.169272
16 1 0.492783 0.0744125 0.0761451
595 1 0.766433 0.496094 0.424193
507 1 0.0919825 0.489182 0.256032
105 1 0.327867 0.169385 0.176971
85 1 0.516632 0.00677341 0.169608
86 1 0.58387 0.0874693 0.157529
6 1 0.250911 0.0752696 0.00550188
14 1 0.581558 0.0822987 0.00965413
435 1 0.0865661 0.498735 0.0897183
216 1 0.850805 0.4261 0.425698
20 1 0.6702 0.0876316 0.081153
43 1 0.761843 0.173048 0.0834012
509 1 0.161453 0.491412 0.163584
4 1 0.975198 0.0828123 0.080298
93 1 0.836448 0.0151538 0.167142
441 1 0.332195 0.494128 0.00143324
24 1 0.857482 0.0961062 0.0869388
209 1 0.670377 0.331408 0.343501
157 1 0.503592 0.00089593 0.322222
28 1 0.00368093 0.246692 0.0922939
51 1 0.0825268 0.320866 0.0914557
98 1 0.0856639 0.249801 0.182433
121 1 0.00940246 0.333552 0.161955
31 1 0.251925 0.159151 0.0771741
32 1 0.16447 0.25371 0.070653
36 1 0.340353 0.246673 0.101642
55 1 0.249449 0.336881 0.0729257
11 1 0.418706 0.00398775 0.0896676
102 1 0.247479 0.237715 0.158348
129 1 0.330987 0.333586 0.159911
35 1 0.404618 0.15933 0.0872731
210 1 0.75668 0.419253 0.346852
59 1 0.427055 0.318705 0.0886092
109 1 0.507624 0.160906 0.152925
196 1 0.989746 0.418039 0.435793
39 1 0.590306 0.174071 0.0784639
40 1 0.491855 0.243358 0.0865719
63 1 0.588324 0.328436 0.0761505
110 1 0.598168 0.263375 0.154667
133 1 0.502753 0.34266 0.182127
44 1 0.676745 0.247102 0.0915698
48 1 0.833866 0.25546 0.0760395
67 1 0.756294 0.342937 0.0851292
211 1 0.776877 0.331337 0.422264
47 1 0.918394 0.177633 0.0892775
117 1 0.819663 0.159464 0.185238
519 1 0.590808 0.493223 0.248133
52 1 0.0129148 0.415999 0.081727
56 1 0.1681 0.416429 0.0847413
50 1 0.090522 0.419134 0.000591847
122 1 0.0834615 0.410085 0.170857
125 1 0.180749 0.333476 0.164786
591 1 0.583199 0.498476 0.414744
60 1 0.345941 0.430891 0.081312
274 1 0.39841 0.419744 0.491563
58 1 0.418344 0.402656 0.000764781
130 1 0.418129 0.405624 0.170759
443 1 0.436105 0.486629 0.0921833
64 1 0.515784 0.410717 0.0914475
68 1 0.658576 0.413954 0.0451766
134 1 0.607077 0.409722 0.153428
165 1 0.839553 0.000650541 0.341306
138 1 0.779952 0.404171 0.172205
25 1 0.995544 0.161463 0.0173901
71 1 0.927732 0.327335 0.0810336
72 1 0.851958 0.420818 0.09856
141 1 0.841805 0.326395 0.154254
233 1 0.67846 0.00372541 0.496278
74 1 0.0804148 0.0745748 0.15888
76 1 0.994687 0.081843 0.23701
80 1 0.162366 0.0782009 0.246183
99 1 0.0878072 0.155661 0.247159
146 1 0.073624 0.0671052 0.333488
84 1 0.347908 0.0746867 0.253737
103 1 0.256209 0.167652 0.252124
150 1 0.257664 0.0651973 0.323453
261 1 0.835932 0.161333 0.498897
82 1 0.417214 0.0899961 0.165622
88 1 0.504596 0.0876868 0.239059
273 1 0.342234 0.321886 0.486138
41 1 0.677926 0.170787 0.00613478
30 1 0.264105 0.252377 0.0112113
92 1 0.665689 0.0729767 0.25131
158 1 0.594252 0.102537 0.32834
185 1 0.667525 0.170505 0.353039
37 1 0.500377 0.159268 0.00342755
90 1 0.74962 0.0801041 0.172864
96 1 0.838505 0.0814275 0.268352
57 1 0.338344 0.329493 0.0130458
94 1 0.912368 0.0937214 0.173977
245 1 0.157561 0.148816 0.496492
97 1 0.00287091 0.175714 0.168562
100 1 0.996721 0.25641 0.257872
104 1 0.157005 0.256077 0.256329
127 1 0.258666 0.340263 0.243796
106 1 0.42167 0.252727 0.181696
107 1 0.411488 0.170659 0.258288
108 1 0.313904 0.255449 0.257819
131 1 0.408478 0.349552 0.263692
177 1 0.33522 0.1557 0.343897
205 1 0.495982 0.316567 0.332338
111 1 0.591182 0.15863 0.238267
112 1 0.511895 0.242253 0.243512
113 1 0.680294 0.160994 0.154899
114 1 0.758441 0.25535 0.180314
115 1 0.735807 0.160809 0.260932
116 1 0.650623 0.250722 0.239259
137 1 0.693183 0.342075 0.176038
118 1 0.908031 0.248616 0.166644
119 1 0.916958 0.176449 0.253758
120 1 0.837387 0.250711 0.252442
123 1 0.0797423 0.335378 0.27535
124 1 0.992743 0.417918 0.260139
193 1 0.97749 0.340698 0.335393
194 1 0.0895704 0.411281 0.35167
198 1 0.249876 0.421193 0.323821
126 1 0.261113 0.42284 0.149678
128 1 0.168938 0.417206 0.244673
132 1 0.339012 0.424531 0.258333
34 1 0.408765 0.247515 0.00194193
54 1 0.25747 0.409697 0.00266156
202 1 0.41837 0.42749 0.336084
201 1 0.327773 0.329272 0.339825
45 1 0.837632 0.157619 0.00589645
521 1 0.680521 0.488166 0.164091
135 1 0.586677 0.340576 0.263782
136 1 0.509906 0.413502 0.260335
70 1 0.912704 0.404498 0.00756859
593 1 0.670361 0.494631 0.34392
139 1 0.770917 0.343417 0.25927
140 1 0.664447 0.413266 0.252488
214 1 0.915859 0.420017 0.332562
142 1 0.923212 0.407305 0.169679
143 1 0.913726 0.338192 0.2461
144 1 0.83864 0.432844 0.257061
258 1 0.748073 0.250108 0.496128
152 1 0.17497 0.0691801 0.406195
169 1 0.00865875 0.164404 0.323534
171 1 0.0734539 0.158845 0.405013
173 1 0.16038 0.158561 0.32423
455 1 0.940623 0.498218 0.0717798
175 1 0.23598 0.148418 0.405595
19 1 0.750615 0.0140856 0.075714
226 1 0.41366 0.0728131 0.492936
154 1 0.424134 0.0837485 0.341759
156 1 0.330054 0.0724762 0.421943
179 1 0.416795 0.156728 0.426115
208 1 0.501211 0.423046 0.408949
160 1 0.509508 0.0774848 0.422256
517 1 0.504295 0.481806 0.171273
230 1 0.592514 0.0733211 0.497764
162 1 0.74887 0.0698191 0.333665
164 1 0.673279 0.0829678 0.416168
168 1 0.840473 0.0780111 0.419192
187 1 0.756041 0.16318 0.425505
189 1 0.851873 0.173006 0.335863
148 1 0.993576 0.0665124 0.416763
166 1 0.93767 0.0965091 0.332742
191 1 0.921404 0.158938 0.425901
26 1 0.0774303 0.237818 0.0106444
46 1 0.925198 0.255416 0.00154244
195 1 0.0807034 0.325248 0.418518
170 1 0.079722 0.245495 0.334575
176 1 0.170223 0.258797 0.418295
199 1 0.256938 0.324823 0.426774
197 1 0.171228 0.335025 0.321911
174 1 0.240566 0.235404 0.335146
180 1 0.320319 0.234239 0.419436
246 1 0.246784 0.224605 0.491483
178 1 0.407994 0.239338 0.347686
181 1 0.494105 0.163451 0.340623
184 1 0.504517 0.25419 0.425722
250 1 0.417298 0.253378 0.482902
451 1 0.757683 0.474387 0.0788099
207 1 0.575626 0.337597 0.417056
182 1 0.593859 0.241562 0.326131
183 1 0.585492 0.164877 0.433221
186 1 0.749893 0.249084 0.334045
188 1 0.654989 0.24986 0.430099
192 1 0.848402 0.24493 0.429146
215 1 0.911638 0.345411 0.438109
172 1 0.0031651 0.24295 0.436032
190 1 0.922112 0.249374 0.351598
53 1 0.14998 0.332996 0.000581426
266 1 0.0774406 0.407264 0.495551
206 1 0.594386 0.414798 0.340357
200 1 0.173593 0.420271 0.424989
73 1 0.985943 0.0020338 0.170887
241 1 0.0031013 0.146934 0.499244
204 1 0.332689 0.42476 0.414229
213 1 0.844133 0.327175 0.339254
203 1 0.417054 0.333854 0.408128
212 1 0.683502 0.405677 0.426381
15 1 0.589637 0.0063584 0.0861826
10 1 0.415576 0.068674 0.00174651
243 1 0.0853037 0.158151 0.590701
793 1 0.000709847 0.493067 0.83803
290 1 0.0963626 0.0853804 0.678752
224 1 0.167598 0.0672592 0.57738
234 1 0.761524 0.0742298 0.500169
297 1 0.330929 0.00225048 0.656355
247 1 0.248376 0.142663 0.579498
294 1 0.255834 0.0774406 0.657329
317 1 0.167646 0.16699 0.650673
228 1 0.337522 0.0702283 0.576367
232 1 0.511118 0.0931816 0.562164
298 1 0.412891 0.0691169 0.661923
38 1 0.58707 0.234954 0.996152
236 1 0.673101 0.0821062 0.590493
61 1 0.497582 0.325924 0.992898
306 1 0.758039 0.0779054 0.666375
227 1 0.434757 0.0128338 0.576809
220 1 0.987715 0.0670057 0.576328
240 1 0.829134 0.0622197 0.590292
739 1 0.753575 0.477992 0.746725
263 1 0.910681 0.160424 0.589134
333 1 0.83046 0.150488 0.674429
265 1 0.0072095 0.334633 0.50743
267 1 0.0796099 0.332136 0.594822
337 1 0.00517764 0.325798 0.665693
248 1 0.177444 0.245405 0.569214
271 1 0.25909 0.327501 0.57711
341 1 0.172469 0.32933 0.654581
251 1 0.424604 0.148566 0.58887
252 1 0.340572 0.242543 0.571509
256 1 0.480282 0.251516 0.572981
322 1 0.418261 0.249096 0.672447
325 1 0.501848 0.16176 0.65913
349 1 0.487257 0.340582 0.654338
270 1 0.255179 0.409993 0.50953
255 1 0.586218 0.169691 0.575075
326 1 0.586141 0.242898 0.663434
353 1 0.67092 0.330958 0.662924
453 1 0.827978 0.477545 0.991019
259 1 0.745544 0.154034 0.582051
260 1 0.681272 0.249663 0.57866
283 1 0.741657 0.339275 0.578247
330 1 0.748595 0.246927 0.661231
49 1 0.00737654 0.329724 0.998055
244 1 0.998972 0.234251 0.587429
264 1 0.835828 0.242941 0.576798
287 1 0.919051 0.319529 0.582208
334 1 0.918938 0.229361 0.678008
268 1 0.00955986 0.433025 0.576773
338 1 0.0757439 0.408523 0.668484
272 1 0.151766 0.427779 0.580764
276 1 0.337019 0.436557 0.579649
345 1 0.340457 0.319847 0.646143
219 1 0.0775345 8.39259e-05 0.579295
275 1 0.405243 0.350332 0.570538
280 1 0.50936 0.432608 0.578201
279 1 0.586604 0.329875 0.608764
284 1 0.668101 0.414877 0.590054
350 1 0.577909 0.416661 0.669178
277 1 0.492413 0.343215 0.514156
282 1 0.74726 0.420966 0.509179
430 1 0.923243 0.413896 0.830345
288 1 0.829978 0.416999 0.586417
286 1 0.921133 0.4155 0.521559
377 1 0.680434 0.0166953 0.832937
357 1 0.821457 0.322545 0.670788
358 1 0.90297 0.405562 0.668761
292 1 0.016006 0.0752818 0.746056
296 1 0.177695 0.089004 0.746772
313 1 0.0131487 0.164852 0.674234
315 1 0.0920327 0.179961 0.745543
42 1 0.746351 0.256844 0.99279
319 1 0.247462 0.165644 0.748498
321 1 0.344533 0.158092 0.658162
299 1 0.437385 0.00230407 0.750328
300 1 0.318027 0.0817577 0.750769
304 1 0.509735 0.0895485 0.731698
305 1 0.665845 0.0022045 0.667365
302 1 0.593404 0.0908223 0.652744
374 1 0.596787 0.0811036 0.834194
308 1 0.681309 0.0957263 0.73961
401 1 0.671937 0.161695 0.833362
378 1 0.755957 0.0865719 0.830714
312 1 0.844698 0.0700648 0.743226
329 1 0.664762 0.17444 0.656467
310 1 0.912127 0.0651587 0.659987
335 1 0.927046 0.139945 0.753109
405 1 0.815889 0.165525 0.838795
218 1 0.074971 0.0765153 0.501654
314 1 0.0813234 0.253684 0.659576
316 1 0.000975526 0.247816 0.756244
339 1 0.0879646 0.331754 0.765307
318 1 0.258266 0.245043 0.651906
320 1 0.168357 0.258384 0.736743
390 1 0.261647 0.251433 0.838359
324 1 0.324965 0.2269 0.741566
323 1 0.423563 0.161929 0.747905
394 1 0.421042 0.243542 0.810668
328 1 0.501254 0.243009 0.745385
347 1 0.401322 0.335693 0.734928
327 1 0.582521 0.168181 0.746956
398 1 0.58134 0.261873 0.823439
332 1 0.663215 0.250095 0.751743
351 1 0.568793 0.327741 0.739088
425 1 0.66178 0.348081 0.833832
331 1 0.743066 0.180943 0.74931
355 1 0.74612 0.342875 0.75558
336 1 0.82897 0.237774 0.747215
406 1 0.914795 0.222526 0.828877
359 1 0.92902 0.330408 0.748036
429 1 0.852223 0.322873 0.824687
242 1 0.0950541 0.24465 0.501851
340 1 0.0128646 0.409988 0.757939
409 1 0.000400345 0.330837 0.832215
344 1 0.16705 0.412861 0.744461
733 1 0.504171 0.496892 0.661886
342 1 0.240753 0.422756 0.657511
343 1 0.24809 0.324948 0.753301
303 1 0.588436 0.0159033 0.735359
21 1 0.833289 0.01039 0.995842
346 1 0.413135 0.427607 0.654252
348 1 0.317067 0.407044 0.717752
417 1 0.332973 0.344194 0.833589
352 1 0.49703 0.408247 0.731472
667 1 0.751759 0.496119 0.590808
422 1 0.568346 0.404641 0.82962
356 1 0.656813 0.420281 0.745063
281 1 0.661986 0.339525 0.514652
354 1 0.750921 0.412609 0.663053
426 1 0.738369 0.409805 0.849472
741 1 0.83217 0.488849 0.665187
249 1 0.338555 0.149048 0.501239
360 1 0.835073 0.408284 0.754965
387 1 0.0838728 0.157902 0.924238
362 1 0.096324 0.0839747 0.818084
385 1 0.0146622 0.163565 0.831268
364 1 0.000689495 0.0712577 0.909536
368 1 0.159624 0.0811 0.916202
33 1 0.340021 0.163569 0.998381
366 1 0.265232 0.0806849 0.850044
393 1 0.332509 0.171384 0.846908
372 1 0.329745 0.0636796 0.927233
445 1 0.496002 0.491606 0.999656
370 1 0.403699 0.0868752 0.854134
397 1 0.496061 0.155393 0.832012
376 1 0.492238 0.0886654 0.93195
375 1 0.576429 0.0128284 0.916713
380 1 0.657255 0.0845699 0.921066
373 1 0.497975 0.0349214 0.840644
361 1 0.0108434 0.00457598 0.83512
253 1 0.497547 0.176401 0.502184
384 1 0.837118 0.0937835 0.915228
403 1 0.742151 0.16064 0.918279
285 1 0.835076 0.343986 0.515283
379 1 0.762516 0.0132788 0.913533
18 1 0.756056 0.0914049 0.994849
254 1 0.572201 0.265536 0.515164
62 1 0.567639 0.412621 0.985757
382 1 0.915281 0.089748 0.84523
428 1 0.660479 0.411312 0.922777
797 1 0.176837 0.491285 0.833018
388 1 0.000881664 0.249837 0.907148
386 1 0.0813468 0.240377 0.829544
389 1 0.175569 0.163345 0.842183
815 1 0.923032 0.493347 0.911132
396 1 0.329122 0.247535 0.92015
392 1 0.166459 0.25183 0.918283
391 1 0.25153 0.153313 0.927981
301 1 0.50207 0.00708491 0.655521
395 1 0.427465 0.177912 0.917527
419 1 0.421816 0.317421 0.911027
400 1 0.507891 0.248956 0.901918
669 1 0.842291 0.489653 0.509098
423 1 0.579894 0.338931 0.917286
404 1 0.662664 0.24337 0.910634
421 1 0.487507 0.334717 0.808921
399 1 0.587044 0.173281 0.895775
22 1 0.915244 0.07979 0.990918
427 1 0.736291 0.325349 0.906789
69 1 0.836512 0.324243 0.977052
408 1 0.835214 0.246346 0.900433
402 1 0.749389 0.253249 0.841652
431 1 0.924638 0.334549 0.91157
29 1 0.172373 0.163858 0.990626
407 1 0.934459 0.168091 0.931974
238 1 0.909176 0.0689014 0.514325
416 1 0.183145 0.414721 0.922286
412 1 0.00169246 0.412017 0.93008
411 1 0.0960988 0.330048 0.912144
410 1 0.0931126 0.417032 0.840036
415 1 0.254463 0.327142 0.928301
413 1 0.180635 0.341487 0.830356
414 1 0.252215 0.420845 0.820406
66 1 0.752609 0.401929 0.978382
420 1 0.336832 0.409933 0.924562
418 1 0.407389 0.415397 0.821352
803 1 0.416693 0.490894 0.931924
743 1 0.942377 0.48871 0.727616
424 1 0.4882 0.409988 0.906787
807 1 0.567672 0.496553 0.907443
65 1 0.659834 0.319447 0.990423
432 1 0.835238 0.403405 0.900473
365 1 0.171985 0.0022707 0.837377
801 1 0.339248 0.495388 0.832475
805 1 0.495872 0.491884 0.825212
262 1 0.931287 0.226055 0.509092
257 1 0.677655 0.15525 0.502115
813 1 0.832419 0.493188 0.831363
269 1 0.166188 0.338854 0.507863
17 1 0.683134 0.0069567 0.994113
799 1 0.264453 0.493849 0.922118
278 1 0.593149 0.433308 0.500471
440 1 0.166807 0.586272 0.0808696
459 1 0.0784015 0.669807 0.0695912
702 1 0.257787 0.921424 0.49915
533 1 0.168566 0.673306 0.14616
579 1 0.0939334 0.503909 0.414487
463 1 0.261697 0.67125 0.0783853
673 1 0.995631 0.668688 0.491289
510 1 0.265793 0.583865 0.147829
583 1 0.255798 0.506231 0.406375
444 1 0.347971 0.558607 0.0806706
537 1 0.35179 0.657292 0.153064
448 1 0.506829 0.58856 0.0735294
471 1 0.588358 0.67475 0.0770184
710 1 0.592449 0.91931 0.49164
437 1 0.163293 0.502511 0.00316345
518 1 0.595277 0.587971 0.16224
452 1 0.666066 0.588926 0.0727205
456 1 0.835375 0.573955 0.071592
628 1 0.980467 0.913683 0.418288
436 1 0.00697326 0.583755 0.0763085
479 1 0.919922 0.671886 0.0625961
526 1 0.920475 0.576937 0.167226
549 1 0.829208 0.649174 0.159106
701 1 0.17696 0.84825 0.497922
464 1 0.170426 0.76013 0.080849
530 1 0.0692082 0.727517 0.157426
649 1 0.994926 0.515058 0.489861
465 1 0.349243 0.673756 0.0180547
487 1 0.256691 0.8377 0.0839975
534 1 0.265842 0.75872 0.16721
561 1 0.342022 0.832441 0.173341
91 1 0.768327 0.996643 0.254514
467 1 0.435112 0.673806 0.0790774
468 1 0.349656 0.767534 0.0837671
491 1 0.430607 0.834888 0.0768499
648 1 0.829429 0.89872 0.4214
538 1 0.424941 0.752233 0.169812
472 1 0.51502 0.755984 0.0816869
541 1 0.510737 0.677214 0.154897
542 1 0.58778 0.756723 0.160787
475 1 0.748243 0.660768 0.0752844
476 1 0.666742 0.746481 0.0962847
480 1 0.836882 0.755498 0.0694978
546 1 0.759185 0.739796 0.172276
569 1 0.665319 0.83435 0.167267
460 1 0.995828 0.742395 0.0709155
483 1 0.0862777 0.829082 0.097403
484 1 0.990791 0.919147 0.0862308
554 1 0.0790747 0.919755 0.163325
3 1 0.0966995 0.983917 0.0840974
95 1 0.907511 0.993139 0.246216
77 1 0.163101 0.996487 0.171553
1 1 0.990991 0.98451 0.00185267
488 1 0.173378 0.909326 0.088879
558 1 0.246085 0.918996 0.178637
714 1 0.733163 0.902515 0.496537
589 1 0.520336 0.505253 0.3245
515 1 0.437608 0.506472 0.248348
492 1 0.328412 0.912564 0.0892759
562 1 0.433494 0.919067 0.167555
9 1 0.338264 0.990766 0.0059216
155 1 0.414268 0.989226 0.396656
495 1 0.597384 0.839182 0.06025
496 1 0.511782 0.916617 0.0828316
499 1 0.739985 0.814035 0.084379
500 1 0.679786 0.91565 0.0727689
573 1 0.817342 0.834547 0.151344
570 1 0.774017 0.928311 0.171986
503 1 0.908513 0.82623 0.0685808
504 1 0.818883 0.921543 0.0749751
574 1 0.907405 0.920445 0.150331
439 1 0.245961 0.507987 0.0787908
505 1 0.0112559 0.501315 0.170914
506 1 0.0900814 0.594561 0.15261
508 1 0.00173463 0.593891 0.249449
577 1 0.0070268 0.502253 0.332464
585 1 0.334337 0.509164 0.317026
512 1 0.178297 0.586085 0.22765
535 1 0.259954 0.656102 0.22501
582 1 0.250565 0.590122 0.312153
511 1 0.250287 0.510894 0.233331
514 1 0.434777 0.584912 0.155242
516 1 0.334158 0.581186 0.236983
586 1 0.433495 0.580722 0.316476
613 1 0.516234 0.663536 0.331938
501 1 0.809707 0.840049 0.0125043
520 1 0.520847 0.5951 0.238658
590 1 0.587417 0.586344 0.325624
522 1 0.750265 0.577975 0.140973
524 1 0.677438 0.56932 0.240038
545 1 0.676514 0.667222 0.152385
547 1 0.747281 0.656136 0.243911
617 1 0.675807 0.66068 0.349154
647 1 0.910831 0.827155 0.411166
527 1 0.920331 0.508181 0.251431
528 1 0.833668 0.59308 0.253496
529 1 0.983665 0.669213 0.158758
551 1 0.921159 0.660571 0.247347
531 1 0.101113 0.665952 0.23901
555 1 0.097788 0.822207 0.226877
557 1 0.182767 0.831126 0.157431
536 1 0.179183 0.740741 0.229165
605 1 0.164631 0.678452 0.336845
629 1 0.174785 0.844186 0.325114
539 1 0.415107 0.664759 0.237302
540 1 0.347893 0.748152 0.247661
563 1 0.423323 0.823253 0.2475
565 1 0.513727 0.83143 0.17337
609 1 0.338544 0.657437 0.326527
610 1 0.417811 0.73718 0.323674
633 1 0.328014 0.847419 0.325705
543 1 0.609813 0.658567 0.249159
544 1 0.521246 0.726823 0.245845
567 1 0.58655 0.832668 0.238595
614 1 0.581155 0.75788 0.337636
637 1 0.512404 0.832879 0.326484
641 1 0.670085 0.817686 0.31598
548 1 0.675009 0.753253 0.235698
571 1 0.762176 0.837133 0.24656
552 1 0.838835 0.730027 0.255748
532 1 0.016717 0.744443 0.251225
553 1 0.98621 0.832825 0.149558
550 1 0.913957 0.745912 0.166024
575 1 0.927253 0.807294 0.255742
622 1 0.913817 0.737919 0.348542
75 1 0.0584997 0.991862 0.242043
626 1 0.0802573 0.921183 0.317114
630 1 0.249853 0.921536 0.31601
559 1 0.248449 0.828924 0.241436
560 1 0.152976 0.908108 0.239636
23 1 0.904657 0.992804 0.0754339
634 1 0.434891 0.915792 0.32026
564 1 0.333706 0.923939 0.248459
638 1 0.572465 0.915485 0.322106
79 1 0.236094 0.996161 0.252296
566 1 0.599714 0.916124 0.147064
568 1 0.509284 0.922059 0.231702
572 1 0.68172 0.919295 0.238865
642 1 0.757474 0.905617 0.338864
576 1 0.848793 0.900331 0.242883
645 1 0.833986 0.815171 0.324333
5 1 0.163127 0.990824 0.00236226
646 1 0.91394 0.900971 0.335778
145 1 0.974544 0.992359 0.329774
556 1 0.994201 0.903612 0.23074
578 1 0.0898061 0.585666 0.318918
584 1 0.175724 0.592203 0.406607
603 1 0.096717 0.675676 0.416008
458 1 0.0839233 0.75953 0.00476256
654 1 0.248358 0.579992 0.497214
81 1 0.333049 0.994422 0.16247
607 1 0.258258 0.665284 0.409252
221 1 0.167064 0.990781 0.493393
681 1 0.316458 0.674016 0.493849
588 1 0.328318 0.581029 0.404741
592 1 0.516108 0.581637 0.40435
587 1 0.411536 0.519492 0.409988
497 1 0.687534 0.836883 0.00217662
597 1 0.846495 0.502652 0.344545
599 1 0.925482 0.502292 0.410669
594 1 0.75448 0.570986 0.337248
596 1 0.659283 0.57413 0.425138
600 1 0.842945 0.583324 0.442844
619 1 0.751198 0.64241 0.432576
13 1 0.486472 0.985715 0.00235669
580 1 0.00248762 0.576943 0.406586
623 1 0.92784 0.652197 0.410291
598 1 0.916381 0.588848 0.327835
621 1 0.823021 0.654188 0.348204
602 1 0.0877731 0.76546 0.331199
627 1 0.0782909 0.845305 0.415662
678 1 0.257547 0.759603 0.497738
606 1 0.259958 0.753695 0.315989
608 1 0.164658 0.762385 0.424573
163 1 0.745708 0.98919 0.417716
611 1 0.412937 0.658658 0.41533
612 1 0.33205 0.74575 0.420193
167 1 0.895634 0.990035 0.42835
615 1 0.588029 0.668079 0.414632
616 1 0.490721 0.740299 0.407477
639 1 0.586331 0.839443 0.40739
624 1 0.823031 0.744414 0.413146
618 1 0.749535 0.748607 0.319073
620 1 0.659707 0.74892 0.41615
643 1 0.745166 0.820851 0.416189
601 1 0.0130266 0.670579 0.334856
604 1 0.00434027 0.764843 0.410674
625 1 0.00915139 0.836664 0.314036
149 1 0.157191 0.990781 0.327923
632 1 0.163852 0.91482 0.40865
677 1 0.176078 0.684339 0.490312
147 1 0.0889416 0.990946 0.409309
474 1 0.751735 0.748914 0.00116875
225 1 0.346663 0.985625 0.488231
631 1 0.244048 0.832973 0.412089
151 1 0.25648 0.985949 0.410112
525 1 0.83613 0.505754 0.160938
705 1 0.346436 0.82831 0.488823
636 1 0.326267 0.907203 0.413036
706 1 0.428684 0.924045 0.483118
153 1 0.332368 0.984164 0.333783
635 1 0.432571 0.836161 0.411815
686 1 0.572417 0.753017 0.483037
644 1 0.673814 0.917182 0.399501
682 1 0.435355 0.741352 0.498928
640 1 0.503334 0.913696 0.407832
709 1 0.503058 0.836671 0.49219
674 1 0.0842175 0.757726 0.490399
650 1 0.083961 0.588206 0.488493
442 1 0.411033 0.58126 0.00162956
694 1 0.914225 0.748078 0.478837
89 1 0.681013 0.997364 0.157382
523 1 0.764228 0.510244 0.243756
229 1 0.520497 0.992379 0.484673
161 1 0.66951 0.98269 0.318417
581 1 0.191207 0.502475 0.317748
658 1 0.405646 0.592308 0.497059
217 1 0.993868 0.992396 0.499606
447 1 0.591657 0.502321 0.0965025
434 1 0.0971231 0.589115 0.000501271
159 1 0.603633 0.996476 0.409799
83 1 0.419661 0.999029 0.232745
661 1 0.500163 0.51073 0.498272
7 1 0.259201 0.995134 0.0853414
237 1 0.818197 0.981445 0.497095
87 1 0.596351 0.982436 0.232271
685 1 0.501234 0.654734 0.480408
652 1 0.00375204 0.607839 0.588837
723 1 0.093979 0.516037 0.746559
651 1 0.0839116 0.523725 0.567746
737 1 0.678706 0.508886 0.673688
656 1 0.170171 0.588681 0.570976
726 1 0.245562 0.591287 0.673746
725 1 0.167749 0.507232 0.650595
655 1 0.259634 0.513289 0.590673
659 1 0.420625 0.507327 0.574233
660 1 0.329647 0.589786 0.576593
713 1 0.656597 0.828749 0.503345
730 1 0.428485 0.581958 0.650006
493 1 0.514645 0.840001 0.997539
664 1 0.506167 0.575302 0.58074
668 1 0.667303 0.574609 0.581759
485 1 0.1718 0.834287 0.993293
662 1 0.584574 0.57913 0.504766
734 1 0.584927 0.591475 0.65564
757 1 0.498124 0.662144 0.654493
231 1 0.590989 0.997691 0.592866
672 1 0.840135 0.58003 0.605043
689 1 0.664277 0.660283 0.506828
470 1 0.594951 0.752712 0.992981
666 1 0.760132 0.567832 0.509827
670 1 0.911113 0.592023 0.520898
742 1 0.929328 0.580547 0.669273
490 1 0.416852 0.906088 0.993298
675 1 0.10873 0.672416 0.577795
676 1 0.0155765 0.749408 0.587991
745 1 0.0025071 0.682107 0.665738
295 1 0.254174 0.996581 0.745002
679 1 0.246212 0.676884 0.582666
680 1 0.174579 0.764825 0.575876
703 1 0.258296 0.841466 0.586217
749 1 0.176138 0.684456 0.66522
753 1 0.334544 0.667846 0.669061
683 1 0.426226 0.663908 0.57052
684 1 0.347976 0.750386 0.581224
754 1 0.436999 0.75506 0.656777
687 1 0.582862 0.665712 0.572809
688 1 0.510938 0.75159 0.571721
692 1 0.651503 0.738766 0.5866
850 1 0.416446 0.931355 0.82673
690 1 0.736321 0.744984 0.50013
691 1 0.740432 0.669377 0.593238
696 1 0.818027 0.745968 0.598096
761 1 0.64536 0.681499 0.679635
717 1 0.822621 0.842182 0.51706
693 1 0.835635 0.673104 0.504448
695 1 0.917689 0.688148 0.586905
719 1 0.906596 0.816392 0.578344
293 1 0.179168 0.99719 0.67111
473 1 0.670186 0.669285 0.995706
699 1 0.0927902 0.845551 0.593189
700 1 0.998151 0.911239 0.577929
704 1 0.178461 0.917211 0.585394
438 1 0.258428 0.591429 0.999315
857 1 0.668568 0.827052 0.836558
223 1 0.254909 0.990727 0.583167
773 1 0.186047 0.834482 0.675986
774 1 0.256026 0.922808 0.668227
707 1 0.425915 0.827252 0.585099
708 1 0.351594 0.91163 0.56356
851 1 0.4152 0.837482 0.90954
777 1 0.34675 0.8285 0.652441
711 1 0.576056 0.833372 0.589278
712 1 0.50584 0.917457 0.570367
716 1 0.656661 0.910096 0.582148
782 1 0.593874 0.908464 0.670116
715 1 0.743422 0.831119 0.58614
720 1 0.84361 0.915086 0.601456
478 1 0.912281 0.754828 0.984434
235 1 0.754693 0.984838 0.591467
786 1 0.746389 0.920694 0.68085
239 1 0.918137 0.985371 0.581078
494 1 0.590256 0.931365 0.984266
718 1 0.910155 0.902568 0.505746
289 1 0.995244 0.990488 0.674954
858 1 0.748979 0.924067 0.844091
722 1 0.0996797 0.5924 0.655678
794 1 0.100142 0.601712 0.836155
860 1 0.672231 0.938602 0.914269
728 1 0.166533 0.593528 0.754185
751 1 0.258692 0.686371 0.745041
729 1 0.345362 0.508743 0.652555
856 1 0.501667 0.923902 0.908874
457 1 0.984774 0.664804 0.983613
731 1 0.409727 0.51091 0.75167
732 1 0.334636 0.58701 0.738136
736 1 0.503183 0.574547 0.729871
825 1 0.356633 0.655513 0.832285
383 1 0.926109 0.986765 0.910345
291 1 0.0946981 0.999504 0.748529
740 1 0.652376 0.587444 0.746254
759 1 0.565828 0.66046 0.744953
698 1 0.0934 0.924893 0.508202
738 1 0.736772 0.599886 0.668988
810 1 0.756157 0.583454 0.823308
763 1 0.744459 0.671028 0.754332
765 1 0.827738 0.679181 0.671265
837 1 0.825573 0.671173 0.825674
724 1 0.997754 0.575003 0.776488
744 1 0.82579 0.590548 0.738932
817 1 0.996072 0.670819 0.831676
746 1 0.0914979 0.776489 0.671042
747 1 0.106444 0.68738 0.739385
748 1 0.0303456 0.749716 0.75302
769 1 0.00936033 0.84022 0.682122
771 1 0.0928775 0.843363 0.755634
818 1 0.086298 0.761793 0.839318
841 1 0.00273538 0.831914 0.824814
750 1 0.258995 0.756999 0.658064
752 1 0.193551 0.767798 0.757511
755 1 0.428065 0.643154 0.738501
756 1 0.352654 0.741607 0.746311
779 1 0.404392 0.83631 0.751515
760 1 0.488893 0.756451 0.751847
758 1 0.569219 0.750909 0.662392
764 1 0.657074 0.750329 0.761427
833 1 0.677343 0.672527 0.835295
762 1 0.737951 0.742533 0.667725
785 1 0.658039 0.825652 0.681525
787 1 0.740874 0.839485 0.748058
834 1 0.748702 0.76642 0.829756
766 1 0.91107 0.765233 0.67911
767 1 0.916575 0.663461 0.755879
768 1 0.833583 0.760864 0.754422
791 1 0.918447 0.842778 0.755475
838 1 0.916089 0.754405 0.827321
665 1 0.668829 0.505086 0.501235
721 1 0.0301833 0.505445 0.658398
770 1 0.0905585 0.919301 0.67162
772 1 0.00499661 0.918433 0.751581
842 1 0.0916356 0.92554 0.837444
776 1 0.169977 0.923422 0.74137
489 1 0.330137 0.840968 0.998098
775 1 0.276791 0.826231 0.745491
781 1 0.50524 0.851396 0.682549
778 1 0.422495 0.920841 0.666593
780 1 0.339035 0.922906 0.739073
784 1 0.510219 0.922009 0.766814
864 1 0.831024 0.922924 0.917439
783 1 0.589114 0.849296 0.759856
853 1 0.487538 0.833548 0.824658
854 1 0.582618 0.934933 0.837596
788 1 0.674491 0.926295 0.772672
371 1 0.415425 0.994719 0.919003
498 1 0.754735 0.925521 0.993177
789 1 0.816133 0.833007 0.665467
792 1 0.830545 0.910502 0.749185
862 1 0.921497 0.913489 0.829692
309 1 0.835907 0.991681 0.668323
461 1 0.16944 0.674576 0.994781
861 1 0.830659 0.833584 0.828113
790 1 0.912618 0.906098 0.668675
795 1 0.0916068 0.50528 0.90992
796 1 0.0129135 0.581181 0.916959
657 1 0.323102 0.510585 0.501165
311 1 0.926528 0.987976 0.759161
798 1 0.254478 0.571759 0.839101
482 1 0.0825951 0.90915 0.998351
800 1 0.170335 0.591871 0.913949
802 1 0.429294 0.579154 0.837833
804 1 0.339671 0.56851 0.913337
827 1 0.425329 0.663514 0.925222
663 1 0.591692 0.501242 0.582942
446 1 0.590269 0.590193 0.99238
806 1 0.585697 0.589476 0.831058
808 1 0.50876 0.595272 0.918024
831 1 0.580078 0.670775 0.904099
469 1 0.5109 0.677657 0.993681
369 1 0.325873 0.98732 0.840243
450 1 0.765258 0.57567 0.991138
835 1 0.753649 0.660669 0.915346
812 1 0.668489 0.593494 0.920478
816 1 0.820833 0.584539 0.904776
454 1 0.923826 0.577019 0.977209
477 1 0.832997 0.658155 0.987362
814 1 0.907274 0.582336 0.834327
863 1 0.908136 0.831799 0.909939
819 1 0.102024 0.674568 0.919843
820 1 0.00157797 0.758534 0.912364
843 1 0.0873875 0.830127 0.921959
502 1 0.911923 0.912208 0.996245
821 1 0.195414 0.680314 0.836617
822 1 0.270401 0.748102 0.83386
845 1 0.175798 0.835046 0.827969
823 1 0.270144 0.647798 0.912951
824 1 0.176965 0.757624 0.91608
826 1 0.403748 0.756026 0.833249
829 1 0.492165 0.66954 0.834268
828 1 0.335424 0.750259 0.93037
855 1 0.602126 0.828498 0.92133
830 1 0.578104 0.747614 0.826281
832 1 0.506714 0.757908 0.917668
671 1 0.940988 0.509254 0.594833
809 1 0.674261 0.506482 0.819862
859 1 0.755397 0.841966 0.911176
836 1 0.667374 0.743357 0.912625
433 1 0.0184253 0.501467 0.995372
840 1 0.826924 0.739133 0.910465
839 1 0.907378 0.664922 0.906588
727 1 0.241556 0.500846 0.741242
811 1 0.74112 0.500278 0.906788
844 1 0.00183047 0.901599 0.904818
653 1 0.175956 0.501827 0.504311
381 1 0.835457 0.998917 0.827549
848 1 0.170413 0.908404 0.902766
367 1 0.242378 0.995628 0.929404
849 1 0.328874 0.841698 0.834075
846 1 0.250992 0.913139 0.819777
847 1 0.258273 0.827063 0.92178
852 1 0.33348 0.912092 0.923118
735 1 0.580255 0.502024 0.753224
449 1 0.66721 0.502384 0.990072
307 1 0.743747 0.998672 0.751672
462 1 0.25626 0.742657 0.997291
363 1 0.0795368 0.994744 0.928423
466 1 0.428671 0.750396 0.995759
481 1 0.988252 0.826248 0.996686
697 1 0.011021 0.830643 0.51101
486 1 0.249694 0.910526 0.999971
