ITEM: TIMESTEP
15750
ITEM: NUMBER OF ATOMS
864
ITEM: BOX BOUNDS pp pp pp
0.0000000000000000e+00 3.1559999999999999e+01
0.0000000000000000e+00 3.1559999999999999e+01
0.0000000000000000e+00 3.1559999999999999e+01
ITEM: ATOMS id type xs ys zs
4 1 0.0342502 0.0800398 0.0706662
138 1 0.279167 0.423941 0.493384
130 1 0.44899 0.266926 0.476333
114 1 0.287979 0.0867904 0.484997
8 1 0.193599 0.104824 0.0712639
42 1 0.287601 0.0936929 0.148614
77 1 0.185993 0.00410565 0.306574
125 1 0.202126 0.17716 0.483693
12 1 0.360632 0.0934567 0.0680488
46 1 0.429186 0.0803684 0.14489
57 1 0.36445 0.181712 0.144357
15 1 0.103191 0.16907 0.0628975
16 1 0.022588 0.235719 0.0615505
50 1 0.109142 0.257635 0.165125
49 1 0.0376525 0.171772 0.148963
61 1 0.0265295 0.326659 0.161694
19 1 0.257474 0.177953 0.0749145
20 1 0.175766 0.249299 0.0663296
53 1 0.170587 0.168741 0.147602
54 1 0.258994 0.244325 0.150064
24 1 0.350275 0.265203 0.0776887
23 1 0.436368 0.176234 0.0579611
58 1 0.441646 0.256698 0.141557
27 1 0.105353 0.345467 0.0849505
62 1 0.112215 0.430259 0.162184
28 1 0.031893 0.428867 0.0725599
32 1 0.185375 0.41862 0.0691411
31 1 0.277556 0.352081 0.06546
66 1 0.257544 0.433765 0.154214
65 1 0.185464 0.346096 0.170048
69 1 0.338889 0.348517 0.141851
36 1 0.35073 0.433612 0.0756363
35 1 0.421409 0.340442 0.0652159
70 1 0.436756 0.430152 0.133945
38 1 0.115379 0.0811572 0.15164
40 1 0.0289358 0.0898921 0.243177
74 1 0.109447 0.0823375 0.319692
51 1 0.10504 0.166223 0.231889
103 1 0.273866 0.3315 0.395359
44 1 0.197683 0.0965169 0.229904
142 1 0.459813 0.427071 0.474415
78 1 0.275098 0.0879164 0.319804
43 1 0.28611 0.0176157 0.226474
48 1 0.3689 0.100779 0.234554
82 1 0.447202 0.0919428 0.312063
121 1 0.0245101 0.18847 0.486214
47 1 0.444827 0.0155477 0.235508
85 1 0.0239746 0.180094 0.316268
86 1 0.109661 0.247396 0.315688
52 1 0.0268202 0.256439 0.237464
55 1 0.281373 0.17258 0.237065
89 1 0.201633 0.176392 0.318489
56 1 0.192142 0.254987 0.231338
90 1 0.273128 0.266373 0.305381
101 1 0.182239 0.339336 0.321865
59 1 0.440695 0.1839 0.225544
60 1 0.349826 0.276517 0.225599
94 1 0.450945 0.269361 0.308689
93 1 0.365309 0.195752 0.301706
63 1 0.103907 0.343024 0.242524
64 1 0.0259658 0.42263 0.221841
98 1 0.101708 0.419132 0.323061
97 1 0.020639 0.337158 0.320076
67 1 0.279526 0.359537 0.229523
68 1 0.17627 0.420057 0.250057
102 1 0.260326 0.42996 0.323222
71 1 0.456696 0.351302 0.223213
105 1 0.358823 0.332184 0.319775
106 1 0.447506 0.417882 0.315727
72 1 0.370405 0.418127 0.232421
75 1 0.100778 0.0244185 0.413536
107 1 0.435043 0.335457 0.38762
87 1 0.113529 0.160091 0.409074
137 1 0.205999 0.347949 0.482454
76 1 0.0301944 0.101275 0.389493
39 1 0.109016 6.72531e-05 0.226964
80 1 0.200021 0.0931392 0.400757
100 1 0.0255208 0.4277 0.401021
126 1 0.278043 0.257226 0.487003
83 1 0.462004 0.0153648 0.39562
117 1 0.381793 0.0177014 0.47281
84 1 0.369153 0.109687 0.388263
104 1 0.194896 0.4253 0.410762
133 1 0.0184665 0.350719 0.488812
88 1 0.0263803 0.26425 0.39815
108 1 0.358539 0.419977 0.397942
141 1 0.358031 0.346177 0.479466
91 1 0.280542 0.178047 0.400555
92 1 0.199466 0.2547 0.40386
129 1 0.359084 0.168929 0.474476
95 1 0.454494 0.182443 0.384547
96 1 0.36225 0.262238 0.403945
79 1 0.284359 0.021226 0.40722
7 1 0.288393 0.00804762 0.0735024
118 1 0.453762 0.0972487 0.471933
99 1 0.102739 0.342831 0.398603
41 1 0.207006 0.0145178 0.136155
3 1 0.106377 0.00116156 0.0745587
109 1 0.0184259 0.020006 0.486058
110 1 0.125794 0.0962348 0.496561
122 1 0.10419 0.278923 0.488005
81 1 0.371559 0.0116626 0.333249
134 1 0.103931 0.423547 0.49129
333 1 0.358918 0.485927 0.485317
113 1 0.192563 0.00330419 0.475778
291 1 0.116219 0.497379 0.397598
5 1 0.20468 0.0172887 0.0013777
146 1 0.10217 0.11901 0.64253
216 1 0.34881 0.420549 0.907424
111 1 0.108263 0.0203982 0.570595
153 1 0.355589 0.00793351 0.646571
116 1 0.196469 0.087907 0.56391
150 1 0.283455 0.0965533 0.637453
149 1 0.193664 0.00326165 0.64357
9 1 0.359826 0.018984 0.996039
120 1 0.37538 0.0994246 0.559623
154 1 0.443167 0.0955163 0.654467
26 1 0.124437 0.448708 0.988372
185 1 0.196375 0.0173686 0.821017
123 1 0.11222 0.188652 0.550893
124 1 0.0182082 0.273379 0.574608
158 1 0.111323 0.264807 0.64343
157 1 0.0147306 0.183219 0.638739
161 1 0.19232 0.174494 0.628554
127 1 0.281383 0.184362 0.55523
128 1 0.193759 0.270322 0.575317
162 1 0.268039 0.261373 0.655647
183 1 0.116212 0.0129988 0.896373
405 1 0.361608 0.487023 0.82585
131 1 0.447886 0.175751 0.579976
165 1 0.358547 0.17348 0.648521
132 1 0.378206 0.266934 0.559193
166 1 0.444013 0.256886 0.646871
135 1 0.103896 0.354479 0.576366
170 1 0.101812 0.421898 0.658415
169 1 0.0292251 0.352798 0.661606
136 1 0.0162073 0.429373 0.569585
34 1 0.428143 0.440753 0.996924
139 1 0.285406 0.328928 0.56613
173 1 0.18375 0.348655 0.65041
140 1 0.20778 0.41535 0.576815
174 1 0.271563 0.412419 0.665163
1 1 0.0269564 0.0204773 0.966605
177 1 0.364557 0.33802 0.648334
143 1 0.449585 0.347057 0.55029
144 1 0.370959 0.42686 0.586526
178 1 0.463778 0.417315 0.646781
148 1 0.0216677 0.100817 0.724708
181 1 0.0138455 0.014263 0.805463
182 1 0.106459 0.0880293 0.804456
147 1 0.107887 0.00850426 0.721652
152 1 0.180925 0.0971455 0.711544
186 1 0.282683 0.0933217 0.804863
187 1 0.283873 0.0127201 0.907816
29 1 0.195372 0.329274 0.992118
156 1 0.365045 0.0795887 0.728826
155 1 0.45696 0.00632236 0.736087
193 1 0.008717 0.1777 0.81546
159 1 0.102065 0.177772 0.737683
194 1 0.108347 0.263751 0.822871
160 1 0.0256433 0.261649 0.730167
197 1 0.185222 0.170407 0.811057
163 1 0.279288 0.18578 0.729354
164 1 0.182919 0.266812 0.736546
198 1 0.265954 0.256314 0.810388
168 1 0.371857 0.266426 0.734392
167 1 0.433344 0.173473 0.734493
201 1 0.358283 0.185354 0.822245
202 1 0.440832 0.269724 0.828113
172 1 0.00356194 0.42793 0.743679
171 1 0.111313 0.340524 0.743458
206 1 0.0981087 0.420085 0.812674
205 1 0.0210603 0.345643 0.824052
209 1 0.190165 0.360298 0.822361
175 1 0.272257 0.339517 0.738795
210 1 0.263658 0.43273 0.819952
176 1 0.19603 0.428053 0.731757
214 1 0.441188 0.403682 0.815076
179 1 0.451418 0.338523 0.726419
180 1 0.35825 0.418478 0.73209
213 1 0.350653 0.344997 0.809602
25 1 0.034753 0.3266 0.989
184 1 0.0182858 0.0939451 0.89062
189 1 0.361265 0.00164554 0.822067
13 1 0.0125097 0.176489 0.964443
33 1 0.354944 0.336526 0.981358
112 1 0.0188247 0.106926 0.557317
188 1 0.182803 0.0930242 0.895557
17 1 0.190508 0.174632 0.97853
2 1 0.0989233 0.0883084 0.972509
190 1 0.442475 0.0960163 0.815532
10 1 0.450656 0.0870009 0.968322
192 1 0.36742 0.0909935 0.902512
215 1 0.452575 0.351276 0.905771
151 1 0.268794 0.0141086 0.725691
119 1 0.441501 0.00798132 0.555501
14 1 0.117206 0.240054 0.967208
195 1 0.10493 0.162433 0.888003
196 1 0.0201304 0.248664 0.894992
18 1 0.277132 0.255965 0.975079
200 1 0.185135 0.238362 0.892417
199 1 0.288761 0.172348 0.895551
21 1 0.353811 0.183175 0.995659
203 1 0.44646 0.192539 0.896762
204 1 0.36138 0.270769 0.89898
22 1 0.444083 0.268297 0.982356
6 1 0.275786 0.0993435 0.99535
207 1 0.11287 0.341713 0.909633
208 1 0.0271826 0.418354 0.907504
115 1 0.282613 0.0111637 0.568739
30 1 0.266715 0.429522 0.988474
212 1 0.198103 0.439158 0.900178
211 1 0.266964 0.335076 0.891009
145 1 0.028649 0.0136936 0.644484
329 1 0.204767 0.496541 0.500742
220 1 0.0314289 0.590226 0.0621577
255 1 0.101514 0.510556 0.238542
350 1 0.100979 0.928683 0.484261
224 1 0.199118 0.607947 0.0665366
258 1 0.272441 0.595133 0.165554
318 1 0.270385 0.947967 0.331318
37 1 0.027927 0.990939 0.148047
228 1 0.341234 0.596231 0.0762715
261 1 0.357488 0.510806 0.151833
262 1 0.432742 0.606407 0.160429
227 1 0.431633 0.523986 0.066958
231 1 0.112149 0.676786 0.0644527
232 1 0.0290687 0.75268 0.0756733
266 1 0.116913 0.758571 0.155379
265 1 0.0223697 0.682882 0.15247
269 1 0.190659 0.677229 0.150744
236 1 0.187619 0.752868 0.0622215
235 1 0.270404 0.693225 0.0769824
270 1 0.279764 0.770829 0.160053
240 1 0.354022 0.752829 0.0715209
273 1 0.362799 0.693255 0.159703
239 1 0.430757 0.682734 0.0775381
274 1 0.451608 0.763483 0.160665
251 1 0.426938 0.838614 0.0877
285 1 0.350893 0.858258 0.157956
277 1 0.0310721 0.819021 0.159806
244 1 0.0364652 0.923348 0.064312
243 1 0.11946 0.841444 0.0576558
278 1 0.124639 0.924142 0.153056
247 1 0.271806 0.844641 0.0886042
248 1 0.192512 0.928515 0.0662473
282 1 0.267589 0.936771 0.164967
295 1 0.278081 0.506395 0.406896
252 1 0.34609 0.922638 0.0587811
286 1 0.442752 0.927363 0.149536
346 1 0.441854 0.75319 0.481716
254 1 0.108006 0.590954 0.149368
289 1 0.0258552 0.510588 0.322887
290 1 0.108836 0.603085 0.322672
256 1 0.0357528 0.599929 0.245867
324 1 0.374908 0.931044 0.405548
260 1 0.18656 0.590093 0.236592
299 1 0.436261 0.506656 0.405202
323 1 0.447449 0.847921 0.393594
257 1 0.18233 0.513779 0.165223
264 1 0.356731 0.598114 0.233442
298 1 0.443309 0.589073 0.318118
263 1 0.433182 0.511717 0.230374
267 1 0.116128 0.680778 0.239889
268 1 0.0120243 0.750611 0.243622
272 1 0.198498 0.778535 0.229237
306 1 0.268994 0.770032 0.314983
271 1 0.259899 0.68269 0.247581
305 1 0.18826 0.666543 0.335271
275 1 0.448898 0.691132 0.234826
276 1 0.366763 0.778679 0.23639
310 1 0.451319 0.777438 0.314029
309 1 0.371098 0.693461 0.305401
287 1 0.446179 0.846493 0.23189
279 1 0.1103 0.837053 0.236285
280 1 0.033227 0.915771 0.234608
314 1 0.110627 0.918686 0.315496
313 1 0.0305319 0.815123 0.314562
320 1 0.1734 0.918714 0.404666
281 1 0.186704 0.838561 0.146262
283 1 0.283658 0.867769 0.250985
284 1 0.192017 0.919374 0.246428
317 1 0.19677 0.847568 0.327517
322 1 0.45339 0.934385 0.321462
288 1 0.360866 0.939316 0.251514
321 1 0.371712 0.861127 0.314145
292 1 0.0298328 0.608016 0.395056
223 1 0.27115 0.505162 0.0713216
337 1 0.0152324 0.681856 0.490169
319 1 0.295898 0.848228 0.405223
341 1 0.20253 0.667803 0.486829
330 1 0.281049 0.584927 0.474356
294 1 0.274375 0.591643 0.331425
296 1 0.183384 0.578836 0.418337
334 1 0.4397 0.587332 0.4798
300 1 0.362264 0.608444 0.413674
311 1 0.44287 0.680111 0.390828
345 1 0.367343 0.686011 0.489071
297 1 0.351291 0.508248 0.32158
302 1 0.118238 0.754902 0.314009
304 1 0.0171934 0.765709 0.406763
303 1 0.101991 0.690717 0.398208
253 1 0.0300022 0.513509 0.145036
301 1 0.029125 0.677675 0.317835
73 1 0.0362971 0.995033 0.322141
308 1 0.196213 0.757374 0.40801
307 1 0.28632 0.675181 0.411161
338 1 0.103891 0.761641 0.491121
312 1 0.369424 0.753825 0.39529
293 1 0.190712 0.51206 0.308208
349 1 0.0147851 0.827579 0.499182
357 1 0.37213 0.834337 0.479502
316 1 0.0279323 0.906925 0.402242
315 1 0.111665 0.836013 0.409689
354 1 0.272117 0.93612 0.477242
326 1 0.112082 0.584758 0.495436
259 1 0.277138 0.514578 0.239709
353 1 0.193475 0.837077 0.477762
219 1 0.128518 0.519965 0.0715369
342 1 0.287495 0.753911 0.489943
358 1 0.456161 0.923509 0.481818
45 1 0.357904 0.994046 0.14834
11 1 0.440714 0.999599 0.0675026
226 1 0.424438 0.609286 0.00133897
325 1 0.0264354 0.502541 0.495638
362 1 0.107116 0.587804 0.649722
328 1 0.0270817 0.594116 0.578696
246 1 0.263636 0.913078 0.985367
373 1 0.0171549 0.662877 0.661836
332 1 0.201431 0.590372 0.565197
366 1 0.28717 0.586455 0.648296
377 1 0.180088 0.685581 0.642545
249 1 0.346386 0.849393 0.977932
225 1 0.347015 0.512905 0.998366
336 1 0.363307 0.576118 0.558916
363 1 0.113891 0.503676 0.731918
339 1 0.101621 0.671811 0.574606
340 1 0.0279242 0.78108 0.593223
374 1 0.105011 0.776498 0.656685
385 1 0.0214561 0.857198 0.667294
351 1 0.106335 0.84499 0.559137
344 1 0.183557 0.77135 0.561162
343 1 0.288553 0.663051 0.569925
378 1 0.268436 0.762522 0.635334
347 1 0.438475 0.655695 0.568621
348 1 0.364669 0.761098 0.568239
382 1 0.439822 0.756607 0.637502
381 1 0.370519 0.663739 0.658442
386 1 0.100823 0.921247 0.655613
352 1 0.0228128 0.934342 0.565238
355 1 0.274094 0.845627 0.565263
356 1 0.20592 0.921368 0.56809
389 1 0.200547 0.845348 0.644735
390 1 0.27244 0.917036 0.664767
359 1 0.443189 0.849975 0.565149
393 1 0.358519 0.847172 0.647222
360 1 0.356764 0.925325 0.544646
394 1 0.439552 0.932562 0.639308
371 1 0.44804 0.510385 0.739706
364 1 0.0149413 0.586225 0.735994
398 1 0.105051 0.581194 0.810498
242 1 0.116633 0.944962 0.983023
375 1 0.109704 0.679502 0.740104
427 1 0.279277 0.834069 0.89229
234 1 0.280236 0.768841 0.982665
368 1 0.200078 0.599778 0.720124
402 1 0.274833 0.593746 0.805731
431 1 0.439221 0.837053 0.898961
370 1 0.469061 0.595625 0.657259
372 1 0.360867 0.58603 0.729886
406 1 0.447807 0.587011 0.814435
432 1 0.356681 0.936275 0.911801
376 1 0.0226942 0.758123 0.750468
410 1 0.108484 0.760421 0.81582
409 1 0.0342205 0.670394 0.817846
421 1 0.0273982 0.845461 0.802633
379 1 0.275893 0.685687 0.727
413 1 0.18218 0.669118 0.834169
380 1 0.190603 0.757726 0.735274
383 1 0.455276 0.683335 0.725027
417 1 0.349401 0.679714 0.803253
384 1 0.368658 0.767978 0.729192
418 1 0.438302 0.754142 0.809145
388 1 0.0124324 0.932977 0.742911
387 1 0.129118 0.845658 0.734748
422 1 0.107187 0.930845 0.803035
425 1 0.195473 0.839702 0.825657
391 1 0.273903 0.83604 0.740031
392 1 0.194288 0.927794 0.743437
426 1 0.282585 0.931266 0.799494
395 1 0.441353 0.84301 0.714655
429 1 0.357315 0.837607 0.806871
396 1 0.369618 0.921159 0.72117
430 1 0.426319 0.912934 0.812002
428 1 0.194174 0.924842 0.894689
401 1 0.187591 0.508268 0.811301
191 1 0.452446 0.993902 0.900372
400 1 0.0374817 0.594924 0.89363
218 1 0.109477 0.60678 0.979814
403 1 0.278507 0.517513 0.891863
404 1 0.199641 0.600531 0.902256
361 1 0.0230472 0.509028 0.648834
222 1 0.283125 0.6016 0.972667
238 1 0.430613 0.770243 0.98833
408 1 0.371062 0.587573 0.903557
407 1 0.454202 0.519158 0.907622
221 1 0.201379 0.527636 0.978492
229 1 0.020655 0.672501 0.999198
230 1 0.113066 0.753072 0.988431
412 1 0.0313711 0.754624 0.900433
411 1 0.109194 0.686257 0.899963
414 1 0.274454 0.754582 0.821533
233 1 0.204635 0.681504 0.979284
415 1 0.283813 0.663859 0.888077
416 1 0.188468 0.756035 0.89118
369 1 0.38353 0.517474 0.653364
237 1 0.350738 0.679436 0.987406
399 1 0.104206 0.510176 0.892536
419 1 0.433155 0.680137 0.901475
420 1 0.356193 0.761232 0.898773
217 1 0.0319854 0.519212 0.987648
241 1 0.0438759 0.840841 0.973717
424 1 0.0269508 0.938424 0.898497
423 1 0.0999859 0.858429 0.887339
327 1 0.120224 0.510022 0.560447
335 1 0.459218 0.505496 0.56664
245 1 0.185585 0.844227 0.969097
367 1 0.280708 0.507491 0.72098
250 1 0.445002 0.913674 0.986817
397 1 0.0232019 0.504384 0.820201
365 1 0.190637 0.504844 0.640562
331 1 0.283807 0.503161 0.579169
574 1 0.93591 0.430809 0.480435
470 1 0.61489 0.0939465 0.138516
496 1 0.536058 0.419093 0.225568
471 1 0.617354 0.00299991 0.232221
440 1 0.688283 0.0983827 0.0586526
474 1 0.787969 0.0899004 0.152058
550 1 0.936992 0.0973368 0.481873
561 1 0.859693 0.177745 0.485915
444 1 0.865637 0.0837331 0.0652258
478 1 0.954479 0.0797301 0.159064
489 1 0.861683 0.175446 0.145128
536 1 0.695709 0.437549 0.394487
535 1 0.777094 0.348594 0.39148
447 1 0.602381 0.188536 0.0543223
482 1 0.5961 0.26001 0.134561
448 1 0.52029 0.274772 0.0609108
557 1 0.671192 0.177143 0.484679
451 1 0.778418 0.176197 0.0712875
485 1 0.695485 0.181058 0.144538
452 1 0.694763 0.259277 0.0584757
486 1 0.781503 0.254675 0.140028
456 1 0.863773 0.260145 0.0700478
455 1 0.949054 0.15161 0.0795572
490 1 0.943922 0.250621 0.15511
459 1 0.607547 0.347566 0.0700005
494 1 0.598994 0.427958 0.13599
505 1 0.544548 0.0184226 0.310523
460 1 0.518017 0.437152 0.0625178
497 1 0.687464 0.332523 0.143563
463 1 0.764834 0.354307 0.0594756
464 1 0.684471 0.428791 0.0741372
498 1 0.771554 0.425873 0.150129
467 1 0.961276 0.332944 0.0773703
468 1 0.856994 0.435823 0.0560111
501 1 0.856343 0.350173 0.144784
502 1 0.944081 0.431296 0.130906
436 1 0.523418 0.0890543 0.0572028
506 1 0.60786 0.10148 0.302237
472 1 0.517044 0.103391 0.221274
569 1 0.689352 0.32808 0.487023
465 1 0.866371 0.343494 0.00260467
476 1 0.691932 0.0884993 0.223633
510 1 0.785667 0.0968508 0.309263
521 1 0.700923 0.173923 0.311825
558 1 0.770655 0.244211 0.484307
480 1 0.873818 0.104996 0.227498
475 1 0.773292 0.0178881 0.236175
473 1 0.693641 0.022555 0.135468
484 1 0.545371 0.272486 0.232593
517 1 0.517645 0.173761 0.300258
483 1 0.606294 0.168825 0.221743
518 1 0.616616 0.259313 0.31615
487 1 0.77609 0.172171 0.227686
488 1 0.677938 0.24253 0.228614
522 1 0.782265 0.263102 0.309192
499 1 0.777762 0.338779 0.224587
525 1 0.858665 0.179786 0.312668
491 1 0.956353 0.173216 0.225162
492 1 0.865093 0.262182 0.229904
526 1 0.951435 0.258985 0.313203
537 1 0.868098 0.341024 0.314856
529 1 0.540315 0.349118 0.318199
495 1 0.618123 0.35161 0.214958
530 1 0.610684 0.435296 0.312599
443 1 0.950187 0.00273157 0.0676202
533 1 0.685419 0.354313 0.31183
534 1 0.782125 0.424817 0.30958
500 1 0.691795 0.427878 0.231857
503 1 0.940387 0.337805 0.234114
538 1 0.970082 0.422396 0.307228
504 1 0.858543 0.427528 0.217284
481 1 0.518876 0.17434 0.127325
570 1 0.766836 0.424549 0.477997
573 1 0.857451 0.337158 0.475686
508 1 0.529203 0.106978 0.399096
542 1 0.605095 0.0889149 0.487503
507 1 0.611977 0.00559478 0.39874
541 1 0.532076 0.0108307 0.484726
469 1 0.52129 0.0137007 0.143515
512 1 0.687437 0.0943273 0.395178
549 1 0.851794 0.00849345 0.4737
514 1 0.940323 0.103675 0.322088
516 1 0.847116 0.086074 0.407736
539 1 0.946111 0.338457 0.4025
553 1 0.52888 0.183376 0.482775
554 1 0.596684 0.261228 0.480907
519 1 0.610133 0.187039 0.398663
520 1 0.530989 0.270889 0.385528
546 1 0.755324 0.0986419 0.490541
515 1 0.955002 0.000480466 0.405674
523 1 0.780475 0.179562 0.397703
524 1 0.701643 0.251486 0.401357
511 1 0.759262 0.0165211 0.394343
545 1 0.679606 0.0221253 0.4771
527 1 0.95297 0.182622 0.407655
528 1 0.858728 0.261429 0.397903
531 1 0.614124 0.343338 0.39606
532 1 0.527159 0.426066 0.395321
540 1 0.862726 0.419867 0.387751
565 1 0.532943 0.343993 0.480182
493 1 0.526131 0.345616 0.140873
566 1 0.605204 0.417916 0.480522
513 1 0.869254 0.0113319 0.325485
544 1 0.533574 0.0928036 0.586496
543 1 0.606342 0.00766706 0.57792
449 1 0.70022 0.18238 0.98235
548 1 0.682625 0.108705 0.573381
547 1 0.761098 0.0252195 0.568444
559 1 0.777188 0.169742 0.570902
616 1 0.545817 0.102763 0.900866
552 1 0.863923 0.0975257 0.559668
597 1 0.840248 0.176934 0.653275
462 1 0.760936 0.433421 0.975862
556 1 0.526604 0.260673 0.57026
555 1 0.594604 0.18187 0.582329
590 1 0.609022 0.2546 0.666713
589 1 0.515775 0.174708 0.666896
593 1 0.696042 0.177111 0.658189
560 1 0.675378 0.249359 0.576487
594 1 0.764047 0.258211 0.647992
571 1 0.756661 0.339401 0.571618
563 1 0.931622 0.178048 0.566417
564 1 0.840982 0.259219 0.570452
598 1 0.92699 0.257071 0.651235
575 1 0.934715 0.356716 0.56034
567 1 0.620496 0.341353 0.587154
602 1 0.610107 0.439815 0.663558
568 1 0.536455 0.423162 0.571401
601 1 0.538 0.34719 0.658251
466 1 0.939513 0.427847 0.984777
605 1 0.688157 0.360756 0.668215
572 1 0.686866 0.431732 0.570958
606 1 0.78662 0.433885 0.636557
623 1 0.950296 0.00406417 0.889888
609 1 0.840859 0.340782 0.653373
576 1 0.84978 0.415378 0.553475
610 1 0.926582 0.420811 0.641257
644 1 0.691548 0.420545 0.894523
578 1 0.609114 0.0898131 0.66883
580 1 0.522775 0.0942028 0.739741
614 1 0.616837 0.0954035 0.813779
579 1 0.612362 5.45617e-05 0.748133
648 1 0.84874 0.416162 0.918471
582 1 0.76635 0.0849215 0.666318
562 1 0.942048 0.25896 0.503066
584 1 0.693838 0.0864678 0.736973
618 1 0.772167 0.0790839 0.825848
647 1 0.949213 0.335941 0.908295
586 1 0.942731 0.092213 0.642342
588 1 0.855841 0.0942735 0.736731
622 1 0.936681 0.0897209 0.812184
442 1 0.937483 0.0945301 0.989521
434 1 0.60502 0.0905223 0.99424
625 1 0.535227 0.174455 0.824202
591 1 0.613283 0.176616 0.743048
592 1 0.523002 0.260013 0.74573
626 1 0.621234 0.253627 0.823962
629 1 0.691951 0.170787 0.822608
596 1 0.692752 0.255815 0.731831
595 1 0.769021 0.177656 0.734666
630 1 0.759769 0.248337 0.813952
641 1 0.691152 0.337614 0.820337
599 1 0.921938 0.175513 0.729543
600 1 0.844146 0.254756 0.729934
634 1 0.935292 0.25982 0.800971
637 1 0.53995 0.350363 0.821306
603 1 0.614369 0.349155 0.750212
638 1 0.608782 0.434951 0.823386
604 1 0.528476 0.424312 0.744769
607 1 0.774215 0.345587 0.732698
608 1 0.690066 0.434564 0.750672
642 1 0.774609 0.426215 0.830318
645 1 0.852109 0.337646 0.814069
611 1 0.937311 0.33908 0.723499
646 1 0.939294 0.424048 0.835898
612 1 0.859573 0.427952 0.743188
587 1 0.924515 0.0127154 0.743551
581 1 0.694217 0.00305362 0.651692
617 1 0.683401 0.0149318 0.835899
577 1 0.52515 0.0129653 0.65376
441 1 0.865622 0.00750998 0.978087
585 1 0.85821 0.011167 0.663721
620 1 0.677072 0.0842483 0.914443
643 1 0.776933 0.346016 0.898519
639 1 0.613775 0.355972 0.908686
438 1 0.77137 0.0835858 0.978716
633 1 0.857258 0.188876 0.820623
624 1 0.862941 0.0793094 0.903993
640 1 0.527509 0.425587 0.901183
461 1 0.683802 0.353761 0.989836
445 1 0.526896 0.176945 0.985105
628 1 0.529119 0.2659 0.901711
627 1 0.626686 0.177635 0.901933
446 1 0.613905 0.265719 0.979256
837 1 0.858226 0.498665 0.828962
631 1 0.774645 0.172749 0.902443
632 1 0.698432 0.26442 0.912961
551 1 0.936805 0.0122686 0.578218
454 1 0.943541 0.25788 0.981054
453 1 0.857461 0.166307 0.975021
635 1 0.936641 0.170468 0.888287
636 1 0.861406 0.254994 0.914748
457 1 0.522064 0.343725 0.983588
458 1 0.599765 0.435721 0.990805
450 1 0.786293 0.258556 0.986728
433 1 0.528078 0.00802655 0.978272
583 1 0.773712 0.00537608 0.73826
437 1 0.696336 0.00181702 0.981036
686 1 0.614295 0.586691 0.152944
652 1 0.515162 0.604733 0.0842448
509 1 0.690333 0.999283 0.323274
651 1 0.611984 0.514821 0.0715881
656 1 0.684447 0.591589 0.069909
690 1 0.77781 0.598964 0.159682
689 1 0.68601 0.508313 0.15695
685 1 0.520315 0.516536 0.150335
693 1 0.862818 0.521219 0.145386
660 1 0.861099 0.598326 0.0700692
694 1 0.957585 0.597769 0.142966
695 1 0.949807 0.511621 0.216411
663 1 0.609372 0.675606 0.0711539
698 1 0.612231 0.760488 0.146108
664 1 0.520522 0.753243 0.0615758
697 1 0.53826 0.694826 0.157248
675 1 0.603927 0.844084 0.0769677
667 1 0.761611 0.667148 0.0628853
701 1 0.697477 0.67263 0.15505
668 1 0.691653 0.754092 0.0660298
702 1 0.78508 0.760126 0.14497
705 1 0.846545 0.677009 0.154707
671 1 0.945782 0.670833 0.0685895
672 1 0.870973 0.749208 0.0611578
706 1 0.939939 0.759273 0.144345
710 1 0.621721 0.934468 0.148458
709 1 0.522337 0.847351 0.148721
676 1 0.522257 0.921826 0.0658407
679 1 0.774275 0.845679 0.0679421
713 1 0.698291 0.842694 0.145932
680 1 0.698437 0.921811 0.0723765
714 1 0.77312 0.921363 0.155265
717 1 0.879592 0.842535 0.132088
683 1 0.960234 0.848013 0.0541602
684 1 0.866828 0.931129 0.0600509
718 1 0.957184 0.916896 0.144965
439 1 0.785395 0.996795 0.0607021
722 1 0.619725 0.589025 0.313078
688 1 0.526038 0.608376 0.229051
733 1 0.526282 0.665045 0.321101
782 1 0.601979 0.932474 0.485397
692 1 0.707286 0.589436 0.232214
726 1 0.785037 0.579836 0.316412
757 1 0.534427 0.506665 0.49216
790 1 0.945069 0.925672 0.488261
696 1 0.866503 0.596553 0.235882
730 1 0.943968 0.595001 0.315475
741 1 0.863817 0.679085 0.312894
699 1 0.622783 0.667084 0.22751
734 1 0.608932 0.745893 0.327046
700 1 0.539397 0.765369 0.237674
703 1 0.777887 0.670373 0.241862
704 1 0.687395 0.758682 0.226438
738 1 0.775947 0.760847 0.315435
737 1 0.703984 0.673714 0.320744
707 1 0.935647 0.679597 0.225392
708 1 0.862519 0.779374 0.227001
742 1 0.928715 0.774321 0.319065
745 1 0.524069 0.854601 0.306984
712 1 0.532743 0.931522 0.233847
711 1 0.611579 0.854373 0.227834
746 1 0.59882 0.9315 0.317009
715 1 0.769516 0.846624 0.235715
749 1 0.684433 0.849832 0.319431
716 1 0.697509 0.939459 0.225005
750 1 0.776035 0.939609 0.312429
753 1 0.85153 0.851942 0.311392
719 1 0.9402 0.85186 0.242718
720 1 0.849618 0.925505 0.236423
754 1 0.940219 0.91614 0.326683
724 1 0.519072 0.585376 0.400696
785 1 0.696079 0.837372 0.490267
729 1 0.863358 0.511818 0.328685
766 1 0.941382 0.597886 0.496194
728 1 0.703105 0.581737 0.396414
761 1 0.687149 0.503393 0.48553
731 1 0.94483 0.522772 0.418953
732 1 0.852023 0.593739 0.398386
770 1 0.605137 0.747868 0.47081
769 1 0.514637 0.683369 0.481913
735 1 0.636872 0.661264 0.401232
736 1 0.52415 0.771601 0.401316
758 1 0.612876 0.576862 0.488817
786 1 0.766107 0.943852 0.485443
740 1 0.699606 0.760583 0.396457
739 1 0.773985 0.672692 0.408519
659 1 0.941781 0.510167 0.0614589
725 1 0.702337 0.509347 0.310468
744 1 0.864098 0.753476 0.407751
743 1 0.940063 0.676961 0.398661
781 1 0.524376 0.837937 0.493731
748 1 0.531579 0.925173 0.405138
747 1 0.609726 0.837411 0.406252
687 1 0.605915 0.507052 0.232096
762 1 0.772928 0.582951 0.477526
477 1 0.875729 0.994142 0.150249
751 1 0.762963 0.846773 0.391391
752 1 0.681819 0.929001 0.399593
655 1 0.778264 0.506091 0.0767139
755 1 0.942271 0.841328 0.41189
756 1 0.850366 0.909695 0.402111
777 1 0.868253 0.67875 0.480973
723 1 0.608153 0.528582 0.393834
727 1 0.772225 0.512264 0.403289
435 1 0.608439 0.999121 0.0617193
765 1 0.845157 0.506744 0.483333
691 1 0.782652 0.511325 0.230988
721 1 0.528691 0.502056 0.307591
774 1 0.783447 0.754924 0.494468
789 1 0.860609 0.832507 0.492678
479 1 0.951133 0.997679 0.242567
794 1 0.594002 0.588551 0.653372
760 1 0.528124 0.596086 0.567281
665 1 0.690197 0.676906 0.985698
764 1 0.686963 0.594297 0.57124
798 1 0.773827 0.605816 0.661697
768 1 0.849271 0.580378 0.57283
662 1 0.615017 0.753846 0.996151
802 1 0.937595 0.577728 0.636019
779 1 0.934447 0.673116 0.566901
767 1 0.933329 0.505116 0.559666
805 1 0.529384 0.687733 0.647173
771 1 0.601156 0.678618 0.561423
806 1 0.609871 0.759667 0.666328
772 1 0.528085 0.761108 0.571691
809 1 0.675242 0.658667 0.663731
775 1 0.772861 0.662663 0.567596
776 1 0.675509 0.757328 0.578174
810 1 0.771774 0.726842 0.656161
780 1 0.857392 0.759182 0.572397
813 1 0.860405 0.668277 0.645714
814 1 0.932201 0.761799 0.658942
817 1 0.538903 0.842788 0.645046
783 1 0.608211 0.848347 0.55479
784 1 0.527688 0.926953 0.566629
818 1 0.612093 0.934114 0.657253
821 1 0.683356 0.844046 0.65252
787 1 0.755878 0.828385 0.572715
788 1 0.697106 0.930911 0.562781
822 1 0.770869 0.921237 0.656296
666 1 0.782787 0.763711 0.988913
791 1 0.93765 0.850029 0.57447
792 1 0.850061 0.933728 0.568619
825 1 0.855028 0.850554 0.645024
830 1 0.630225 0.603863 0.825114
796 1 0.539522 0.603797 0.746774
862 1 0.938169 0.918925 0.813768
807 1 0.605637 0.683276 0.740871
661 1 0.526366 0.669611 0.988802
763 1 0.75907 0.512497 0.564678
797 1 0.695299 0.51522 0.646842
800 1 0.690624 0.599291 0.743171
834 1 0.768006 0.600374 0.833269
681 1 0.857633 0.854255 0.991259
615 1 0.60771 0.99838 0.898479
803 1 0.934442 0.518432 0.74648
678 1 0.779395 0.923895 0.986635
804 1 0.847693 0.586796 0.750137
838 1 0.928799 0.596246 0.828059
815 1 0.9366 0.676382 0.747242
808 1 0.518762 0.764733 0.738986
841 1 0.525711 0.687824 0.817553
842 1 0.603127 0.765109 0.822033
845 1 0.691508 0.697705 0.830056
811 1 0.766768 0.675105 0.755513
812 1 0.700838 0.744444 0.731025
846 1 0.774326 0.770977 0.814951
816 1 0.854665 0.746871 0.733196
849 1 0.856485 0.680153 0.822455
850 1 0.946578 0.749745 0.835522
861 1 0.87029 0.822561 0.822716
827 1 0.929305 0.848561 0.725623
820 1 0.52593 0.923278 0.72163
819 1 0.595359 0.845649 0.73671
795 1 0.609098 0.516157 0.739588
823 1 0.77028 0.829806 0.722432
857 1 0.685658 0.831118 0.806387
824 1 0.689328 0.935755 0.74949
826 1 0.93218 0.934056 0.65468
828 1 0.849876 0.914074 0.729704
832 1 0.532264 0.604001 0.903724
682 1 0.954625 0.929355 0.980542
653 1 0.686399 0.516717 0.989277
831 1 0.61 0.507152 0.900447
649 1 0.522764 0.534001 0.985054
836 1 0.686477 0.603569 0.918074
799 1 0.772736 0.505304 0.736582
658 1 0.946929 0.596187 0.986065
778 1 0.941148 0.756767 0.500465
840 1 0.867947 0.595796 0.91181
613 1 0.527703 0.995234 0.828206
673 1 0.525162 0.835669 0.996303
843 1 0.608277 0.675386 0.898878
650 1 0.612585 0.602566 0.980754
847 1 0.785145 0.683146 0.89812
848 1 0.712386 0.775459 0.904158
835 1 0.773021 0.515343 0.91024
793 1 0.531104 0.502572 0.648666
669 1 0.850735 0.664949 0.990006
863 1 0.958544 0.845925 0.89721
851 1 0.95443 0.673506 0.900986
852 1 0.878719 0.768272 0.926999
670 1 0.962585 0.762729 0.980594
864 1 0.87081 0.920224 0.902049
856 1 0.533524 0.905989 0.905687
855 1 0.605304 0.831796 0.91094
674 1 0.616972 0.92937 0.985924
854 1 0.609268 0.908317 0.82283
858 1 0.783177 0.900132 0.813725
859 1 0.799133 0.832458 0.898616
860 1 0.68489 0.901492 0.898879
759 1 0.606178 0.508366 0.580583
654 1 0.777473 0.577564 0.996367
657 1 0.862619 0.513169 0.983329
844 1 0.518549 0.762487 0.906762
801 1 0.857367 0.514143 0.663165
839 1 0.951211 0.51733 0.906541
829 1 0.532571 0.520098 0.817671
833 1 0.692893 0.516889 0.837414
853 1 0.508424 0.847276 0.812571
621 1 0.861846 0.991901 0.822013
773 1 0.693067 0.684661 0.503696
677 1 0.684615 0.83562 0.998182
619 1 0.774132 0.997037 0.902885
