ITEM: TIMESTEP
5750
ITEM: NUMBER OF ATOMS
864
ITEM: BOX BOUNDS pp pp pp
0.0000000000000000e+00 3.1559999999999999e+01
0.0000000000000000e+00 3.1559999999999999e+01
0.0000000000000000e+00 3.1559999999999999e+01
ITEM: ATOMS id type xs ys zs
8 1 0.168365 0.07073 0.0995021
208 1 0.502187 0.418247 0.408352
447 1 0.568922 0.492095 0.0750597
12 1 0.330802 0.0826518 0.0692881
161 1 0.674378 0.0104078 0.317088
31 1 0.249226 0.146702 0.0801311
274 1 0.422114 0.411718 0.491724
35 1 0.417412 0.164347 0.0859571
217 1 0.986898 0.0168996 0.490827
95 1 0.924902 0.00283198 0.241474
16 1 0.480086 0.0836958 0.0756642
86 1 0.588706 0.0922257 0.163576
75 1 0.0819808 0.0107435 0.264541
233 1 0.685335 0.00568945 0.49295
20 1 0.671213 0.0819165 0.0843081
43 1 0.746987 0.169837 0.0932316
90 1 0.739642 0.0906032 0.171109
113 1 0.658061 0.177069 0.171183
211 1 0.731259 0.330678 0.411189
215 1 0.912447 0.347619 0.405178
53 1 0.173467 0.329431 0.0128145
4 1 0.00380172 0.0839158 0.0893031
24 1 0.82107 0.0833078 0.0802476
47 1 0.906906 0.164632 0.0895217
221 1 0.15761 0.0106849 0.492561
94 1 0.924335 0.0913442 0.171669
117 1 0.826867 0.169771 0.164355
511 1 0.264953 0.492005 0.24106
27 1 0.0803661 0.166794 0.0777373
97 1 0.992337 0.171032 0.165667
257 1 0.675133 0.177475 0.497368
591 1 0.57835 0.493708 0.402278
32 1 0.167061 0.229962 0.0709517
36 1 0.32665 0.245484 0.0798612
85 1 0.50121 0.00293326 0.16199
105 1 0.334224 0.158326 0.155741
253 1 0.505979 0.176948 0.486858
129 1 0.338202 0.327868 0.168437
40 1 0.489489 0.241495 0.0781261
39 1 0.590395 0.173417 0.0816971
167 1 0.901888 0.0163819 0.416875
63 1 0.57559 0.320678 0.0628042
245 1 0.16712 0.175437 0.497848
44 1 0.66976 0.253145 0.0800691
48 1 0.832251 0.257617 0.0775788
114 1 0.753999 0.262974 0.175077
137 1 0.662953 0.321897 0.16328
28 1 0.983403 0.260684 0.0838931
163 1 0.76725 0.00817076 0.419163
118 1 0.906659 0.252951 0.16902
51 1 0.0834019 0.328311 0.0833843
122 1 0.0839092 0.391348 0.166001
125 1 0.167111 0.327505 0.147381
56 1 0.168017 0.428429 0.0789671
250 1 0.410155 0.263216 0.49814
55 1 0.258701 0.330421 0.0736141
277 1 0.495609 0.325946 0.494743
22 1 0.901391 0.0897967 0.014978
59 1 0.41288 0.321616 0.0642967
60 1 0.342833 0.409078 0.0798568
49 1 0.999795 0.334703 0.00434562
64 1 0.491282 0.420755 0.0700497
134 1 0.578397 0.414507 0.156356
68 1 0.658241 0.415379 0.0725204
133 1 0.488149 0.35101 0.154776
67 1 0.755515 0.334712 0.0712666
72 1 0.826662 0.416273 0.0750881
665 1 0.665999 0.493869 0.491617
14 1 0.581686 0.0835622 0.000465043
212 1 0.671787 0.419032 0.403718
71 1 0.902046 0.335983 0.0740003
1 1 0.996277 0.012938 0.00679748
52 1 0.99157 0.412055 0.0937162
141 1 0.825478 0.341771 0.159852
517 1 0.510002 0.490755 0.173008
74 1 0.0874097 0.0801643 0.165319
439 1 0.263958 0.495282 0.103532
76 1 0.998136 0.0846345 0.245635
146 1 0.0773185 0.0901009 0.337014
581 1 0.171635 0.485786 0.339558
78 1 0.256519 0.0783606 0.167952
80 1 0.156655 0.0858561 0.246243
583 1 0.250082 0.496635 0.413619
82 1 0.410655 0.0772727 0.171305
84 1 0.337179 0.0784934 0.25856
88 1 0.499111 0.0670947 0.246736
269 1 0.172285 0.328537 0.496308
579 1 0.0950761 0.488935 0.413613
111 1 0.564857 0.169813 0.252435
25 1 0.990823 0.170309 0.0142028
92 1 0.665128 0.0917695 0.247399
115 1 0.748619 0.177534 0.242017
96 1 0.833328 0.0927842 0.236012
189 1 0.829103 0.175182 0.32715
435 1 0.077889 0.486654 0.09303
166 1 0.913576 0.0998746 0.317555
585 1 0.325919 0.478952 0.336581
93 1 0.84281 0.0135419 0.158153
98 1 0.0746401 0.245055 0.16915
99 1 0.0723675 0.169866 0.246635
170 1 0.0758522 0.267829 0.338471
101 1 0.151442 0.173118 0.1605
173 1 0.153755 0.176514 0.331786
103 1 0.246798 0.172307 0.234812
104 1 0.168723 0.255965 0.237244
102 1 0.251796 0.252211 0.146953
106 1 0.421567 0.244323 0.156214
107 1 0.431567 0.161572 0.243065
108 1 0.339586 0.24588 0.253717
131 1 0.411642 0.33551 0.245375
109 1 0.502206 0.16148 0.161839
112 1 0.491089 0.25601 0.256783
110 1 0.553024 0.262928 0.167839
135 1 0.578768 0.331804 0.249359
185 1 0.667584 0.174054 0.332378
116 1 0.684007 0.260754 0.248992
120 1 0.835455 0.257147 0.250838
139 1 0.759829 0.351832 0.250235
100 1 0.997925 0.245687 0.250768
119 1 0.905161 0.177838 0.24574
143 1 0.911997 0.347438 0.262219
121 1 0.999518 0.319043 0.168799
123 1 0.0755579 0.325864 0.252034
194 1 0.0929131 0.407356 0.330522
127 1 0.250572 0.320885 0.246294
126 1 0.251451 0.403692 0.169613
128 1 0.173777 0.4074 0.258991
216 1 0.828553 0.419155 0.42619
515 1 0.414917 0.494292 0.254926
201 1 0.341008 0.330579 0.333836
130 1 0.413469 0.429241 0.16421
132 1 0.340002 0.416039 0.251129
589 1 0.50203 0.496225 0.32293
136 1 0.490326 0.403522 0.243167
140 1 0.66542 0.413587 0.234583
282 1 0.750837 0.418947 0.497387
138 1 0.744921 0.411803 0.154435
210 1 0.744774 0.429191 0.327311
209 1 0.676292 0.341679 0.319627
214 1 0.909173 0.423739 0.337834
507 1 0.0989202 0.498418 0.267161
142 1 0.907288 0.443351 0.166001
124 1 0.00279934 0.420388 0.236817
144 1 0.835252 0.424255 0.251262
443 1 0.416916 0.499634 0.0734368
169 1 0.995083 0.162431 0.323756
148 1 0.991112 0.0887215 0.412577
152 1 0.165288 0.0959351 0.409243
150 1 0.252495 0.0969071 0.330276
156 1 0.340927 0.0675415 0.402785
165 1 0.843355 0.0105943 0.323842
509 1 0.160088 0.48194 0.177695
30 1 0.250594 0.24843 0.00825087
154 1 0.426768 0.0768251 0.328605
179 1 0.414907 0.168996 0.42057
206 1 0.593363 0.426187 0.314668
70 1 0.920121 0.424325 0.00876453
181 1 0.488867 0.173868 0.336063
160 1 0.498378 0.0908628 0.417877
158 1 0.574626 0.0977504 0.331455
162 1 0.7562 0.0984686 0.321968
164 1 0.677139 0.0840572 0.408704
187 1 0.749252 0.173368 0.418879
168 1 0.832778 0.0955953 0.415397
213 1 0.82183 0.343487 0.350131
33 1 0.345141 0.159401 0.00207783
191 1 0.915434 0.173236 0.402226
205 1 0.487907 0.331239 0.333017
46 1 0.908838 0.244284 0.00119574
193 1 0.994165 0.352387 0.320418
171 1 0.077279 0.179993 0.421959
172 1 0.991851 0.272 0.414316
278 1 0.585816 0.407547 0.484068
174 1 0.256039 0.244162 0.34046
175 1 0.25772 0.165012 0.422616
176 1 0.178141 0.245236 0.413913
50 1 0.07712 0.413722 0.00548196
177 1 0.343208 0.163989 0.332651
178 1 0.408878 0.251451 0.324262
180 1 0.340552 0.247173 0.418067
203 1 0.41785 0.338237 0.414209
182 1 0.579683 0.245871 0.330617
183 1 0.590001 0.172695 0.421233
184 1 0.499976 0.255788 0.409804
234 1 0.758445 0.0963342 0.495039
207 1 0.587768 0.332808 0.394698
218 1 0.074727 0.0816722 0.491354
188 1 0.661213 0.252347 0.405891
186 1 0.746313 0.255265 0.336469
79 1 0.250813 0.0104923 0.259122
242 1 0.0724611 0.261729 0.493497
26 1 0.0765274 0.246616 0.00937247
192 1 0.83585 0.253855 0.408268
190 1 0.906309 0.262452 0.337846
200 1 0.155165 0.404615 0.422369
195 1 0.0740931 0.340473 0.416922
196 1 0.997685 0.42024 0.408849
197 1 0.173755 0.320016 0.330055
198 1 0.243217 0.401834 0.343707
199 1 0.247502 0.323761 0.419209
451 1 0.74709 0.489402 0.0764028
204 1 0.334973 0.413264 0.42384
202 1 0.413606 0.421502 0.334072
45 1 0.816712 0.157693 0.0113273
6 1 0.244669 0.0638821 0.00427221
149 1 0.175227 0.00330535 0.344917
91 1 0.759783 0.0116479 0.247612
18 1 0.74558 0.080251 0.00585555
151 1 0.245321 0.023633 0.428039
3 1 0.0791062 0.00288792 0.0810506
230 1 0.604739 0.096766 0.497926
273 1 0.334692 0.340253 0.493199
15 1 0.575729 0.0251595 0.0866375
41 1 0.665434 0.165415 0.000502592
2 1 0.108962 0.0824274 0.013126
81 1 0.327633 0.00492318 0.171987
224 1 0.162027 0.0980047 0.569132
243 1 0.0783143 0.175536 0.569805
317 1 0.164389 0.173979 0.645924
305 1 0.662288 0.00114527 0.667157
247 1 0.246964 0.17811 0.571978
241 1 0.984934 0.167978 0.507325
228 1 0.323801 0.0878545 0.593732
232 1 0.492229 0.0979118 0.580159
298 1 0.413533 0.0884213 0.677823
321 1 0.318068 0.166249 0.668293
285 1 0.832043 0.32438 0.510204
302 1 0.576337 0.0898006 0.650014
255 1 0.590395 0.170111 0.583142
66 1 0.745236 0.413028 0.995526
236 1 0.678448 0.089099 0.577017
259 1 0.748049 0.161293 0.583006
329 1 0.658473 0.15148 0.668763
240 1 0.836592 0.0883401 0.580425
306 1 0.739449 0.084839 0.668921
333 1 0.835433 0.160274 0.672437
227 1 0.421111 0.00807788 0.579363
62 1 0.584772 0.412097 0.983126
220 1 0.00246804 0.0822812 0.5784
263 1 0.918399 0.162775 0.585539
65 1 0.667174 0.337229 0.99816
363 1 0.0935807 0.0025882 0.913357
246 1 0.255007 0.25245 0.502937
244 1 0.00629039 0.249445 0.571993
248 1 0.158282 0.257201 0.57928
271 1 0.250055 0.325771 0.587038
251 1 0.406748 0.165627 0.58727
252 1 0.327226 0.249272 0.582518
325 1 0.493855 0.15962 0.671769
345 1 0.340007 0.330254 0.670731
256 1 0.504621 0.240803 0.597297
326 1 0.586893 0.254864 0.661876
349 1 0.499241 0.325471 0.662226
260 1 0.674823 0.247836 0.588824
283 1 0.745143 0.342308 0.578771
330 1 0.744592 0.232312 0.668048
264 1 0.837011 0.25481 0.591749
334 1 0.920224 0.238312 0.664514
287 1 0.919602 0.330127 0.584068
661 1 0.512032 0.490174 0.502455
267 1 0.0770054 0.340528 0.585024
268 1 0.9973 0.433927 0.577911
338 1 0.0811193 0.41894 0.656091
61 1 0.488119 0.327263 0.975321
337 1 0.989985 0.362081 0.656844
42 1 0.743367 0.249928 0.987008
272 1 0.161075 0.400424 0.578061
276 1 0.347764 0.411438 0.585481
361 1 0.0015804 0.0152581 0.825107
239 1 0.913682 0.00311434 0.586757
275 1 0.426283 0.326892 0.586818
813 1 0.828878 0.491493 0.82724
266 1 0.0740703 0.43225 0.511311
279 1 0.570295 0.328705 0.583577
280 1 0.497299 0.409214 0.580479
350 1 0.588476 0.426054 0.653945
357 1 0.826151 0.3358 0.664179
284 1 0.661661 0.413517 0.567851
354 1 0.753294 0.416909 0.671103
288 1 0.841637 0.4074 0.590888
34 1 0.408811 0.244908 0.983292
258 1 0.760718 0.25107 0.512378
441 1 0.337623 0.496127 0.994419
375 1 0.580495 0.00365725 0.918498
290 1 0.0828939 0.0893613 0.655283
296 1 0.154454 0.091534 0.739795
292 1 0.000666662 0.0834425 0.736247
58 1 0.4096 0.405421 0.995998
294 1 0.243758 0.0821462 0.667565
319 1 0.232648 0.159491 0.755894
366 1 0.246767 0.0829912 0.832657
737 1 0.675946 0.491963 0.663898
300 1 0.333192 0.0874523 0.756169
370 1 0.419245 0.0657382 0.829353
265 1 0.999426 0.357322 0.50522
304 1 0.510414 0.0801199 0.74216
327 1 0.582987 0.167222 0.730604
811 1 0.755619 0.49113 0.903823
397 1 0.497178 0.151343 0.82358
308 1 0.665792 0.0701755 0.750605
331 1 0.74528 0.168581 0.756451
310 1 0.912986 0.0834777 0.667372
312 1 0.827565 0.0706819 0.754447
335 1 0.931144 0.16179 0.757197
382 1 0.91402 0.086382 0.835146
315 1 0.0765284 0.167111 0.746862
314 1 0.0629092 0.25461 0.663897
339 1 0.0694631 0.338782 0.738105
409 1 0.00217519 0.339873 0.834565
318 1 0.239678 0.248873 0.673446
320 1 0.163034 0.248077 0.748779
343 1 0.257535 0.330287 0.752275
413 1 0.151643 0.334217 0.812633
390 1 0.250928 0.236817 0.834374
323 1 0.41719 0.153559 0.760599
324 1 0.322022 0.242657 0.744858
322 1 0.408008 0.242772 0.67615
347 1 0.424723 0.324 0.74472
417 1 0.326634 0.322301 0.826949
328 1 0.500528 0.243661 0.73908
332 1 0.66275 0.240057 0.743514
425 1 0.666588 0.328119 0.831031
353 1 0.669768 0.333235 0.668234
336 1 0.829035 0.252032 0.733022
313 1 0.9934 0.159676 0.667122
385 1 0.0118358 0.173026 0.844505
316 1 0.994008 0.242052 0.752709
359 1 0.918521 0.339234 0.7415
406 1 0.907771 0.250734 0.840342
410 1 0.0856014 0.416654 0.833797
340 1 0.996546 0.43064 0.754044
453 1 0.834272 0.497719 0.994599
341 1 0.157074 0.327488 0.669448
69 1 0.833517 0.330337 0.996409
369 1 0.326836 0.00166562 0.824825
344 1 0.156907 0.417701 0.737441
342 1 0.255962 0.405618 0.651357
414 1 0.244946 0.410204 0.815767
348 1 0.33737 0.416066 0.745587
346 1 0.438863 0.417243 0.657091
57 1 0.336848 0.329058 0.983115
418 1 0.419348 0.419869 0.826036
352 1 0.511112 0.400652 0.730557
37 1 0.504931 0.169256 0.990595
351 1 0.585617 0.328545 0.757499
286 1 0.908406 0.428632 0.501441
355 1 0.750824 0.329608 0.742881
356 1 0.666001 0.405765 0.750047
429 1 0.842349 0.331462 0.820386
360 1 0.824972 0.42142 0.743218
358 1 0.917244 0.438842 0.661435
430 1 0.908031 0.418295 0.821847
727 1 0.246458 0.495372 0.760096
389 1 0.166244 0.174678 0.83816
362 1 0.0859788 0.0883093 0.843374
368 1 0.168725 0.0876578 0.910823
364 1 0.00132965 0.0975309 0.937579
387 1 0.0845597 0.18027 0.920632
739 1 0.735946 0.489667 0.748423
393 1 0.337532 0.167905 0.833571
372 1 0.328057 0.0798446 0.917104
391 1 0.257368 0.164961 0.91237
10 1 0.418517 0.084578 0.99247
395 1 0.424984 0.157427 0.90648
249 1 0.341599 0.176367 0.504812
376 1 0.494769 0.0797225 0.914638
374 1 0.578211 0.0748849 0.831528
399 1 0.575778 0.158472 0.908707
803 1 0.423931 0.491971 0.929316
226 1 0.414975 0.0886459 0.503208
380 1 0.659551 0.082056 0.906843
378 1 0.743945 0.0785453 0.851469
401 1 0.651434 0.167066 0.834951
805 1 0.508118 0.491384 0.832315
238 1 0.903596 0.0862321 0.500072
384 1 0.837329 0.0687294 0.92568
386 1 0.0867377 0.25933 0.830229
388 1 0.995969 0.24454 0.921764
392 1 0.17509 0.250511 0.922677
411 1 0.0888333 0.32591 0.929157
293 1 0.165622 2.76456e-05 0.662796
9 1 0.337503 0.00303434 0.994316
29 1 0.179747 0.169634 0.991092
415 1 0.240164 0.329623 0.916269
394 1 0.418929 0.251338 0.821624
231 1 0.602923 0.00350365 0.570135
396 1 0.317372 0.256201 0.909348
400 1 0.495871 0.24001 0.900544
254 1 0.578198 0.264463 0.502372
38 1 0.58 0.241858 0.992014
398 1 0.582109 0.245909 0.83001
801 1 0.332048 0.489513 0.824706
405 1 0.835449 0.169493 0.836625
403 1 0.75328 0.172699 0.906124
222 1 0.260922 0.096911 0.504504
402 1 0.769157 0.257487 0.824015
404 1 0.657358 0.243435 0.921423
408 1 0.828274 0.25114 0.916787
407 1 0.911474 0.167368 0.912934
431 1 0.908325 0.337658 0.91355
17 1 0.662543 0.0190631 0.990608
731 1 0.418606 0.493492 0.735585
412 1 0.0107428 0.428666 0.912058
416 1 0.152001 0.415465 0.925278
799 1 0.24641 0.493945 0.917895
261 1 0.836292 0.170297 0.507433
365 1 0.179142 0.0101455 0.813065
729 1 0.324122 0.498897 0.675794
420 1 0.330361 0.404553 0.891186
421 1 0.488825 0.335607 0.830361
419 1 0.407233 0.328011 0.906535
225 1 0.337135 0.0106437 0.503702
422 1 0.591104 0.422069 0.824594
423 1 0.580526 0.319972 0.908741
237 1 0.836282 0.0106126 0.500866
424 1 0.49705 0.411882 0.898265
54 1 0.264869 0.409757 0.987657
428 1 0.6691 0.403154 0.90753
235 1 0.753699 0.00529419 0.572608
426 1 0.755793 0.405942 0.836958
427 1 0.743217 0.322873 0.918376
432 1 0.831116 0.421313 0.917684
270 1 0.251986 0.403229 0.511442
223 1 0.248892 0.00948538 0.582715
262 1 0.906099 0.257354 0.504967
281 1 0.662969 0.318486 0.509937
295 1 0.258406 0.0182135 0.742161
459 1 0.0894223 0.679774 0.0851852
506 1 0.0826186 0.583882 0.169638
529 1 0.00977743 0.659873 0.171002
440 1 0.162771 0.557248 0.0906768
444 1 0.349021 0.580971 0.0698168
533 1 0.170792 0.668168 0.164336
599 1 0.929033 0.5034 0.409102
448 1 0.496969 0.591805 0.0862573
467 1 0.424109 0.666787 0.0954611
541 1 0.494422 0.656564 0.176507
514 1 0.435321 0.564766 0.160627
519 1 0.592448 0.511205 0.241287
545 1 0.659152 0.678839 0.143594
513 1 0.344209 0.503905 0.162286
452 1 0.65614 0.582897 0.0802642
456 1 0.832957 0.587276 0.080033
522 1 0.74736 0.578678 0.141716
475 1 0.746595 0.659816 0.0579895
549 1 0.832677 0.657463 0.165145
436 1 0.011985 0.593152 0.083012
526 1 0.91744 0.578566 0.164821
457 1 0.00159392 0.666487 0.000708316
483 1 0.100027 0.843382 0.0749445
530 1 0.08851 0.763793 0.166646
557 1 0.166517 0.840795 0.16144
73 1 0.00609724 0.997771 0.163473
464 1 0.165932 0.744231 0.0867278
463 1 0.256979 0.670832 0.0937956
534 1 0.247736 0.747207 0.176097
468 1 0.333279 0.733034 0.0902719
537 1 0.330952 0.658311 0.169106
538 1 0.407165 0.746879 0.168838
157 1 0.508792 0.984035 0.341216
593 1 0.670507 0.511293 0.314219
595 1 0.757018 0.500903 0.412101
471 1 0.584124 0.667313 0.0689755
472 1 0.505664 0.750518 0.0785256
476 1 0.660608 0.749819 0.0642339
565 1 0.493908 0.814528 0.177077
147 1 0.077924 0.990426 0.415831
23 1 0.920632 0.996571 0.0788113
479 1 0.921707 0.666193 0.0937204
480 1 0.825939 0.731325 0.0808916
460 1 0.00139413 0.748975 0.087818
648 1 0.836473 0.916512 0.406647
503 1 0.925656 0.830164 0.0950834
494 1 0.596736 0.929953 0.0160598
554 1 0.081435 0.918635 0.156947
489 1 0.332472 0.819511 0.00491383
701 1 0.172095 0.842045 0.492904
674 1 0.0876128 0.761753 0.486479
487 1 0.250577 0.815225 0.0928808
488 1 0.193222 0.910019 0.082826
492 1 0.320345 0.898538 0.0898053
491 1 0.4052 0.825439 0.0956297
562 1 0.413311 0.9166 0.165311
496 1 0.495443 0.898251 0.0930613
673 1 0.00267293 0.669039 0.47834
462 1 0.261671 0.74797 0.000473829
495 1 0.585281 0.833088 0.0751596
500 1 0.677629 0.902992 0.0859443
458 1 0.083802 0.755956 0.000781048
698 1 0.0855487 0.915002 0.498702
499 1 0.754823 0.816045 0.075468
573 1 0.825211 0.822868 0.146237
504 1 0.833972 0.916914 0.0851846
83 1 0.424558 0.996175 0.263231
484 1 0.994743 0.917709 0.0748742
77 1 0.178534 0.989537 0.163761
709 1 0.501651 0.82441 0.495866
649 1 0.99565 0.510677 0.498491
578 1 0.0946545 0.585869 0.322159
531 1 0.0875051 0.670183 0.250356
605 1 0.178139 0.676845 0.32762
510 1 0.259067 0.583042 0.160229
512 1 0.171741 0.578651 0.248417
535 1 0.246541 0.662563 0.251409
582 1 0.240155 0.576384 0.329177
609 1 0.331547 0.653048 0.328263
645 1 0.829562 0.837485 0.324912
516 1 0.331343 0.5733 0.245301
520 1 0.500832 0.583421 0.267454
518 1 0.581511 0.583918 0.163216
543 1 0.598034 0.659172 0.245554
590 1 0.585216 0.581245 0.334978
525 1 0.823901 0.502473 0.148419
597 1 0.832374 0.509387 0.32261
524 1 0.673946 0.590297 0.248846
528 1 0.834451 0.585217 0.236114
594 1 0.747155 0.593209 0.327909
508 1 0.0133223 0.591848 0.254099
551 1 0.930425 0.662129 0.242857
598 1 0.936882 0.591663 0.330217
532 1 0.00697606 0.748899 0.25048
602 1 0.0976337 0.754186 0.340222
555 1 0.0945731 0.840832 0.242658
625 1 0.0167927 0.840146 0.313933
536 1 0.162021 0.750913 0.249231
606 1 0.266732 0.747563 0.344654
559 1 0.261084 0.82196 0.262851
633 1 0.336282 0.841285 0.345169
539 1 0.426214 0.655959 0.254119
540 1 0.33559 0.733146 0.258722
610 1 0.404896 0.735292 0.338393
563 1 0.412102 0.825666 0.264564
542 1 0.57212 0.739431 0.161632
569 1 0.667638 0.823165 0.154293
544 1 0.489388 0.753663 0.26394
548 1 0.676068 0.737202 0.242009
567 1 0.584539 0.81737 0.258641
546 1 0.754655 0.731722 0.156888
547 1 0.765189 0.668492 0.257892
618 1 0.7512 0.750932 0.334168
552 1 0.834552 0.751669 0.232539
571 1 0.751486 0.833984 0.243634
550 1 0.931191 0.738438 0.169348
553 1 0.995342 0.832036 0.167966
575 1 0.914077 0.831725 0.244515
643 1 0.765667 0.835453 0.419769
560 1 0.171786 0.930546 0.248085
556 1 0.010548 0.912608 0.239856
455 1 0.927819 0.511212 0.0832823
558 1 0.264855 0.89611 0.175089
561 1 0.341258 0.823362 0.193138
564 1 0.345762 0.914222 0.258503
630 1 0.238431 0.915472 0.34343
505 1 0.00334476 0.504624 0.164012
641 1 0.672656 0.830514 0.325459
566 1 0.582244 0.911948 0.165085
568 1 0.498159 0.906126 0.244651
572 1 0.667107 0.922878 0.238544
642 1 0.755806 0.930944 0.326942
570 1 0.752843 0.906726 0.15803
490 1 0.404143 0.899788 0.014228
690 1 0.754115 0.754493 0.491896
574 1 0.920865 0.925338 0.159513
646 1 0.919344 0.899002 0.332145
576 1 0.832196 0.921711 0.239026
603 1 0.101138 0.669106 0.414609
710 1 0.581703 0.909039 0.493897
580 1 0.0251028 0.585466 0.402074
7 1 0.261045 0.998106 0.090211
584 1 0.177439 0.571729 0.419143
588 1 0.324333 0.573562 0.421049
159 1 0.599761 0.995795 0.417609
650 1 0.0803587 0.590494 0.498854
586 1 0.405702 0.576462 0.338972
685 1 0.495805 0.675953 0.494997
611 1 0.408998 0.652673 0.424288
592 1 0.516424 0.584656 0.425559
644 1 0.675102 0.919948 0.394294
640 1 0.510646 0.910771 0.427128
617 1 0.676805 0.666125 0.333083
613 1 0.49686 0.660254 0.349327
615 1 0.579819 0.666208 0.421213
596 1 0.663144 0.580636 0.418378
718 1 0.911601 0.921298 0.49138
11 1 0.410606 0.992196 0.0863134
638 1 0.593915 0.905346 0.306935
621 1 0.849404 0.674445 0.322356
600 1 0.829501 0.58627 0.398694
619 1 0.745994 0.657754 0.418272
601 1 0.0155092 0.674098 0.336104
623 1 0.913766 0.663352 0.408195
523 1 0.762018 0.503166 0.244428
527 1 0.913252 0.513264 0.244536
629 1 0.175207 0.825165 0.325264
607 1 0.25452 0.662975 0.411639
608 1 0.189399 0.747791 0.415101
631 1 0.258056 0.842114 0.420228
637 1 0.502389 0.837801 0.322335
587 1 0.420954 0.508989 0.412218
612 1 0.337246 0.750809 0.429032
635 1 0.417953 0.847984 0.414939
616 1 0.503419 0.740801 0.417997
614 1 0.579268 0.728217 0.341401
639 1 0.58291 0.832721 0.392738
697 1 0.990232 0.841531 0.479536
521 1 0.664734 0.509404 0.159636
229 1 0.513225 0.999743 0.498773
620 1 0.67415 0.743279 0.403734
604 1 0.00392989 0.753872 0.407362
624 1 0.840166 0.746209 0.408933
622 1 0.924268 0.749629 0.320284
647 1 0.921002 0.816068 0.399861
628 1 0.986775 0.929005 0.41981
89 1 0.677638 0.992521 0.162569
626 1 0.0860227 0.92018 0.343027
627 1 0.0866229 0.837422 0.411748
714 1 0.765304 0.918752 0.489712
145 1 0.9922 0.990413 0.342263
632 1 0.169543 0.919051 0.430028
87 1 0.58952 0.996761 0.240446
636 1 0.334881 0.931789 0.420359
454 1 0.926064 0.593987 0.0190472
19 1 0.745818 0.992786 0.0733661
155 1 0.427017 0.996052 0.43469
634 1 0.430024 0.917158 0.338101
5 1 0.169605 0.993374 0.0141309
461 1 0.178343 0.652875 0.01844
481 1 0.00766004 0.841415 0.0067447
713 1 0.683237 0.829567 0.487488
433 1 0.0144652 0.508706 0.00442015
153 1 0.326671 0.990837 0.324924
666 1 0.754388 0.581879 0.488864
13 1 0.50682 0.973074 0.00935973
449 1 0.664664 0.503859 0.00511099
693 1 0.824796 0.668261 0.493065
501 1 0.842617 0.821991 0.00824554
21 1 0.843898 0.983408 0.0110768
438 1 0.247554 0.570641 0.0051057
670 1 0.926106 0.586224 0.489736
577 1 0.00760413 0.502496 0.3259
694 1 0.912491 0.75173 0.499675
722 1 0.0737062 0.595005 0.676791
656 1 0.172084 0.594103 0.600334
502 1 0.926552 0.915334 0.994371
654 1 0.256591 0.578654 0.50863
846 1 0.24618 0.915874 0.830388
679 1 0.25767 0.665138 0.579695
686 1 0.588009 0.731012 0.509275
466 1 0.411749 0.747684 0.998782
660 1 0.326012 0.590007 0.589108
730 1 0.423754 0.58309 0.67317
664 1 0.505273 0.591993 0.589292
852 1 0.332535 0.920495 0.91827
469 1 0.490485 0.663014 0.991013
855 1 0.579016 0.829399 0.901069
702 1 0.255251 0.921513 0.500686
381 1 0.827653 0.976395 0.835342
668 1 0.664001 0.584171 0.591332
738 1 0.756865 0.585397 0.659489
672 1 0.847529 0.607137 0.58195
844 1 0.00231377 0.91279 0.906584
652 1 0.00392762 0.598727 0.573697
742 1 0.919989 0.594579 0.672711
682 1 0.421475 0.749094 0.510228
474 1 0.762198 0.740716 0.990511
482 1 0.07208 0.928844 0.990066
675 1 0.0955014 0.68198 0.571546
680 1 0.186603 0.74779 0.571446
676 1 0.999025 0.774693 0.566874
745 1 0.0112309 0.682504 0.642506
477 1 0.840125 0.663108 0.993516
703 1 0.263411 0.836205 0.58769
684 1 0.33623 0.75435 0.586161
733 1 0.506021 0.506969 0.655219
371 1 0.427993 0.988442 0.926881
683 1 0.415165 0.670364 0.586763
754 1 0.402211 0.747273 0.671014
777 1 0.34448 0.837557 0.662237
688 1 0.509835 0.749386 0.574423
687 1 0.584474 0.667084 0.591036
692 1 0.671404 0.736612 0.587599
691 1 0.759236 0.67684 0.584473
762 1 0.751241 0.75334 0.681169
696 1 0.838925 0.741711 0.574476
765 1 0.834594 0.66218 0.674355
311 1 0.91605 0.997413 0.754264
695 1 0.92822 0.681342 0.578429
795 1 0.0847754 0.51185 0.920895
766 1 0.931527 0.755234 0.659331
485 1 0.178184 0.837702 0.99967
699 1 0.0873081 0.841075 0.566713
700 1 0.995046 0.922361 0.569404
497 1 0.671988 0.833151 0.994254
379 1 0.749671 0.997095 0.927424
743 1 0.913741 0.510625 0.749827
704 1 0.172633 0.913828 0.576573
663 1 0.59211 0.501024 0.572746
289 1 0.981549 0.996758 0.660607
707 1 0.426522 0.830608 0.597626
708 1 0.338099 0.922147 0.581397
712 1 0.506474 0.923053 0.575759
781 1 0.514178 0.825291 0.671531
373 1 0.509616 0.986569 0.833668
848 1 0.175813 0.917003 0.921539
711 1 0.605246 0.839191 0.583211
716 1 0.678181 0.924895 0.567642
864 1 0.828614 0.900957 0.925391
715 1 0.753723 0.830383 0.583127
786 1 0.756678 0.905882 0.67293
297 1 0.34376 0.999905 0.670516
719 1 0.907071 0.839722 0.57803
720 1 0.832227 0.924158 0.576214
790 1 0.912153 0.907276 0.6675
657 1 0.338716 0.501938 0.508961
493 1 0.512298 0.853452 0.994137
724 1 0.00119967 0.575554 0.757659
794 1 0.076947 0.590399 0.835565
301 1 0.508862 0.989876 0.659328
749 1 0.172833 0.688195 0.656454
726 1 0.252559 0.596282 0.666587
728 1 0.172897 0.573187 0.744748
860 1 0.66847 0.916322 0.922556
732 1 0.326763 0.579251 0.748734
437 1 0.160025 0.500937 0.99513
734 1 0.583704 0.590194 0.663899
736 1 0.501029 0.573793 0.752478
793 1 0.988348 0.514941 0.844505
299 1 0.423703 0.981234 0.752766
470 1 0.582703 0.759441 0.988331
761 1 0.668582 0.65612 0.666784
740 1 0.673849 0.570255 0.741831
744 1 0.820799 0.571469 0.751972
810 1 0.747015 0.578314 0.848366
814 1 0.906387 0.580992 0.827403
450 1 0.75447 0.568017 0.989388
856 1 0.499542 0.911152 0.906915
746 1 0.0874845 0.756326 0.663044
747 1 0.0710419 0.659233 0.757362
752 1 0.181674 0.752264 0.742216
748 1 0.00679853 0.743668 0.74146
751 1 0.259893 0.681301 0.751241
750 1 0.254331 0.766744 0.667404
756 1 0.337714 0.754051 0.762522
753 1 0.322149 0.679741 0.665588
755 1 0.40679 0.67368 0.757443
757 1 0.490996 0.679283 0.664136
779 1 0.430889 0.822516 0.749263
826 1 0.42017 0.748079 0.828462
760 1 0.508489 0.742704 0.74718
759 1 0.586602 0.670462 0.747772
758 1 0.600441 0.749197 0.657154
764 1 0.662072 0.742667 0.740001
833 1 0.673106 0.663774 0.822114
857 1 0.656437 0.827571 0.83072
763 1 0.743355 0.663477 0.74655
834 1 0.73475 0.748961 0.830356
767 1 0.926222 0.673053 0.752075
768 1 0.833623 0.735366 0.755767
837 1 0.825507 0.668412 0.843588
817 1 0.000120443 0.663684 0.848072
838 1 0.931009 0.752035 0.835492
769 1 0.00924499 0.835381 0.659855
770 1 0.0803933 0.919779 0.652662
771 1 0.0854105 0.823354 0.746172
842 1 0.0895561 0.913934 0.817684
651 1 0.0771135 0.518754 0.593494
773 1 0.159679 0.834736 0.648433
303 1 0.588009 0.996056 0.747637
774 1 0.266697 0.916231 0.668265
775 1 0.251906 0.851791 0.7496
776 1 0.164018 0.903355 0.723794
780 1 0.340117 0.908091 0.745403
778 1 0.425517 0.9121 0.665578
784 1 0.512435 0.90896 0.749953
383 1 0.915014 0.987599 0.911118
785 1 0.67793 0.836664 0.665996
782 1 0.595549 0.917202 0.671351
783 1 0.598639 0.833549 0.740634
788 1 0.670334 0.910171 0.75739
854 1 0.597494 0.919079 0.843703
655 1 0.244563 0.500421 0.575232
662 1 0.583442 0.589742 0.510932
787 1 0.746076 0.830316 0.761515
858 1 0.739821 0.905053 0.846463
434 1 0.0850351 0.590444 0.997683
789 1 0.84133 0.837854 0.66967
772 1 0.9915 0.899263 0.742493
792 1 0.842441 0.910698 0.755623
791 1 0.918902 0.834599 0.757946
862 1 0.919472 0.910279 0.832412
478 1 0.934304 0.751967 0.997494
445 1 0.510433 0.517257 0.985668
859 1 0.752191 0.822854 0.928994
800 1 0.16385 0.591982 0.910541
851 1 0.414453 0.83088 0.923672
796 1 0.988194 0.588665 0.92579
819 1 0.0783799 0.662039 0.921891
659 1 0.419429 0.502816 0.590164
821 1 0.170923 0.665954 0.80762
705 1 0.336861 0.833013 0.512615
798 1 0.25036 0.582276 0.830546
823 1 0.251684 0.656841 0.909711
741 1 0.820897 0.503414 0.654048
802 1 0.416218 0.55902 0.823697
667 1 0.750143 0.511116 0.566697
804 1 0.333359 0.566407 0.914305
808 1 0.498813 0.588186 0.88812
806 1 0.588185 0.592211 0.827217
473 1 0.660886 0.666446 0.988675
367 1 0.251932 0.9933 0.911811
677 1 0.175248 0.656838 0.506773
812 1 0.666115 0.592335 0.906844
816 1 0.850598 0.577541 0.918967
853 1 0.519082 0.822821 0.815038
307 1 0.750874 0.990542 0.762178
839 1 0.915914 0.669187 0.911241
442 1 0.414611 0.591433 0.981966
818 1 0.0784947 0.745668 0.827589
820 1 0.00806567 0.74451 0.91971
822 1 0.248413 0.749225 0.843093
849 1 0.321007 0.835607 0.836857
825 1 0.337171 0.665629 0.838183
824 1 0.16284 0.729799 0.912333
847 1 0.243941 0.831279 0.918127
309 1 0.833903 0.988828 0.679125
827 1 0.413687 0.671129 0.907487
828 1 0.330902 0.745152 0.919187
832 1 0.491875 0.754248 0.917362
829 1 0.490391 0.667121 0.817687
831 1 0.584336 0.659577 0.91212
830 1 0.571068 0.736155 0.829903
836 1 0.663551 0.748243 0.91191
446 1 0.588891 0.585513 0.999662
861 1 0.839847 0.83557 0.841448
835 1 0.745712 0.665057 0.914794
841 1 0.00401382 0.828324 0.830474
863 1 0.923162 0.826738 0.915403
840 1 0.846624 0.748985 0.921386
850 1 0.427543 0.890585 0.82917
717 1 0.839522 0.830551 0.500636
807 1 0.592623 0.512006 0.918657
843 1 0.114971 0.824301 0.905362
671 1 0.909537 0.515667 0.581049
845 1 0.16874 0.835966 0.819198
681 1 0.32419 0.662275 0.50061
706 1 0.423526 0.916965 0.507895
291 1 0.0869404 0.991035 0.736919
658 1 0.410843 0.587507 0.506708
797 1 0.165655 0.503697 0.84509
735 1 0.586194 0.511972 0.730377
669 1 0.836659 0.509504 0.500213
721 1 0.98752 0.516797 0.655865
465 1 0.332265 0.64869 0.988066
678 1 0.255084 0.767286 0.501941
815 1 0.924819 0.50089 0.92377
723 1 0.082831 0.502806 0.762218
653 1 0.154676 0.506168 0.508306
377 1 0.673249 0.999471 0.839281
498 1 0.751725 0.911169 0.997576
809 1 0.662661 0.504537 0.835912
689 1 0.664262 0.653168 0.50551
725 1 0.173382 0.500495 0.663444
486 1 0.264922 0.912207 0.991387
219 1 0.0703583 0.999849 0.563089
