ITEM: TIMESTEP
3000
ITEM: NUMBER OF ATOMS
864
ITEM: BOX BOUNDS pp pp pp
0.0000000000000000e+00 3.1559999999999999e+01
0.0000000000000000e+00 3.1559999999999999e+01
0.0000000000000000e+00 3.1559999999999999e+01
ITEM: ATOMS id type xs ys zs
3 1 0.0827692 -0.00683819 0.0813353
8 1 0.170188 0.076607 0.0967027
4 1 1.00491 0.0777851 0.0847516
145 1 0.995018 0.984152 0.166414
12 1 0.331124 0.0750223 0.0833345
33 1 0.333228 0.159547 -0.0110441
150 1 0.250767 0.0769408 0.167968
6 1 0.243145 0.0931014 -0.00977638
157 1 0.50668 1.01838 0.15709
154 1 0.413195 0.0760215 0.156967
10 1 0.411063 0.0826245 -0.00107441
37 1 0.486305 0.155764 -0.00297806
16 1 0.495722 0.0770691 0.080926
158 1 0.592886 0.0845362 0.171148
14 1 0.574553 0.0747683 0.993372
20 1 0.674398 0.0873764 0.0728892
24 1 0.835765 0.0648882 0.0813631
162 1 0.764641 0.0883959 0.168067
165 1 0.823052 0.998194 0.160505
18 1 0.753857 0.0645413 0.999344
45 1 0.826513 0.158285 -0.00384056
22 1 0.918531 0.0816822 0.0103599
47 1 0.912197 0.153622 0.0909266
166 1 0.911597 0.0724866 0.181164
189 1 0.852172 0.16021 0.181674
29 1 0.161867 0.172083 0.00583569
27 1 0.0726282 0.164869 0.0855199
32 1 0.161104 0.257984 0.0661675
28 1 0.00386823 0.261114 0.0718661
31 1 0.25523 0.154132 0.0825157
177 1 0.33188 0.165499 0.156685
55 1 0.259135 0.339684 0.0735229
36 1 0.341922 0.247829 0.0849779
35 1 0.411007 0.167633 0.0930272
59 1 0.419712 0.323679 0.0962603
178 1 0.407501 0.247509 0.180184
39 1 0.594389 0.158419 0.0693536
181 1 0.505131 0.148873 0.165634
40 1 0.501187 0.236713 0.092915
63 1 0.598279 0.332073 0.0991075
38 1 0.596228 0.25961 0.0206438
61 1 0.497747 0.325621 1.01298
43 1 0.759621 0.172331 0.0777582
44 1 0.679125 0.248305 0.0827241
185 1 0.676147 0.165926 0.178611
186 1 0.765962 0.233784 0.178422
41 1 0.677984 0.172631 1.00153
42 1 0.759168 0.256171 0.998922
48 1 0.844699 0.249087 0.0680199
46 1 0.919886 0.264015 0.995933
71 1 0.925218 0.336109 0.0679174
51 1 0.0822864 0.332925 0.0888219
194 1 0.0813485 0.422509 0.172726
221 1 0.17061 0.51298 0.168285
52 1 1.00458 0.43077 0.0778942
56 1 0.160421 0.416499 0.105644
79 1 0.250139 0.492385 0.087045
198 1 0.2471 0.407699 0.163561
60 1 0.339377 0.422841 0.0925067
64 1 0.503019 0.426919 0.0860237
202 1 0.420258 0.417367 0.180138
205 1 0.496838 0.327991 0.168283
62 1 0.586038 0.411052 0.00218384
68 1 0.678538 0.412231 0.0874559
206 1 0.579478 0.410275 0.174691
209 1 0.686529 0.323456 0.164534
67 1 0.754188 0.323941 0.0861277
65 1 0.67255 0.34322 0.0182051
66 1 0.758619 0.420692 0.991674
72 1 0.825424 0.410364 0.0799042
213 1 0.830604 0.319202 0.167732
69 1 0.836643 0.323549 0.991487
95 1 0.903536 0.500901 0.0878478
214 1 0.903075 0.415511 0.153536
70 1 0.907081 0.43229 1.00277
75 1 0.0849375 0.497201 0.0917301
99 1 0.0863396 0.644739 0.0856568
80 1 0.180362 0.580583 0.0888418
76 1 0.983603 0.577561 0.0824126
103 1 0.263988 0.665247 0.0816417
222 1 0.25446 0.587195 0.174573
245 1 0.165472 0.661306 0.16596
84 1 0.329539 0.576421 0.0872532
225 1 0.32561 0.499295 0.182266
83 1 0.416385 0.503439 0.0958184
226 1 0.401704 0.584658 0.176406
88 1 0.506726 0.578427 0.0741594
253 1 0.506585 0.676233 0.163832
229 1 0.497922 0.505696 0.168132
87 1 0.58869 0.493166 0.0927521
230 1 0.572557 0.587699 0.166575
89 1 0.661573 0.487431 0.00576357
92 1 0.672156 0.577514 0.0906063
91 1 0.752959 0.499488 0.0741642
115 1 0.772794 0.671859 0.0744131
90 1 0.751669 0.596305 0.998842
93 1 0.833988 0.509806 0.986617
96 1 0.834428 0.586949 0.0765479
237 1 0.838973 0.514282 0.169066
94 1 0.912198 0.606438 -0.009187
100 1 0.0177514 0.756995 0.0743748
123 1 0.0911848 0.829345 0.0799473
242 1 0.0775606 0.740875 0.163178
104 1 0.156977 0.747204 0.0748845
246 1 0.249935 0.740269 0.166741
273 1 0.326715 0.824436 0.165017
129 1 0.323813 0.822767 -0.00169384
107 1 0.429496 0.650889 0.0824858
108 1 0.340157 0.742924 0.0816191
131 1 0.408154 0.826921 0.0795641
112 1 0.492361 0.746811 0.0738049
111 1 0.571413 0.669869 0.0832831
254 1 0.592849 0.739458 0.176747
109 1 0.505566 0.670017 -0.0106145
110 1 0.593556 0.754676 0.988104
114 1 0.750027 0.751327 0.988699
116 1 0.670064 0.729914 0.0941111
258 1 0.754785 0.762323 0.16686
117 1 0.834938 0.67992 0.987087
120 1 0.846302 0.750371 0.0739166
261 1 0.843454 0.673268 0.157562
119 1 0.929425 0.671822 0.0682855
141 1 0.83674 0.819719 0.985787
125 1 0.166816 0.832632 0.996346
128 1 0.158588 0.912673 0.0918103
1 1 0.9993 0.982222 0.00313586
124 1 1.00129 0.905013 0.0887604
149 1 0.166456 0.993201 0.165754
5 1 0.160283 0.00159422 0.991395
7 1 0.252975 0.999144 0.0803481
127 1 0.236919 0.827836 0.0847012
126 1 0.238483 0.91999 0.0115753
132 1 0.319479 0.908434 0.0877167
269 1 0.163995 0.828174 0.167361
11 1 0.429716 0.988526 0.0761902
133 1 0.49245 0.823539 1.00983
136 1 0.510134 0.904641 0.0842957
130 1 0.407509 0.909089 0.986167
135 1 0.584535 0.81972 0.0821849
15 1 0.591642 0.0067712 0.0860456
134 1 0.586595 0.920494 0.982244
13 1 0.504779 0.997935 1.00041
19 1 0.751593 -0.00142863 0.0856906
140 1 0.649454 0.906169 0.0774232
139 1 0.759104 0.815518 0.0758002
23 1 0.92667 1.00206 0.0901566
144 1 0.83335 0.896854 0.0706794
142 1 0.91691 0.905517 0.990241
143 1 0.916163 0.83059 0.0796083
21 1 0.842945 0.993924 0.997954
146 1 0.084867 0.0525585 0.170455
173 1 0.166082 0.17528 0.152907
152 1 0.165385 0.0743937 0.247406
151 1 0.24543 0.989554 0.244385
156 1 0.347449 0.0803558 0.243413
153 1 0.326267 0.991682 0.159601
179 1 0.424526 0.157829 0.240243
298 1 0.420627 0.0904686 0.3405
321 1 0.318144 0.15642 0.326806
297 1 0.353743 -0.00343483 0.331826
160 1 0.495964 0.0653417 0.264263
183 1 0.581321 0.163118 0.251679
325 1 0.502567 0.161994 0.323376
164 1 0.666251 0.0901623 0.261767
187 1 0.754245 0.158122 0.26032
306 1 0.75298 0.0827817 0.344777
148 1 0.00969353 0.0731956 0.256841
168 1 0.843865 0.0726228 0.270754
191 1 0.927091 0.16146 0.250966
167 1 0.911129 0.980842 0.267648
193 1 -0.0140497 0.350517 0.154027
170 1 0.0888947 0.244426 0.159842
171 1 0.100472 0.183289 0.242697
314 1 0.0961649 0.2712 0.321705
175 1 0.244514 0.161353 0.236197
176 1 0.173947 0.252758 0.24942
174 1 0.249849 0.247609 0.157774
199 1 0.256803 0.329643 0.239619
318 1 0.257337 0.256466 0.330342
201 1 0.332852 0.326969 0.158582
180 1 0.322507 0.238497 0.248004
184 1 0.495681 0.247205 0.250807
322 1 0.408443 0.239858 0.31719
182 1 0.595887 0.227755 0.15436
326 1 0.589604 0.248499 0.32601
188 1 0.674623 0.246076 0.252432
330 1 0.753622 0.24271 0.329608
190 1 0.922926 0.262621 0.148693
169 1 0.0177537 0.148762 0.183498
192 1 0.828163 0.234317 0.254022
357 1 0.837129 0.325435 0.321886
172 1 1.00528 0.248522 0.226502
215 1 0.915146 0.317181 0.244723
337 1 1.00225 0.31954 0.322625
334 1 0.914357 0.252455 0.321901
195 1 0.075456 0.32244 0.223135
219 1 0.100505 0.514821 0.261463
338 1 0.0926999 0.407003 0.34061
217 1 -0.00615499 0.481737 0.179817
341 1 0.17559 0.332671 0.338844
197 1 0.162502 0.328011 0.171945
200 1 0.184137 0.428443 0.247866
204 1 0.328609 0.409206 0.243411
369 1 0.327502 0.509663 0.334744
342 1 0.258538 0.408492 0.336286
365 1 0.163726 0.485186 0.343786
203 1 0.418098 0.324771 0.248873
227 1 0.40351 0.51064 0.253297
208 1 0.49877 0.413936 0.240382
373 1 0.486801 0.498705 0.333202
346 1 0.406795 0.421356 0.320403
207 1 0.587651 0.329834 0.239392
212 1 0.674304 0.419052 0.251804
349 1 0.486345 0.314442 0.329639
350 1 0.571511 0.428315 0.316819
210 1 0.759754 0.416797 0.168086
211 1 0.745761 0.332548 0.25823
235 1 0.761433 0.509731 0.246857
381 1 0.837823 0.499308 0.330136
196 1 0.0134377 0.405895 0.266509
216 1 0.837636 0.413534 0.253031
239 1 0.923518 0.498186 0.255385
361 1 0.999888 0.498678 0.334721
218 1 0.0829212 0.590576 0.191018
220 1 0.990395 0.578328 0.257178
362 1 0.0775787 0.596958 0.329895
249 1 0.338975 0.682641 0.180064
223 1 0.251827 0.512907 0.255454
224 1 0.168505 0.597217 0.25512
366 1 0.23864 0.580031 0.341836
247 1 0.259711 0.676511 0.250789
228 1 0.324619 0.604507 0.25681
251 1 0.422624 0.683861 0.264385
370 1 0.412633 0.596578 0.324597
232 1 0.494004 0.58567 0.238086
393 1 0.33335 0.670007 0.342528
231 1 0.577564 0.507266 0.245293
233 1 0.675015 0.503619 0.176585
374 1 0.578355 0.59978 0.330218
397 1 0.501022 0.664234 0.346648
377 1 0.66384 0.510838 0.325648
236 1 0.667489 0.584008 0.250748
234 1 0.762273 0.587535 0.161466
378 1 0.743857 0.580748 0.325041
238 1 0.91915 0.589064 0.173076
240 1 0.837575 0.586298 0.254057
382 1 0.922452 0.566184 0.340283
241 1 1.00519 0.665737 0.167998
243 1 0.0937791 0.670774 0.252869
244 1 0.00428646 0.73877 0.247791
248 1 0.172141 0.749228 0.248546
390 1 0.260274 0.751422 0.346023
250 1 0.424229 0.747965 0.153296
277 1 0.488131 0.833868 0.164981
252 1 0.351029 0.75979 0.26858
394 1 0.430217 0.75808 0.351933
257 1 0.657704 0.651052 0.170052
401 1 0.671716 0.66051 0.336515
256 1 0.506432 0.757683 0.264531
255 1 0.573003 0.655467 0.252141
279 1 0.59184 0.82264 0.25331
398 1 0.5837 0.762173 0.336303
260 1 0.682546 0.733821 0.250477
259 1 0.767771 0.671267 0.241701
425 1 0.675208 0.812715 0.334657
262 1 0.927882 0.751819 0.158564
263 1 0.905032 0.672882 0.247113
264 1 0.832469 0.755028 0.252418
429 1 0.832663 0.844712 0.330287
265 1 0.0150556 0.826146 0.155001
147 1 0.0923924 0.987111 0.254285
266 1 0.0819897 0.928751 0.164431
267 1 0.0875437 0.82103 0.248018
268 1 -0.00326376 0.893594 0.238185
272 1 0.172739 0.901365 0.271462
270 1 0.248918 0.907734 0.172665
271 1 0.255188 0.817265 0.248953
276 1 0.334893 0.915127 0.251402
417 1 0.348547 0.840268 0.332934
155 1 0.422026 -0.0159484 0.225164
275 1 0.41304 0.838073 0.249144
274 1 0.410313 0.914525 0.145656
278 1 0.584039 0.903776 0.167175
159 1 0.592491 0.998313 0.247214
280 1 0.500905 0.924094 0.248713
421 1 0.500207 0.838987 0.348028
422 1 0.600332 0.915199 0.337765
161 1 0.676616 0.00666906 0.163787
163 1 0.761323 1.00194 0.260723
281 1 0.655973 0.817736 0.164234
284 1 0.680936 0.921187 0.240365
282 1 0.731615 0.905282 0.146518
283 1 0.74142 0.829825 0.247648
286 1 0.90851 0.91886 0.154167
285 1 0.835231 0.824554 0.16953
288 1 0.837938 0.909748 0.233955
287 1 0.916976 0.818739 0.261812
290 1 0.0884829 0.0830943 0.325744
291 1 0.087947 0.00302751 0.408199
293 1 0.169747 0.996213 0.333275
294 1 0.250435 0.0722309 0.314567
295 1 0.250866 1.00615 0.401784
296 1 0.169498 0.0934222 0.403175
300 1 0.331751 0.0873279 0.406773
304 1 0.495409 0.0876773 0.407811
323 1 0.416913 0.173971 0.404518
442 1 0.414756 0.0930054 0.500061
465 1 0.331395 0.171847 0.511124
302 1 0.587132 0.0847277 0.3352
446 1 0.591565 0.0935732 0.498661
469 1 0.501536 0.169056 0.482614
305 1 0.66618 -0.00378294 0.324087
308 1 0.679428 0.0907806 0.418379
312 1 0.857494 0.0914444 0.423184
307 1 0.7371 0.987067 0.408842
310 1 0.93944 0.0829621 0.335099
292 1 0.00996016 0.0887253 0.409408
313 1 0.0180183 0.175694 0.323702
309 1 0.825994 4.46273e-05 0.349879
454 1 0.931394 0.0878273 0.504779
477 1 0.86448 0.165483 0.498895
315 1 0.0937609 0.166432 0.398105
316 1 0.020659 0.245985 0.415401
458 1 0.0840195 0.257773 0.499483
320 1 0.15937 0.247202 0.416593
481 1 0.999235 0.342992 0.510124
317 1 0.175602 0.175415 0.332972
319 1 0.247348 0.172473 0.415959
343 1 0.248127 0.336249 0.422804
462 1 0.254528 0.236621 0.504513
324 1 0.328114 0.245276 0.409725
347 1 0.410712 0.32732 0.418073
327 1 0.585768 0.162778 0.411113
329 1 0.664139 0.163983 0.335685
328 1 0.506582 0.239761 0.406899
351 1 0.581634 0.32707 0.410533
331 1 0.758833 0.172213 0.410495
333 1 0.843418 0.164542 0.338537
332 1 0.661909 0.233366 0.433266
355 1 0.75084 0.319881 0.403317
336 1 0.837266 0.240837 0.411427
335 1 0.935426 0.165941 0.415937
359 1 0.934007 0.312391 0.425124
339 1 0.0907619 0.337672 0.428884
363 1 0.0698753 0.492392 0.408484
482 1 0.0798358 0.418392 0.50201
485 1 0.152091 0.337475 0.525305
345 1 0.33111 0.327812 0.327029
344 1 0.159213 0.413374 0.425892
367 1 0.248917 0.477524 0.428069
509 1 0.15538 0.495669 0.497439
486 1 0.234494 0.406264 0.503012
513 1 0.337054 0.4938 0.479662
348 1 0.336948 0.412009 0.414391
371 1 0.412421 0.503173 0.401574
489 1 0.334639 0.320706 0.497944
352 1 0.49704 0.428776 0.406114
356 1 0.68731 0.411222 0.400949
517 1 0.481179 0.501177 0.488667
493 1 0.515109 0.314596 0.495463
353 1 0.670618 0.325578 0.330024
354 1 0.767278 0.411091 0.330867
360 1 0.854158 0.388056 0.409637
379 1 0.762135 0.496965 0.411436
525 1 0.81909 0.501959 0.499743
498 1 0.762853 0.41332 0.49681
340 1 0.990113 0.407129 0.423976
358 1 0.920694 0.417421 0.324898
383 1 0.916871 0.495716 0.433819
385 1 0.997984 0.6619 0.347454
387 1 0.08788 0.669337 0.416497
506 1 0.0735358 0.586501 0.494783
368 1 0.1545 0.586008 0.405869
372 1 0.330162 0.584718 0.411179
391 1 0.238869 0.663217 0.424772
510 1 0.252683 0.565955 0.48601
537 1 0.33009 0.671392 0.501176
514 1 0.423436 0.593192 0.497115
375 1 0.578923 0.510869 0.401964
376 1 0.510856 0.580434 0.411796
518 1 0.580625 0.583031 0.492016
399 1 0.585906 0.671364 0.413958
380 1 0.674033 0.588333 0.41345
521 1 0.673041 0.486896 0.474029
403 1 0.752599 0.655495 0.407982
522 1 0.736164 0.574052 0.49863
549 1 0.832226 0.658399 0.50071
545 1 0.667398 0.661959 0.491327
364 1 0.992123 0.570292 0.422222
384 1 0.829834 0.577035 0.42291
407 1 0.925509 0.65854 0.424739
526 1 0.902715 0.589063 0.510006
405 1 0.841098 0.659069 0.343543
386 1 0.0680267 0.750125 0.32861
388 1 0.992949 0.751818 0.424616
389 1 0.173217 0.685434 0.337078
533 1 0.158732 0.657361 0.500196
392 1 0.158603 0.74916 0.425094
396 1 0.347046 0.755354 0.421657
534 1 0.252993 0.761277 0.500856
395 1 0.419429 0.672501 0.427944
419 1 0.417365 0.844496 0.420616
538 1 0.409455 0.756546 0.500438
541 1 0.495501 0.674476 0.504656
400 1 0.506645 0.74767 0.418314
542 1 0.588314 0.750108 0.503995
402 1 0.757559 0.743968 0.331768
404 1 0.684569 0.751341 0.420417
408 1 0.837067 0.747496 0.412978
427 1 0.748371 0.839299 0.431905
409 1 -0.0101606 0.826091 0.334753
406 1 0.921572 0.744449 0.324577
431 1 0.917726 0.822461 0.421973
550 1 0.917119 0.746065 0.510216
289 1 0.00928233 0.995359 0.338162
410 1 0.0806398 0.905027 0.333247
413 1 0.169141 0.820059 0.339839
411 1 0.0868703 0.820029 0.411629
416 1 0.164172 0.920075 0.407855
415 1 0.244425 0.826126 0.414943
414 1 0.261448 0.914947 0.336407
561 1 0.330481 0.843595 0.495502
418 1 0.426731 0.918334 0.333705
299 1 0.42037 0.0103592 0.417235
301 1 0.501888 0.991677 0.342174
420 1 0.33688 0.913457 0.410198
424 1 0.512312 0.915153 0.423781
303 1 0.597415 0.0111411 0.410248
423 1 0.59093 0.818938 0.423444
428 1 0.661509 0.918559 0.423781
426 1 0.734026 0.90057 0.336781
453 1 0.830181 -0.00189121 0.503018
569 1 0.670596 0.830822 0.498099
311 1 0.927023 -0.000261227 0.43057
412 1 1.00186 0.904512 0.417974
432 1 0.830551 0.91836 0.417239
430 1 0.914576 0.916516 0.34882
574 1 0.909417 0.916919 0.498022
434 1 0.0869305 0.0806915 0.490296
436 1 0.0174989 0.0769661 0.581414
435 1 0.105344 1.00585 0.579282
437 1 0.178462 0.00274127 0.490959
438 1 0.252909 0.0946328 0.501002
439 1 0.23955 0.010437 0.590223
440 1 0.169342 0.0935193 0.580801
441 1 0.323317 0.0157849 0.489999
444 1 0.32387 0.087902 0.578026
448 1 0.50457 0.0836926 0.588779
452 1 0.687641 0.0965789 0.594273
471 1 0.590324 0.169529 0.588324
450 1 0.770091 0.0950854 0.491379
473 1 0.688469 0.160065 0.505391
475 1 0.768145 0.174678 0.594387
594 1 0.770251 0.0825234 0.667146
593 1 0.671835 0.994631 0.655588
456 1 0.847213 0.094854 0.590853
598 1 0.929192 0.0850353 0.659497
621 1 0.849558 0.154569 0.669929
479 1 0.945079 0.164266 0.576186
461 1 0.15665 0.174007 0.498969
457 1 0.0247054 0.165537 0.492944
459 1 0.0828094 0.163399 0.580536
460 1 0.00385921 0.252263 0.590085
483 1 0.072515 0.33561 0.594191
605 1 0.169752 0.175314 0.670913
464 1 0.162303 0.249534 0.587035
463 1 0.251144 0.173408 0.594523
606 1 0.244159 0.256665 0.665167
466 1 0.413976 0.242083 0.489291
467 1 0.405735 0.152363 0.60114
468 1 0.343156 0.24684 0.60844
609 1 0.315086 0.170399 0.676434
470 1 0.591174 0.241032 0.499404
472 1 0.509778 0.242583 0.57557
476 1 0.677666 0.24234 0.592967
495 1 0.587747 0.324413 0.569329
474 1 0.762302 0.235207 0.503944
480 1 0.841272 0.243988 0.580369
499 1 0.749853 0.326839 0.567877
641 1 0.66531 0.341114 0.662451
645 1 0.831465 0.315618 0.669484
501 1 0.842831 0.334083 0.503642
478 1 0.94326 0.243879 0.506448
503 1 0.916476 0.330312 0.589414
484 1 8.54309e-05 0.424189 0.579929
626 1 0.0820967 0.416251 0.674505
507 1 0.0841126 0.507675 0.587861
487 1 0.236891 0.330362 0.585641
488 1 0.156187 0.427687 0.586801
511 1 0.252778 0.491479 0.579169
653 1 0.166904 0.496822 0.665659
490 1 0.416378 0.402899 0.487653
491 1 0.42062 0.321155 0.574295
492 1 0.348075 0.415771 0.572962
657 1 0.332183 0.515064 0.648125
497 1 0.675753 0.32941 0.492408
494 1 0.572358 0.428651 0.492646
496 1 0.50696 0.404728 0.565369
500 1 0.65085 0.410553 0.562205
504 1 0.826901 0.424648 0.59151
669 1 0.833469 0.508185 0.670082
505 1 0.0066151 0.506391 0.50402
502 1 0.907971 0.421436 0.520415
625 1 -0.00126679 0.336773 0.685692
646 1 0.916351 0.419906 0.655239
649 1 -0.00342802 0.502381 0.672642
508 1 0.0159051 0.58201 0.594401
650 1 0.0907923 0.577969 0.667318
531 1 0.0823638 0.660934 0.575717
512 1 0.182573 0.582563 0.567466
677 1 0.177055 0.658037 0.651923
654 1 0.25164 0.582048 0.660268
515 1 0.413094 0.502575 0.577713
516 1 0.339745 0.57664 0.564977
520 1 0.506664 0.56846 0.564615
519 1 0.599697 0.506198 0.562134
523 1 0.731165 0.490873 0.57531
524 1 0.669007 0.592564 0.584541
528 1 0.819583 0.578876 0.579647
547 1 0.748086 0.669891 0.571857
527 1 0.925418 0.510303 0.583239
551 1 0.915639 0.657708 0.585896
529 1 0.991887 0.654805 0.510932
530 1 0.093696 0.75491 0.50541
532 1 0.0139386 0.739094 0.574746
555 1 0.0852442 0.827196 0.601126
674 1 0.0961279 0.742435 0.667254
536 1 0.171685 0.746093 0.584378
535 1 0.24809 0.662929 0.574262
681 1 0.325077 0.668103 0.658316
559 1 0.257618 0.840501 0.584176
701 1 0.174716 0.831254 0.673371
540 1 0.322829 0.755147 0.570286
539 1 0.409063 0.673405 0.587588
682 1 0.413322 0.745187 0.663746
565 1 0.503041 0.830932 0.493409
543 1 0.579887 0.667998 0.576242
544 1 0.486232 0.749752 0.577986
548 1 0.676655 0.749256 0.57464
685 1 0.492198 0.64998 0.661534
686 1 0.552687 0.74242 0.657212
546 1 0.762003 0.736368 0.494667
552 1 0.827797 0.736276 0.575552
571 1 0.753831 0.820336 0.577947
717 1 0.841615 0.83405 0.645564
573 1 0.832998 0.845125 0.505263
694 1 0.935315 0.755227 0.644283
553 1 0.0169678 0.846534 0.51432
575 1 0.943126 0.836041 0.587836
554 1 0.0952133 0.924994 0.492986
697 1 0.00850296 0.839403 0.674262
577 1 0.0107279 0.00425235 0.671248
698 1 0.0890568 0.922133 0.661616
557 1 0.176256 0.834085 0.49749
558 1 0.251312 0.914562 0.493095
705 1 0.341437 0.824668 0.665589
560 1 0.167118 0.911295 0.583406
564 1 0.335025 0.932865 0.572349
563 1 0.415322 0.839793 0.584174
443 1 0.426695 0.00436579 0.578623
562 1 0.414173 0.922853 0.495353
568 1 0.50246 0.911211 0.577311
445 1 0.502981 0.0117773 0.49431
449 1 0.671905 0.0100982 0.495374
567 1 0.568539 0.828188 0.584127
447 1 0.589355 1.01654 0.586379
566 1 0.587597 0.932519 0.508064
713 1 0.663432 0.816362 0.668662
570 1 0.743387 0.92227 0.488579
451 1 0.745547 0.00863264 0.573679
572 1 0.671999 0.912778 0.582044
714 1 0.752916 0.898604 0.661841
433 1 0.0130876 0.99319 0.492308
597 1 0.843023 1.00997 0.656608
556 1 0.0129479 0.919681 0.594284
576 1 0.83216 0.925266 0.577245
455 1 0.926966 -0.00961271 0.568439
718 1 0.919173 0.925717 0.64875
578 1 0.0893806 0.0913109 0.671106
580 1 0.00191089 0.0816735 0.759012
603 1 0.0868559 0.161997 0.757078
579 1 0.0907022 0.00951536 0.747965
582 1 0.255651 0.0819981 0.673667
581 1 0.165733 0.99588 0.677763
584 1 0.166415 0.0878436 0.761608
585 1 0.342043 0.0124849 0.671787
588 1 0.314183 0.0984833 0.776717
586 1 0.428231 0.0836433 0.676463
589 1 0.493117 1.00154 0.676131
611 1 0.39713 0.166016 0.745921
590 1 0.597516 0.0831917 0.670463
591 1 0.586561 1.0053 0.745685
592 1 0.506054 0.0890005 0.756752
617 1 0.670359 0.170157 0.679119
734 1 0.580626 0.0901911 0.858133
596 1 0.662997 0.0867317 0.764296
619 1 0.760356 0.158296 0.742856
595 1 0.755429 0.992129 0.730313
600 1 0.844802 0.0812644 0.750645
623 1 0.921704 0.15692 0.755114
601 1 0.00573439 0.159931 0.671146
602 1 0.0806468 0.248897 0.68708
745 1 0.994168 0.162234 0.838075
746 1 0.074863 0.27016 0.8404
608 1 0.165963 0.256147 0.740284
607 1 0.247261 0.174972 0.757814
629 1 0.160937 0.340913 0.668423
631 1 0.241144 0.330978 0.755744
610 1 0.421776 0.24963 0.667775
612 1 0.33774 0.260183 0.739077
613 1 0.495936 0.167141 0.668216
614 1 0.596348 0.256197 0.669095
616 1 0.499344 0.257307 0.757996
615 1 0.58452 0.161643 0.747178
620 1 0.665026 0.250327 0.774437
639 1 0.589068 0.332192 0.752914
618 1 0.747784 0.254445 0.676902
643 1 0.749006 0.324096 0.759623
604 1 0.0108424 0.255383 0.763694
622 1 0.933341 0.245441 0.673702
624 1 0.837888 0.241183 0.748715
627 1 0.0966335 0.334367 0.759247
651 1 0.0882714 0.50059 0.754284
773 1 0.175776 0.336127 0.846995
770 1 0.0848013 0.419916 0.827396
630 1 0.25122 0.405445 0.661855
632 1 0.178368 0.422589 0.771136
636 1 0.336117 0.425617 0.733204
634 1 0.434729 0.416498 0.661883
633 1 0.329882 0.341468 0.671195
635 1 0.411179 0.344095 0.748896
640 1 0.497352 0.418626 0.755914
637 1 0.506496 0.313746 0.660806
638 1 0.570455 0.415507 0.669336
663 1 0.574965 0.506071 0.742211
644 1 0.661353 0.418307 0.767901
665 1 0.657091 0.497982 0.652909
642 1 0.755183 0.413867 0.675147
648 1 0.826632 0.402752 0.761358
628 1 -0.00304707 0.430521 0.752547
647 1 0.907479 0.32384 0.740108
671 1 0.914673 0.49842 0.745261
769 1 -0.00320171 0.342782 0.831838
789 1 0.821813 0.319051 0.833942
790 1 0.91423 0.409295 0.820218
673 1 0.010286 0.663363 0.665799
652 1 0.996979 0.57784 0.748506
797 1 0.177137 0.491985 0.846924
794 1 0.0846074 0.595017 0.812305
656 1 0.169879 0.577541 0.747085
655 1 0.252739 0.507196 0.741177
658 1 0.414318 0.580743 0.657549
659 1 0.404145 0.508876 0.746664
660 1 0.334184 0.589992 0.736859
683 1 0.42015 0.653652 0.749909
802 1 0.427805 0.587718 0.834846
661 1 0.49678 0.494932 0.643789
664 1 0.505066 0.589333 0.754347
662 1 0.589485 0.587427 0.662474
668 1 0.671435 0.588503 0.735507
829 1 0.501182 0.663488 0.835186
667 1 0.730819 0.496086 0.743125
666 1 0.74968 0.58291 0.657891
672 1 0.832031 0.585476 0.743295
691 1 0.74211 0.677932 0.74968
837 1 0.824299 0.668445 0.814072
670 1 0.909489 0.582947 0.666426
793 1 1.01478 0.50999 0.837666
813 1 0.831713 0.505334 0.822256
814 1 0.918261 0.578338 0.825571
821 1 0.180465 0.666229 0.836477
675 1 0.106616 0.666834 0.735994
676 1 0.0181899 0.749146 0.748762
817 1 1.0007 0.661361 0.811619
818 1 0.0963974 0.757241 0.830062
841 1 0.0149739 0.845571 0.826227
679 1 0.251187 0.66345 0.75162
678 1 0.245674 0.747814 0.679127
680 1 0.174847 0.757697 0.756908
822 1 0.258705 0.727929 0.831805
684 1 0.335944 0.739336 0.758056
709 1 0.481634 0.828621 0.673359
688 1 0.488625 0.763879 0.754118
689 1 0.655236 0.693379 0.67014
687 1 0.576097 0.668584 0.743409
711 1 0.582014 0.821954 0.744341
853 1 0.500862 0.83128 0.844582
693 1 0.819703 0.659933 0.661202
690 1 0.755955 0.739585 0.650824
692 1 0.655302 0.752841 0.761124
696 1 0.841586 0.741831 0.728825
861 1 0.838211 0.825216 0.808015
695 1 0.916921 0.65546 0.743765
719 1 0.921705 0.840203 0.740889
838 1 0.928097 0.746568 0.829305
699 1 0.0971835 0.830905 0.758361
700 1 0.00885454 0.929408 0.753172
704 1 0.171023 0.922747 0.756571
845 1 0.185846 0.831638 0.841301
702 1 0.26346 0.924352 0.671533
583 1 0.252385 0.00612332 0.743945
703 1 0.266877 0.834671 0.746369
708 1 0.319645 0.929666 0.77368
846 1 0.241224 0.927597 0.838925
706 1 0.396721 0.919664 0.699603
707 1 0.399503 0.826884 0.757941
587 1 0.40691 0.0136081 0.760092
712 1 0.498189 0.912537 0.749922
710 1 0.572022 0.908278 0.666779
733 1 0.502011 0.00271765 0.832867
854 1 0.590729 0.911099 0.829912
857 1 0.66975 0.841072 0.829229
716 1 0.668063 0.906821 0.732181
715 1 0.754706 0.826136 0.739284
858 1 0.766761 0.89972 0.826175
721 1 -0.00102824 1.00842 0.837541
720 1 0.837872 0.915844 0.733248
599 1 0.925326 1.0119 0.743663
741 1 0.826966 0.997029 0.83176
862 1 0.908669 0.915784 0.819708
2 1 0.0756223 0.0819071 -0.00543351
722 1 0.084716 0.0925119 0.843577
728 1 0.152004 0.0833367 0.919672
726 1 0.236878 0.0839416 0.854827
727 1 0.242298 1.00249 0.930223
749 1 0.155521 0.177228 0.83595
751 1 0.254346 0.175439 0.915342
725 1 0.162228 0.00953498 0.838106
730 1 0.42546 0.082044 0.84254
732 1 0.326404 0.0807783 0.916216
755 1 0.432401 0.18311 0.916104
753 1 0.339066 0.177277 0.844986
757 1 0.522714 0.173598 0.842154
736 1 0.490623 0.0777544 0.918052
740 1 0.674469 0.0702101 0.90215
759 1 0.586356 0.167408 0.942076
765 1 0.839512 0.179205 0.82672
738 1 0.757515 0.08777 0.817859
763 1 0.753469 0.163782 0.907769
742 1 0.915098 0.0768763 0.836336
724 1 1.00263 0.0925403 0.919771
744 1 0.831422 0.0778982 0.910994
767 1 0.918536 0.151774 0.917337
26 1 0.0780353 0.259955 1.00383
53 1 0.173183 0.336017 0.00229254
747 1 0.0783489 0.177956 0.910134
752 1 0.147313 0.257103 0.921802
771 1 0.0875095 0.344765 0.920201
30 1 0.257495 0.236053 0.00298553
57 1 0.353782 0.337015 0.0200527
750 1 0.238872 0.257738 0.837749
756 1 0.349625 0.258329 0.929927
775 1 0.252515 0.325644 0.93526
34 1 0.418275 0.251365 0.00256998
754 1 0.41456 0.265505 0.841947
779 1 0.429266 0.332611 0.923529
781 1 0.500385 0.332602 0.832403
760 1 0.518466 0.249602 0.928006
758 1 0.589328 0.249508 0.846219
764 1 0.659957 0.265221 0.93496
762 1 0.743811 0.242001 0.841717
761 1 0.660625 0.166015 0.854813
768 1 0.844082 0.237974 0.921748
785 1 0.671458 0.345206 0.83959
787 1 0.741463 0.332488 0.918205
766 1 0.93051 0.25046 0.829947
748 1 0.00274452 0.261558 0.926392
25 1 -0.00180164 0.174199 -0.0101699
50 1 0.089982 0.436175 -0.000640492
776 1 0.173313 0.412494 0.916295
73 1 1.00289 0.510708 0.994322
77 1 0.18615 0.487877 0.997788
795 1 0.0833985 0.501854 0.910432
774 1 0.262163 0.421837 0.840723
801 1 0.346475 0.503519 0.830439
54 1 0.253776 0.409621 0.00157784
780 1 0.325921 0.409075 0.925218
799 1 0.25696 0.520551 0.911752
58 1 0.415721 0.423678 0.001467
777 1 0.326146 0.327488 0.838616
778 1 0.41653 0.413093 0.845643
784 1 0.492835 0.422489 0.919562
85 1 0.507163 0.496279 -0.000132909
782 1 0.571812 0.411274 0.831897
783 1 0.581349 0.345382 0.912468
805 1 0.502535 0.502989 0.838276
807 1 0.584744 0.49095 0.907811
786 1 0.757451 0.424637 0.848532
788 1 0.671657 0.422574 0.923419
809 1 0.676324 0.490122 0.848459
791 1 0.911572 0.32986 0.905223
49 1 0.00757045 0.348403 1.00064
772 1 0.974439 0.42426 0.906195
792 1 0.848917 0.415244 0.912706
815 1 0.914778 0.508572 0.912911
74 1 0.099945 0.569077 -0.00418153
97 1 0.0147184 0.657004 -0.00267655
101 1 0.167535 0.656939 0.0172205
800 1 0.163809 0.578131 0.91596
798 1 0.25382 0.57753 0.817498
81 1 0.321669 0.504847 -0.00105522
78 1 0.251746 0.579485 0.00656913
804 1 0.344401 0.578606 0.916076
803 1 0.403865 0.488935 0.927135
82 1 0.406843 0.567547 0.0097132
825 1 0.34591 0.650423 0.827034
827 1 0.41122 0.656624 0.923068
86 1 0.585423 0.578917 1.00916
806 1 0.582467 0.567179 0.836274
808 1 0.481416 0.571807 0.935504
831 1 0.590461 0.65008 0.91506
810 1 0.73975 0.57321 0.810471
833 1 0.651883 0.648663 0.823927
811 1 0.754188 0.510977 0.914824
812 1 0.656719 0.567769 0.915597
796 1 -0.00292821 0.580856 0.917648
816 1 0.836397 0.609993 0.912559
839 1 0.925045 0.662714 0.906566
98 1 0.0833409 0.748824 0.986282
819 1 0.0891989 0.663981 0.911601
843 1 0.0924429 0.844888 0.903328
102 1 0.247556 0.743273 0.00418783
823 1 0.259655 0.643829 0.914087
824 1 0.162602 0.750026 0.909794
847 1 0.246365 0.814729 0.927365
105 1 0.329148 0.652094 -0.00246331
106 1 0.419856 0.741971 0.997084
826 1 0.43035 0.738127 0.843184
828 1 0.331665 0.747659 0.91023
851 1 0.403042 0.83129 0.906705
830 1 0.574489 0.749174 0.836021
832 1 0.500739 0.75011 0.928014
834 1 0.746843 0.743104 0.828619
113 1 0.663907 0.665365 0.00798271
835 1 0.736916 0.661292 0.90581
836 1 0.658969 0.744535 0.892852
859 1 0.749389 0.833883 0.916118
118 1 0.915962 0.752766 0.983236
820 1 0.00132798 0.752768 0.901609
840 1 0.83999 0.748606 0.892569
842 1 0.0861927 0.918041 0.836762
122 1 0.0761167 0.909826 0.999768
723 1 0.0710387 0.999063 0.917548
849 1 0.321351 0.835556 0.83784
848 1 0.15686 0.92152 0.923296
9 1 0.337471 -0.0090718 1.00577
850 1 0.418725 0.925257 0.838229
729 1 0.324196 0.0160591 0.838493
852 1 0.311149 0.908528 0.926342
731 1 0.418802 -0.00310285 0.928882
855 1 0.595873 0.835228 0.905722
856 1 0.500484 0.907384 0.919434
735 1 0.583668 0.993847 0.901614
737 1 0.680694 0.989998 0.819028
17 1 0.663542 -0.00675831 0.989706
739 1 0.757617 -0.00477165 0.913729
137 1 0.661179 0.839687 -0.0137827
860 1 0.67738 0.924048 0.90403
138 1 0.733746 0.913624 1.00119
121 1 0.00355144 0.824551 0.985603
743 1 0.917071 0.992409 0.907792
863 1 0.921575 0.832978 0.892314
864 1 0.827443 0.911214 0.921937
844 1 0.997425 0.921816 0.914594
