ITEM: TIMESTEP
3250
ITEM: NUMBER OF ATOMS
864
ITEM: BOX BOUNDS pp pp pp
0.0000000000000000e+00 3.1559999999999999e+01
0.0000000000000000e+00 3.1559999999999999e+01
0.0000000000000000e+00 3.1559999999999999e+01
ITEM: ATOMS id type xs ys zs
27 1 0.0862735 0.153694 0.0872123
3 1 0.07153 0.990386 0.0785704
8 1 0.161998 0.078603 0.0720117
29 1 0.158445 0.166055 -0.00989423
2 1 0.0773991 0.0859418 -0.00523024
31 1 0.239923 0.158578 0.0649508
12 1 0.333342 0.0781047 0.0760743
177 1 0.325852 0.16885 0.146762
150 1 0.249783 0.0732274 0.161033
35 1 0.430016 0.175456 0.0771628
11 1 0.418805 1.01592 0.0817229
16 1 0.499712 0.0823305 0.069705
15 1 0.589799 0.0198108 0.067721
39 1 0.585838 0.158599 0.0838957
157 1 0.504861 -0.0155685 0.151727
20 1 0.670128 0.0820157 0.0843895
161 1 0.659248 0.00256216 0.179832
24 1 0.815978 0.0826684 0.0878544
18 1 0.758408 0.0828548 0.988326
4 1 0.996174 0.0888806 0.0797849
47 1 0.914253 0.168972 0.0855963
23 1 0.919054 1.00897 0.0909846
166 1 0.922924 0.0915537 0.167266
51 1 0.0867322 0.330457 0.0855948
32 1 0.169837 0.254515 0.0855492
26 1 0.0881413 0.264617 -0.00467161
55 1 0.245712 0.324448 0.078867
33 1 0.327031 0.174595 1.00687
174 1 0.247228 0.240633 0.166206
30 1 0.242793 0.249541 0.00489677
36 1 0.340068 0.257843 0.0832807
40 1 0.510557 0.25529 0.100536
37 1 0.504627 0.167271 1.00922
61 1 0.503297 0.352585 0.997949
38 1 0.594853 0.247244 0.00260682
63 1 0.57646 0.340265 0.0813731
182 1 0.591017 0.25071 0.17213
41 1 0.668807 0.170284 1.01097
44 1 0.661384 0.246522 0.0805048
43 1 0.740952 0.159925 0.0972657
185 1 0.656998 0.149498 0.175554
186 1 0.746185 0.248962 0.160098
48 1 0.843616 0.246925 0.0922227
28 1 0.00644348 0.246528 0.0776276
190 1 0.923485 0.251886 0.166501
46 1 0.91898 0.244331 0.995157
49 1 0.985018 0.342114 0.989053
71 1 0.915025 0.3261 0.0636248
169 1 0.994129 0.173003 0.164285
50 1 0.0831142 0.388785 -0.000103178
56 1 0.175844 0.409505 0.0838785
193 1 0.0143687 0.329632 0.157573
52 1 0.00713682 0.402518 0.0756573
75 1 0.0847676 0.474962 0.0887633
73 1 1.00032 0.489116 0.00738896
79 1 0.250479 0.495282 0.0849953
201 1 0.333377 0.322943 0.167306
197 1 0.17011 0.330436 0.164966
57 1 0.34228 0.319559 -0.00608674
54 1 0.262971 0.398272 -0.00269745
59 1 0.415332 0.346468 0.0706985
60 1 0.331896 0.416132 0.089519
64 1 0.494045 0.42501 0.0856339
81 1 0.334763 0.515018 0.985523
58 1 0.415502 0.426962 -0.0152103
68 1 0.682488 0.426217 0.0801856
62 1 0.586253 0.43033 0.00840101
87 1 0.579493 0.500985 0.093366
67 1 0.757697 0.330652 0.0800368
66 1 0.752734 0.420034 0.987087
72 1 0.838528 0.402328 0.0752249
93 1 0.826919 0.502431 1.00863
69 1 0.835442 0.326 0.997225
65 1 0.667881 0.351886 1.00455
99 1 0.0931226 0.664737 0.0746573
218 1 0.0941763 0.579581 0.174087
221 1 0.168694 0.488798 0.169236
80 1 0.172551 0.591707 0.0977774
78 1 0.244876 0.573212 0.990352
101 1 0.186346 0.659079 0.00228902
84 1 0.321432 0.57713 0.096722
83 1 0.406514 0.491451 0.0781638
82 1 0.417649 0.584571 0.984498
88 1 0.492249 0.572857 0.087148
85 1 0.495206 0.505427 1.00557
86 1 0.581913 0.588613 0.00349444
91 1 0.753173 0.516753 0.0986846
92 1 0.663055 0.595488 0.0810383
90 1 0.745225 0.596351 0.00530943
115 1 0.746432 0.670799 0.0977142
96 1 0.846472 0.584973 0.0879667
76 1 -0.00152215 0.575445 0.0890821
261 1 0.820609 0.663772 0.181705
95 1 0.912781 0.493714 0.0728167
217 1 0.98729 0.494421 0.160001
242 1 0.0902283 0.735283 0.169307
98 1 0.0873306 0.760677 0.0100152
121 1 0.995686 0.841288 -0.00617515
103 1 0.25959 0.658939 0.0932558
104 1 0.177503 0.737512 0.0829073
108 1 0.33517 0.754902 0.0900124
127 1 0.237747 0.822548 0.093084
105 1 0.323734 0.667665 0.989072
107 1 0.405382 0.642675 0.0914575
131 1 0.424223 0.850256 0.083573
106 1 0.402747 0.753604 0.00174795
113 1 0.665349 0.666777 0.00456002
111 1 0.575257 0.664499 0.0979289
112 1 0.487857 0.733844 0.0803573
254 1 0.566551 0.754583 0.165562
109 1 0.499699 0.65702 0.991104
116 1 0.667737 0.749062 0.0934078
258 1 0.758332 0.765483 0.149407
119 1 0.926523 0.666289 0.0861127
120 1 0.852643 0.748536 0.100583
117 1 0.829616 0.669687 0.00582652
100 1 1.00153 0.755007 0.08034
118 1 0.904991 0.758046 0.00328673
123 1 0.0959775 0.83608 0.0940715
128 1 0.177702 0.912425 0.0936904
7 1 0.247677 1.00068 0.0848225
273 1 0.342224 0.841428 0.170788
153 1 0.334426 1.0048 0.155669
270 1 0.240093 0.914496 0.173136
132 1 0.334732 0.919326 0.0773445
274 1 0.421215 0.930744 0.168835
135 1 0.567194 0.819713 0.0850947
136 1 0.508481 0.916139 0.077381
278 1 0.594064 0.916188 0.165194
133 1 0.485818 0.828772 1.00009
134 1 0.583145 0.920766 0.996767
13 1 0.491335 -0.00837852 1.00248
19 1 0.742394 1.00651 0.10921
17 1 0.669751 0.0207497 0.994091
141 1 0.83398 0.835948 -0.00380932
139 1 0.743639 0.833087 0.0769221
140 1 0.660962 0.938434 0.0765892
137 1 0.646424 0.826482 0.0119675
124 1 0.999907 0.909387 0.0813898
143 1 0.920715 0.830735 0.0731695
144 1 0.827603 0.927018 0.0669739
286 1 0.92125 0.91396 0.17795
146 1 0.0851409 0.0786061 0.157262
317 1 0.176707 0.160409 0.340436
290 1 0.10144 0.075757 0.322552
152 1 0.165314 0.0857578 0.236327
173 1 0.16477 0.160769 0.161267
156 1 0.328814 0.0672109 0.239898
151 1 0.253952 0.977116 0.266129
294 1 0.255363 0.0744208 0.33541
154 1 0.422166 0.0933583 0.15804
155 1 0.421814 -0.00339691 0.245211
298 1 0.423723 0.0837174 0.318452
160 1 0.506111 0.0883037 0.252574
181 1 0.507185 0.174936 0.172243
179 1 0.419103 0.175585 0.239755
158 1 0.57744 0.0842558 0.161671
159 1 0.581762 0.00948155 0.254042
302 1 0.590408 0.0844591 0.34201
301 1 0.499063 -0.00120389 0.327808
305 1 0.662337 0.979597 0.32189
162 1 0.751722 0.0872644 0.173612
163 1 0.753582 0.0114408 0.249716
164 1 0.667853 0.0780732 0.255457
306 1 0.750008 0.098937 0.326794
148 1 0.000102656 0.0989168 0.255233
165 1 0.836414 0.990146 0.16052
168 1 0.841135 0.0900518 0.246359
309 1 0.836411 0.019026 0.333504
189 1 0.832393 0.161441 0.161007
310 1 0.916719 0.083681 0.33334
170 1 0.0801693 0.242946 0.144163
171 1 0.0805905 0.171335 0.232778
314 1 0.0840004 0.232193 0.326504
337 1 1.00614 0.324661 0.328445
175 1 0.260756 0.157084 0.229642
176 1 0.186085 0.249462 0.244605
180 1 0.342232 0.237157 0.250439
318 1 0.265194 0.241658 0.345993
345 1 0.341352 0.323171 0.344566
178 1 0.411141 0.253222 0.164015
321 1 0.346326 0.153911 0.329132
325 1 0.499787 0.161257 0.338105
184 1 0.504836 0.25638 0.248767
183 1 0.573691 0.164228 0.25524
326 1 0.581066 0.245109 0.339214
329 1 0.669096 0.17103 0.326043
188 1 0.66914 0.246325 0.246428
187 1 0.748025 0.15545 0.24469
211 1 0.750238 0.345411 0.233222
330 1 0.748661 0.252252 0.331188
333 1 0.839544 0.160442 0.320603
191 1 0.912951 0.175134 0.242919
313 1 0.995691 0.173115 0.321628
172 1 0.999892 0.251965 0.246874
192 1 0.818535 0.24866 0.247562
334 1 0.927236 0.256998 0.3281
194 1 0.0916756 0.408312 0.174957
195 1 0.095976 0.315576 0.250814
338 1 0.0866234 0.405917 0.32513
200 1 0.183294 0.393935 0.245932
198 1 0.251183 0.401325 0.155347
199 1 0.259601 0.315579 0.268857
204 1 0.315312 0.420353 0.243849
341 1 0.180053 0.325302 0.332683
202 1 0.407068 0.397993 0.16738
203 1 0.419205 0.331604 0.251368
346 1 0.413384 0.424886 0.333769
233 1 0.66185 0.49224 0.173894
205 1 0.502713 0.33649 0.175023
208 1 0.500532 0.419487 0.257186
206 1 0.586285 0.413969 0.168638
207 1 0.583354 0.333833 0.257944
210 1 0.756926 0.426476 0.157556
209 1 0.657279 0.33595 0.151019
212 1 0.659351 0.411734 0.251219
381 1 0.845963 0.506875 0.333945
216 1 0.835068 0.411888 0.24816
353 1 0.656919 0.341925 0.331633
213 1 0.839738 0.328432 0.158139
214 1 0.91975 0.402564 0.156143
357 1 0.839384 0.332399 0.318935
196 1 1.00024 0.411863 0.235988
215 1 0.927574 0.330807 0.242383
239 1 0.917447 0.495486 0.242256
361 1 -0.000573204 0.511359 0.326753
219 1 0.0794533 0.488722 0.250378
220 1 0.00966987 0.577633 0.24046
243 1 0.0898986 0.67745 0.261525
225 1 0.329359 0.497711 0.170143
222 1 0.255169 0.584301 0.182027
224 1 0.170473 0.589249 0.257687
223 1 0.242598 0.496133 0.244038
228 1 0.33493 0.580572 0.249056
249 1 0.33835 0.67043 0.168037
226 1 0.420282 0.585212 0.184915
253 1 0.492511 0.656406 0.160639
227 1 0.406679 0.497014 0.25544
251 1 0.411904 0.666617 0.262007
230 1 0.558379 0.569137 0.167974
229 1 0.469348 0.496125 0.173709
232 1 0.493127 0.580957 0.263322
231 1 0.581688 0.489337 0.248317
374 1 0.582061 0.57148 0.341234
234 1 0.731845 0.593642 0.174156
235 1 0.756724 0.496147 0.2383
236 1 0.671889 0.557846 0.249302
237 1 0.848696 0.478482 0.161597
240 1 0.833422 0.579733 0.250828
238 1 0.914607 0.585615 0.176571
382 1 0.923398 0.594958 0.349651
241 1 0.0143332 0.659311 0.15444
386 1 0.0936639 0.758237 0.34411
267 1 0.0721935 0.827305 0.247828
389 1 0.168147 0.681795 0.334906
385 1 0.0084365 0.676081 0.334365
269 1 0.163303 0.827913 0.177043
245 1 0.168966 0.664501 0.166724
246 1 0.249823 0.750493 0.170064
247 1 0.244093 0.668673 0.246047
248 1 0.172144 0.754938 0.255813
390 1 0.261254 0.754607 0.335249
250 1 0.420355 0.755013 0.170861
252 1 0.335055 0.74451 0.253422
256 1 0.503527 0.729048 0.262527
421 1 0.501403 0.827294 0.329213
257 1 0.651823 0.667228 0.166193
255 1 0.576093 0.655375 0.246479
398 1 0.586266 0.751045 0.329026
259 1 0.733739 0.681203 0.24152
425 1 0.676042 0.826836 0.324654
260 1 0.656342 0.762542 0.227709
283 1 0.759258 0.831513 0.247838
402 1 0.756961 0.759667 0.328444
405 1 0.812508 0.658783 0.325458
262 1 0.935788 0.735143 0.176159
263 1 0.91942 0.659163 0.25972
244 1 0.99201 0.754124 0.269021
264 1 0.847501 0.766282 0.217312
287 1 0.934915 0.835719 0.249347
285 1 0.837092 0.848217 0.15386
406 1 0.90727 0.753513 0.334095
145 1 0.00326315 0.00800599 0.17155
266 1 0.083795 0.935262 0.167493
147 1 0.0840592 -0.00555487 0.263103
293 1 0.160262 0.990156 0.345544
410 1 0.0936327 0.907544 0.332575
149 1 0.164322 1.00651 0.163402
272 1 0.155875 0.923814 0.242421
271 1 0.259516 0.821733 0.24654
414 1 0.268029 0.905619 0.356487
275 1 0.41917 0.82232 0.249996
276 1 0.331694 0.90246 0.259837
417 1 0.344252 0.837878 0.336401
277 1 0.500039 0.850638 0.166633
279 1 0.572805 0.837513 0.25172
280 1 0.513246 0.925225 0.247414
281 1 0.664724 0.841029 0.151241
284 1 0.6671 0.901721 0.244076
282 1 0.749899 0.906245 0.152201
265 1 0.00282843 0.842166 0.164215
167 1 0.9068 0.0119004 0.242596
268 1 1.00655 0.928165 0.256065
288 1 0.835902 0.919821 0.241037
292 1 -0.0110698 0.0935643 0.414867
315 1 0.0786642 0.153348 0.413875
434 1 0.082625 0.0888902 0.501487
461 1 0.175929 0.160774 0.488561
296 1 0.1863 0.0807354 0.418979
319 1 0.262647 0.154077 0.412016
297 1 0.343088 0.990363 0.340244
300 1 0.352003 0.0835185 0.414714
465 1 0.337974 0.160729 0.504085
442 1 0.431931 0.0732886 0.524084
304 1 0.51167 0.0736398 0.415695
327 1 0.585061 0.150616 0.425341
308 1 0.66724 0.0871539 0.425895
450 1 0.755464 0.0858378 0.498054
312 1 0.837812 0.0897981 0.417612
307 1 0.739983 -0.00324178 0.400135
449 1 0.676316 1.00481 0.491046
453 1 0.828928 -0.00435455 0.491254
454 1 0.920528 0.0762346 0.495272
335 1 0.915481 0.175139 0.408477
311 1 0.907261 -0.00536213 0.410075
457 1 0.990888 0.171811 0.493468
316 1 0.00951434 0.245338 0.405616
458 1 0.0968621 0.234167 0.473272
320 1 0.180241 0.247554 0.410851
343 1 0.263143 0.32883 0.407725
324 1 0.344033 0.227947 0.421647
322 1 0.410383 0.240398 0.333217
323 1 0.42713 0.161015 0.418988
466 1 0.42761 0.257038 0.501605
328 1 0.502213 0.24429 0.397125
470 1 0.572821 0.246799 0.497965
469 1 0.505042 0.159558 0.498513
332 1 0.65241 0.24952 0.420173
473 1 0.668168 0.17029 0.504185
493 1 0.504375 0.336794 0.500135
331 1 0.756572 0.168206 0.412593
474 1 0.748994 0.244297 0.502958
355 1 0.735681 0.318676 0.421535
497 1 0.653362 0.329937 0.5077
336 1 0.825536 0.255345 0.410534
478 1 0.901195 0.249876 0.491395
339 1 0.079151 0.315783 0.394508
363 1 0.0635297 0.474779 0.407156
340 1 -0.00184195 0.385246 0.418952
482 1 0.095908 0.413085 0.49209
344 1 0.184257 0.414487 0.428986
342 1 0.251539 0.421119 0.328718
348 1 0.322783 0.423439 0.407811
365 1 0.174795 0.50042 0.325071
486 1 0.259898 0.413949 0.520062
347 1 0.415782 0.326202 0.414419
490 1 0.406493 0.409339 0.510809
371 1 0.412068 0.478652 0.427568
350 1 0.573981 0.41391 0.343289
373 1 0.500209 0.493962 0.340689
352 1 0.492684 0.400935 0.420155
349 1 0.498262 0.331732 0.331378
351 1 0.583603 0.336312 0.419317
377 1 0.662966 0.498498 0.350809
354 1 0.763533 0.417181 0.336027
356 1 0.677333 0.412501 0.426178
358 1 0.930483 0.417959 0.324787
359 1 0.903031 0.333583 0.412599
501 1 0.825074 0.350411 0.493768
360 1 0.831817 0.419133 0.415869
362 1 0.0899303 0.570098 0.332081
364 1 0.0159996 0.58804 0.420615
368 1 0.183821 0.594048 0.419654
506 1 0.0967574 0.572854 0.501498
366 1 0.251108 0.59567 0.33024
367 1 0.248026 0.504621 0.435209
369 1 0.334202 0.500065 0.33408
510 1 0.235846 0.586627 0.517851
370 1 0.396234 0.589384 0.337953
372 1 0.321951 0.580176 0.415142
393 1 0.329209 0.669667 0.329772
395 1 0.421649 0.677758 0.409516
514 1 0.422014 0.57665 0.504499
375 1 0.583838 0.492605 0.426913
376 1 0.503757 0.573657 0.422176
518 1 0.582859 0.582851 0.513848
541 1 0.510293 0.665068 0.479323
401 1 0.683814 0.676546 0.334986
378 1 0.746709 0.576588 0.345223
379 1 0.761309 0.500207 0.412901
380 1 0.67256 0.591392 0.424908
384 1 0.843419 0.584689 0.412798
383 1 0.931917 0.484455 0.410943
387 1 0.0887465 0.669983 0.409984
392 1 0.174559 0.766695 0.411921
411 1 0.0802082 0.836876 0.421945
388 1 0.991489 0.755668 0.405828
529 1 0.014846 0.686748 0.488556
391 1 0.26336 0.665352 0.44505
396 1 0.336259 0.752488 0.423903
561 1 0.337945 0.828425 0.508972
394 1 0.419467 0.75266 0.337736
397 1 0.511824 0.664629 0.348942
400 1 0.492539 0.756787 0.417014
419 1 0.416965 0.831269 0.424767
399 1 0.59722 0.670905 0.405251
423 1 0.584301 0.830425 0.410369
403 1 0.753563 0.665095 0.426135
404 1 0.671828 0.76286 0.409162
546 1 0.750132 0.759116 0.495066
429 1 0.840574 0.838823 0.322163
407 1 0.917219 0.676154 0.417802
408 1 0.824937 0.736121 0.409698
409 1 1.01486 0.8297 0.337649
291 1 0.0857497 0.00173684 0.428872
416 1 0.170039 0.899693 0.414168
437 1 0.164604 0.00165778 0.499248
412 1 0.987724 0.928126 0.398111
415 1 0.256491 0.831764 0.430767
295 1 0.249876 -0.00822197 0.416249
413 1 0.17704 0.832891 0.317515
557 1 0.151381 0.854401 0.509946
558 1 0.249808 0.912468 0.504675
299 1 0.424866 1.00815 0.40955
420 1 0.34731 0.91577 0.433585
418 1 0.427345 0.912234 0.322942
424 1 0.494196 0.909683 0.434752
445 1 0.510154 0.00221448 0.492734
303 1 0.590941 0.997322 0.419351
422 1 0.574011 0.917336 0.343258
426 1 0.750028 0.916631 0.318901
427 1 0.763816 0.837541 0.408097
428 1 0.666636 0.903792 0.408629
570 1 0.739623 0.911447 0.49898
432 1 0.822832 0.929259 0.405393
431 1 0.905479 0.840855 0.416813
289 1 0.997569 0.0100482 0.338977
433 1 0.992797 -0.0085903 0.485153
430 1 0.919522 0.935317 0.316741
574 1 0.910925 0.911008 0.494712
553 1 0.993982 0.823639 0.485173
459 1 0.0748873 0.171568 0.566686
440 1 0.166045 0.0871621 0.596651
578 1 0.079321 0.0668089 0.671265
601 1 0.0142188 0.156072 0.655757
435 1 0.0802157 1.00314 0.588957
605 1 0.141605 0.165555 0.667903
577 1 0.992018 0.99239 0.662839
438 1 0.249406 0.0847316 0.502767
463 1 0.252711 0.165344 0.585386
444 1 0.33886 0.0942672 0.589105
439 1 0.234369 0.00427069 0.586664
609 1 0.329555 0.170615 0.666869
441 1 0.319048 -0.0021979 0.497843
467 1 0.423735 0.17464 0.578816
448 1 0.505059 0.0912007 0.595835
613 1 0.511228 0.169155 0.679382
446 1 0.590385 0.0858255 0.515901
590 1 0.596469 0.0831954 0.660424
593 1 0.670941 0.0009673 0.681485
589 1 0.502517 0.00858441 0.692164
452 1 0.678063 0.065133 0.589053
451 1 0.75829 0.997842 0.585407
617 1 0.68409 0.169272 0.659209
436 1 0.00338789 0.09437 0.578494
456 1 0.839691 0.0715029 0.571083
479 1 0.904005 0.153537 0.570065
598 1 0.921627 0.0824219 0.667786
455 1 0.924504 0.00134147 0.565614
485 1 0.160819 0.324033 0.490416
483 1 0.0803126 0.328696 0.569216
460 1 -0.00870171 0.248827 0.575908
481 1 0.00499662 0.312682 0.48996
464 1 0.169602 0.241162 0.583941
489 1 0.333819 0.326946 0.483478
462 1 0.249896 0.246259 0.496224
633 1 0.341048 0.331128 0.672862
468 1 0.330646 0.263727 0.582262
491 1 0.414959 0.335108 0.582271
637 1 0.499554 0.331355 0.665581
610 1 0.421408 0.251275 0.659795
472 1 0.501712 0.256277 0.583985
471 1 0.581611 0.174091 0.578379
614 1 0.58887 0.244239 0.66953
476 1 0.665828 0.240591 0.589214
495 1 0.593751 0.326753 0.598013
475 1 0.759402 0.157674 0.581358
618 1 0.753522 0.247158 0.66286
621 1 0.844403 0.180706 0.664292
499 1 0.761521 0.326002 0.58449
477 1 0.83135 0.166489 0.489156
480 1 0.831446 0.23652 0.567756
484 1 0.00418925 0.406685 0.565461
513 1 0.338026 0.496836 0.51509
487 1 0.240569 0.331142 0.590771
488 1 0.164377 0.417505 0.578743
511 1 0.260318 0.503897 0.595241
492 1 0.327757 0.408466 0.60164
517 1 0.504409 0.487437 0.506588
634 1 0.428628 0.421862 0.674582
515 1 0.437001 0.501718 0.585861
496 1 0.515331 0.410135 0.587215
661 1 0.510544 0.495877 0.671196
494 1 0.575717 0.414809 0.495544
638 1 0.598525 0.414801 0.671559
665 1 0.674218 0.489557 0.670511
519 1 0.579793 0.498914 0.591152
500 1 0.663753 0.411089 0.583779
498 1 0.752328 0.422083 0.514254
641 1 0.673064 0.339164 0.66962
642 1 0.758137 0.418452 0.653445
502 1 0.911215 0.413791 0.489292
525 1 0.840853 0.508444 0.502927
503 1 0.909052 0.329148 0.577162
504 1 0.844526 0.4308 0.584708
646 1 0.924114 0.40379 0.653421
505 1 0.000389286 0.503377 0.495526
533 1 0.166977 0.680594 0.501547
507 1 0.0699365 0.490517 0.580741
508 1 0.0221111 0.596588 0.569385
512 1 0.148334 0.57935 0.599535
531 1 0.0801845 0.687088 0.586279
649 1 1.00851 0.484461 0.660238
509 1 0.170381 0.502717 0.522105
657 1 0.354293 0.496063 0.672598
537 1 0.342788 0.665138 0.510546
516 1 0.351525 0.584904 0.589998
654 1 0.248256 0.579109 0.662942
681 1 0.336624 0.662016 0.658716
520 1 0.499304 0.591987 0.577698
685 1 0.518786 0.670743 0.680314
658 1 0.423768 0.573102 0.666872
524 1 0.659317 0.574743 0.590247
522 1 0.758395 0.596289 0.504445
521 1 0.681209 0.496598 0.496433
523 1 0.748005 0.517231 0.575605
666 1 0.752112 0.571278 0.66129
549 1 0.828895 0.675893 0.508741
526 1 0.929713 0.578737 0.484364
527 1 0.932279 0.509386 0.581541
528 1 0.835276 0.578016 0.582234
670 1 0.936184 0.583414 0.652477
530 1 0.0846618 0.756947 0.496275
536 1 0.177371 0.751947 0.576633
674 1 0.0842765 0.757901 0.666059
535 1 0.249734 0.671435 0.571874
534 1 0.250627 0.75393 0.499808
678 1 0.240284 0.735634 0.67165
701 1 0.166611 0.835377 0.671039
538 1 0.4137 0.73519 0.503364
539 1 0.435014 0.667013 0.58998
540 1 0.335466 0.750482 0.591507
563 1 0.414584 0.830655 0.588509
542 1 0.58024 0.764734 0.499868
544 1 0.509373 0.745751 0.581476
543 1 0.605086 0.670012 0.569516
686 1 0.595414 0.742733 0.669979
567 1 0.583102 0.840464 0.580777
545 1 0.665357 0.691893 0.487962
547 1 0.746859 0.652502 0.586897
548 1 0.673303 0.755822 0.579007
552 1 0.821511 0.748336 0.58443
551 1 0.913762 0.667571 0.571057
532 1 0.996177 0.752104 0.58646
550 1 0.922412 0.748088 0.491443
575 1 0.916282 0.823774 0.567289
555 1 0.0718357 0.821935 0.581763
554 1 0.0701091 0.92039 0.496833
581 1 0.156181 0.987153 0.684809
698 1 0.0836765 0.905519 0.660818
559 1 0.25717 0.831514 0.58126
560 1 0.167967 0.922309 0.587599
564 1 0.333372 0.918123 0.586981
702 1 0.249943 0.904634 0.683485
443 1 0.417349 -0.0029034 0.601904
562 1 0.419988 0.948967 0.510531
706 1 0.420983 0.919624 0.680305
568 1 0.500333 0.918984 0.581973
565 1 0.489869 0.825073 0.503668
566 1 0.575069 0.916133 0.491499
447 1 0.585096 0.996976 0.582059
710 1 0.574897 0.930342 0.682205
709 1 0.508178 0.840898 0.656087
569 1 0.663217 0.833091 0.501112
571 1 0.743584 0.844684 0.580749
572 1 0.661509 0.92176 0.587148
597 1 0.831744 0.011565 0.670654
573 1 0.826172 0.832779 0.503469
576 1 0.835783 0.915445 0.568517
556 1 0.998569 0.913235 0.576081
717 1 0.830793 0.846324 0.661781
718 1 0.906708 0.920051 0.658759
603 1 0.0928062 0.178483 0.760652
722 1 0.0800691 0.080035 0.829744
584 1 0.172059 0.0679078 0.749663
580 1 1.00361 0.0820155 0.748899
749 1 0.174526 0.169854 0.846395
582 1 0.252093 0.0958964 0.674759
588 1 0.345591 0.0952464 0.749364
607 1 0.244367 0.185098 0.750889
586 1 0.413208 0.0876084 0.669369
611 1 0.420524 0.175837 0.756452
730 1 0.421559 0.090973 0.836418
592 1 0.507559 0.0868797 0.76797
591 1 0.575946 -0.00360086 0.763405
734 1 0.575463 0.0998465 0.846532
733 1 0.497543 0.986421 0.829078
594 1 0.765723 0.0938001 0.668738
596 1 0.663091 0.0892214 0.734782
600 1 0.83877 0.0908811 0.750239
738 1 0.76047 0.0916912 0.826102
623 1 0.941623 0.179262 0.742761
742 1 0.919103 0.0805031 0.823933
741 1 0.830151 -0.00183555 0.828229
602 1 0.0890553 0.260726 0.658776
625 1 0.00285478 0.320338 0.657655
604 1 0.0220792 0.262045 0.751237
745 1 -0.000167939 0.158224 0.836687
746 1 0.0874714 0.262546 0.846866
608 1 0.15291 0.259384 0.753383
606 1 0.237125 0.258416 0.658223
612 1 0.333166 0.250244 0.745129
616 1 0.502619 0.249877 0.74596
635 1 0.420635 0.33545 0.755105
754 1 0.418058 0.26208 0.835976
615 1 0.5888 0.170838 0.759809
620 1 0.659347 0.25563 0.762044
639 1 0.583272 0.33477 0.739261
785 1 0.669235 0.338979 0.827941
761 1 0.674043 0.165962 0.820407
619 1 0.761611 0.173571 0.751023
643 1 0.754018 0.320333 0.745713
622 1 0.919338 0.252471 0.651857
645 1 0.844048 0.324437 0.656216
624 1 0.848713 0.255053 0.741166
647 1 0.920339 0.339219 0.741948
627 1 0.0822728 0.356173 0.759092
626 1 0.0917846 0.417558 0.670236
651 1 0.0850321 0.495259 0.754405
653 1 0.1695 0.495534 0.668556
793 1 0.975669 0.515791 0.842241
629 1 0.162701 0.339768 0.677011
632 1 0.173931 0.432283 0.759206
630 1 0.24714 0.412584 0.677105
631 1 0.258387 0.317748 0.747713
636 1 0.339288 0.422236 0.746683
773 1 0.174953 0.336943 0.835157
659 1 0.435891 0.508049 0.767844
640 1 0.506619 0.413661 0.742725
663 1 0.59378 0.499507 0.74422
644 1 0.688189 0.4107 0.739207
786 1 0.747133 0.414873 0.841849
667 1 0.757411 0.493238 0.740272
669 1 0.853636 0.512049 0.662526
628 1 0.992967 0.418679 0.746437
648 1 0.844152 0.426142 0.739577
671 1 0.927954 0.494893 0.729684
789 1 0.839907 0.351106 0.811445
677 1 0.140461 0.655033 0.672486
650 1 0.0608027 0.57008 0.686443
794 1 0.0723649 0.582629 0.822676
821 1 0.15435 0.65322 0.830836
656 1 0.159354 0.579124 0.747973
655 1 0.264898 0.500809 0.748984
679 1 0.244523 0.655789 0.743771
660 1 0.324973 0.58807 0.765513
802 1 0.422402 0.590134 0.835524
825 1 0.327412 0.674154 0.837177
664 1 0.510204 0.58456 0.742929
829 1 0.50508 0.657767 0.820145
662 1 0.580462 0.583415 0.665818
687 1 0.593861 0.676494 0.755782
689 1 0.671003 0.661556 0.668478
668 1 0.67746 0.593998 0.753492
691 1 0.776413 0.658211 0.746776
810 1 0.759447 0.590983 0.825114
837 1 0.831835 0.676102 0.839682
652 1 0.97573 0.596925 0.750147
672 1 0.865398 0.583753 0.745077
695 1 0.907003 0.685731 0.758076
813 1 0.837776 0.502756 0.819558
817 1 0.993166 0.6608 0.835728
673 1 -0.0117891 0.669907 0.664675
675 1 0.0601789 0.669864 0.753904
676 1 -0.0145146 0.754762 0.744697
680 1 0.149228 0.737919 0.762411
818 1 0.0683844 0.754666 0.830903
822 1 0.237464 0.738924 0.824441
684 1 0.33376 0.727514 0.739414
703 1 0.242347 0.809723 0.744314
682 1 0.41806 0.752211 0.662671
683 1 0.423972 0.657327 0.749958
849 1 0.322328 0.823818 0.823576
688 1 0.514768 0.760169 0.749491
830 1 0.595115 0.751943 0.832761
692 1 0.682117 0.751329 0.73723
711 1 0.591682 0.833249 0.737524
693 1 0.846455 0.665178 0.665782
690 1 0.767851 0.746619 0.674063
696 1 0.830334 0.750887 0.76576
694 1 0.908272 0.751858 0.644604
838 1 0.919615 0.749409 0.844831
579 1 0.0700687 -0.0173464 0.748159
699 1 0.0727916 0.836865 0.753699
700 1 0.979896 0.909434 0.758553
842 1 0.0723921 0.912777 0.834681
705 1 0.3315 0.849237 0.67592
583 1 0.242807 -0.00363094 0.745642
704 1 0.151823 0.907396 0.765926
846 1 0.248425 0.919639 0.826978
585 1 0.329093 0.00621072 0.67125
587 1 0.416817 0.0106634 0.758962
707 1 0.425152 0.828913 0.73665
708 1 0.343001 0.923951 0.761876
850 1 0.418766 0.916737 0.839531
712 1 0.49233 0.902325 0.761526
716 1 0.665494 0.925766 0.759427
713 1 0.672508 0.846046 0.66861
714 1 0.756588 0.926238 0.674873
595 1 0.751672 0.0175066 0.742427
715 1 0.753581 0.843781 0.741557
858 1 0.739137 0.923358 0.829679
720 1 0.841131 0.914625 0.739733
697 1 -0.0109278 0.842627 0.663602
719 1 0.897911 0.827535 0.739645
599 1 0.906414 -0.0039846 0.748138
841 1 0.993026 0.828895 0.830499
728 1 0.170822 0.0722038 0.936334
724 1 0.984246 0.0873251 0.917204
747 1 0.0834731 0.153908 0.901655
6 1 0.251767 0.0806245 0.995135
726 1 0.265271 0.0786155 0.823322
751 1 0.263521 0.16525 0.911738
732 1 0.332052 0.0912266 0.907475
10 1 0.409922 0.0899073 1.00908
736 1 0.491953 0.0930428 0.917287
755 1 0.418148 0.173223 0.918305
14 1 0.587933 0.0897284 0.987352
759 1 0.588037 0.177251 0.927629
757 1 0.489976 0.182782 0.835748
737 1 0.663882 0.0210841 0.826443
740 1 0.675332 0.0915306 0.910178
739 1 0.748928 0.016722 0.901976
45 1 0.824408 0.172241 0.0146955
744 1 0.842758 0.0977852 0.899394
22 1 0.915073 0.0984933 -0.00354504
25 1 1.0152 0.164722 0.994022
767 1 0.914809 0.172995 0.906685
743 1 0.908689 0.978726 0.910136
752 1 0.166685 0.250916 0.923915
748 1 0.00782559 0.247947 0.923383
771 1 0.0859274 0.340578 0.906036
753 1 0.344496 0.165957 0.828969
777 1 0.339392 0.332458 0.823227
53 1 0.177967 0.324712 -0.00696971
750 1 0.247283 0.252455 0.835326
756 1 0.327535 0.254516 0.914089
775 1 0.250569 0.334015 0.915999
34 1 0.433506 0.25721 1.01322
779 1 0.436082 0.34374 0.920482
758 1 0.586223 0.240145 0.840172
760 1 0.503664 0.243579 0.915341
764 1 0.668351 0.237458 0.902861
42 1 0.733001 0.253513 0.00434343
762 1 0.753033 0.258206 0.825871
765 1 0.850081 0.177649 0.820406
763 1 0.761004 0.183621 0.905328
768 1 0.83912 0.251336 0.908469
766 1 0.930619 0.247042 0.826695
769 1 1.00107 0.333218 0.831413
770 1 0.0730587 0.425498 0.833615
776 1 0.176286 0.421225 0.909851
77 1 0.163439 0.48464 -0.00262992
774 1 0.258435 0.415135 0.822455
797 1 0.157154 0.50052 0.832331
778 1 0.427939 0.414869 0.842744
780 1 0.335968 0.404404 0.908887
784 1 0.51994 0.414998 0.923729
781 1 0.513733 0.326292 0.839906
803 1 0.433489 0.502266 0.901373
782 1 0.594411 0.410759 0.822055
89 1 0.66781 0.510523 0.0205814
783 1 0.593006 0.334849 0.931439
807 1 0.586152 0.501891 0.930059
809 1 0.670665 0.507129 0.831393
787 1 0.75262 0.326533 0.92753
788 1 0.659827 0.425745 0.91946
792 1 0.830319 0.41092 0.903061
811 1 0.748577 0.502074 0.918077
791 1 0.918436 0.330578 0.898616
772 1 0.979276 0.434434 0.906212
70 1 0.907466 0.421004 0.993315
790 1 0.918745 0.422804 0.814253
815 1 0.895886 0.511199 0.926543
74 1 0.0869777 0.565139 1.0024
795 1 0.0743938 0.473969 0.923506
796 1 1.00275 0.567599 0.923211
799 1 0.260768 0.485932 0.914988
801 1 0.336243 0.508704 0.823114
800 1 0.164157 0.578394 0.927223
798 1 0.244298 0.578077 0.843262
804 1 0.339922 0.577115 0.907901
827 1 0.416066 0.67448 0.912177
806 1 0.597341 0.595836 0.827301
805 1 0.519871 0.497894 0.839092
808 1 0.51022 0.578043 0.908408
831 1 0.571476 0.664468 0.916893
833 1 0.68312 0.671994 0.836648
812 1 0.658738 0.587673 0.926059
835 1 0.744745 0.679105 0.917553
816 1 0.823316 0.586081 0.922347
814 1 0.904401 0.597627 0.85499
94 1 0.918391 0.585636 0.00192138
845 1 0.175383 0.832173 0.825099
819 1 0.080411 0.655066 0.916351
843 1 0.0838775 0.831035 0.91515
102 1 0.253108 0.772851 0.00546706
125 1 0.163883 0.846918 0.999155
129 1 0.332615 0.836439 -0.00536725
823 1 0.241437 0.656067 0.911537
824 1 0.169501 0.745477 0.918735
847 1 0.256303 0.825788 0.916393
853 1 0.488985 0.838429 0.85095
826 1 0.423757 0.744366 0.830116
828 1 0.32964 0.749763 0.911662
851 1 0.412426 0.81952 0.923654
832 1 0.494352 0.755974 0.927131
110 1 0.586245 0.731035 -0.0029745
836 1 0.66295 0.751298 0.920791
834 1 0.736668 0.758651 0.828497
114 1 0.744266 0.743332 0.00177418
859 1 0.724944 0.841937 0.915806
839 1 0.909162 0.67479 0.930595
97 1 -0.0023722 0.668927 0.99597
840 1 0.816963 0.768512 0.913039
820 1 0.989421 0.756733 0.924761
863 1 0.91325 0.833137 0.925792
723 1 0.0856657 -0.00465471 0.916548
721 1 0.990855 0.995755 0.828336
122 1 0.0693253 0.917276 0.99917
844 1 1.00256 0.91701 0.915192
5 1 0.160376 0.985277 1.00886
126 1 0.245952 0.911918 -0.00419343
727 1 0.251597 -0.00985824 0.907966
725 1 0.158319 1.0063 0.838761
848 1 0.174426 0.909946 0.904778
9 1 0.329174 -0.0117725 0.00812638
130 1 0.413567 0.915017 -0.0158006
729 1 0.346441 0.0048403 0.829119
852 1 0.318019 0.913151 0.906619
731 1 0.410546 1.0022 0.917861
856 1 0.50698 0.92444 0.919897
857 1 0.661475 0.834251 0.818593
854 1 0.575056 0.905274 0.835347
735 1 0.572364 0.0111883 0.913719
855 1 0.578581 0.826826 0.913864
21 1 0.855682 0.0134651 0.997803
860 1 0.666215 0.94257 0.906719
138 1 0.747325 0.943256 0.995126
864 1 0.81682 0.920486 0.926051
142 1 0.904278 0.922069 1.00237
861 1 0.819782 0.844493 0.839151
1 1 0.973953 1.00529 0.989776
862 1 0.914789 0.898848 0.838612
