ITEM: TIMESTEP
210000
ITEM: NUMBER OF ATOMS
1800
ITEM: BOX BOUNDS pp pp pp
-7.2743511743918408e+00 1.7227435117439376e+02
1.1826529217466231e+00 1.6381734707825530e+02
0.0000000000000000e+00 5.5000000000000000e+00
ITEM: ATOMS id type xs ys zs
930 1 0.0250102 0.021352 0
929 1 0.00846723 0.00341251 0
31 1 0.0411076 0.0389385 0
959 1 0.00279062 0.0288401 0
2 1 0.0458465 0.0144718 0
33 1 0.0623576 0.032577 0
3 1 0.0668109 0.00659029 0
4 1 0.0836307 0.0242159 0
6 1 0.105859 0.0164895 0
37 1 0.121754 0.0333519 0
35 1 0.0995637 0.0417782 0
1082 1 0.498642 0.226896 0
8 1 0.127471 0.00874628 0
39 1 0.143637 0.0261512 0
9 1 0.164854 0.0202215 0
69 1 0.158824 0.0448493 0
880 1 0.148843 0.00166754 0
40 1 0.181658 0.0377162 0
10 1 0.186475 0.0129265 0
41 1 0.202385 0.0301394 0
12 1 0.207804 0.00595576 0
14 1 0.223429 0.0231592 0
15 1 0.244465 0.0153207 0
45 1 0.239417 0.0408245 0
16 1 0.265844 0.00841531 0
46 1 0.260044 0.0325697 0
47 1 0.292512 0.0275207 0
18 1 0.287483 0.00354416 0
49 1 0.313894 0.0348356 0
19 1 0.308376 0.00995873 0
20 1 0.330204 0.0162564 0
51 1 0.335352 0.0411034 0
21 1 0.351402 0.0231929 0
23 1 0.372997 0.0284576 0
892 1 0.364038 0.00352571 0
894 1 0.386624 0.0095701 0
24 1 0.393973 0.0351685 0
25 1 0.408169 0.0162059 0
26 1 0.41592 0.0402319 0
27 1 0.430943 0.0226448 0
29 1 0.452505 0.0279262 0
898 1 0.445441 0.00403173 0
900 1 0.467776 0.00980315 0
30 1 0.473458 0.0348036 0
901 1 0.489286 0.0172616 0
931 1 0.497182 0.0415125 0
960 1 0.0188862 0.0455126 0
989 1 0.0140252 0.0710671 0
61 1 0.035633 0.0626431 0
990 1 0.0292868 0.0882298 0
62 1 0.0520012 0.0806214 0
32 1 0.0575239 0.0571526 0
63 1 0.0735378 0.0747266 0
34 1 0.0785616 0.0487752 0
65 1 0.0943363 0.0668222 0
36 1 0.115666 0.057954 0
66 1 0.110879 0.0838858 0
64 1 0.0895869 0.0916711 0
67 1 0.131936 0.076129 0
38 1 0.137542 0.0514032 0
68 1 0.153914 0.0688601 0
70 1 0.171948 0.08584 0
71 1 0.175419 0.0612778 0
72 1 0.193133 0.0783813 0
42 1 0.197654 0.054606 0
43 1 0.218525 0.0486548 0
73 1 0.214739 0.0729422 0
44 1 0.237182 0.0655748 0
105 1 0.231582 0.0896333 0
77 1 0.278071 0.0454532 0
74 1 0.262772 0.0849439 0
75 1 0.259187 0.0589823 0
76 1 0.281966 0.0691521 0
48 1 0.298688 0.0524055 0
79 1 0.303054 0.0759605 0
50 1 0.320152 0.0591725 0
81 1 0.324793 0.0833371 0
22 1 0.35704 0.0472892 0
52 1 0.340927 0.0665572 0
83 1 0.3631 0.0708411 0
82 1 0.346275 0.0895312 0
53 1 0.378341 0.0526436 0
54 1 0.384387 0.0759899 0
55 1 0.400251 0.0588763 0
56 1 0.406392 0.0835472 0
28 1 0.438116 0.0471133 0
57 1 0.421794 0.0655434 0
58 1 0.443254 0.0713566 0
87 1 0.427554 0.0899597 0
59 1 0.458802 0.0531985 0
89 1 0.464636 0.0780873 0
60 1 0.48042 0.0590843 0
961 1 0.486446 0.0834562 0
1020 1 0.0243451 0.112642 0
1019 1 0.00717255 0.0954764 0
1049 1 0.0024959 0.120461 0
121 1 0.0408384 0.130053 0
91 1 0.0459453 0.105194 0
92 1 0.0621678 0.124035 0
93 1 0.0677739 0.098499 0
94 1 0.0837193 0.116459 0
95 1 0.105602 0.108794 0
96 1 0.123151 0.125851 0
125 1 0.100829 0.133224 0
97 1 0.128262 0.101031 0
98 1 0.14444 0.118145 0
99 1 0.149016 0.0921421 0
129 1 0.160153 0.135824 0
100 1 0.165566 0.109493 0
130 1 0.181767 0.126484 0
101 1 0.187497 0.10345 0
102 1 0.203158 0.121332 0
103 1 0.210053 0.0973898 0
104 1 0.226252 0.115219 0
106 1 0.248855 0.104845 0
137 1 0.254534 0.129082 0
107 1 0.270538 0.111097 0
78 1 0.28563 0.0931778 0
108 1 0.27667 0.135872 0
109 1 0.291905 0.117348 0
80 1 0.307974 0.100039 0
110 1 0.312607 0.123891 0
111 1 0.329763 0.106999 0
141 1 0.335057 0.131125 0
113 1 0.352091 0.113543 0
84 1 0.368566 0.0944849 0
112 1 0.373577 0.119088 0
85 1 0.390013 0.100909 0
115 1 0.39602 0.124324 0
86 1 0.412189 0.107755 0
116 1 0.417339 0.132506 0
88 1 0.448826 0.0961523 0
117 1 0.433653 0.11415 0
119 1 0.455374 0.12067 0
90 1 0.47071 0.102853 0
120 1 0.476653 0.127567 0
991 1 0.492008 0.109063 0
992 1 0.499185 0.13301 0
1050 1 0.0190082 0.137562 0
1079 1 0.0143883 0.16202 0
151 1 0.0359616 0.155211 0
1080 1 0.03039 0.179716 0
152 1 0.0529033 0.17188 0
122 1 0.0576991 0.148521 0
153 1 0.0745437 0.164041 0
123 1 0.0795512 0.140463 0
124 1 0.0965827 0.158101 0
126 1 0.117883 0.150024 0
155 1 0.113263 0.17485 0
157 1 0.134352 0.167494 0
127 1 0.139429 0.143253 0
128 1 0.156473 0.161076 0
159 1 0.177158 0.151098 0
131 1 0.199635 0.155839 0
132 1 0.184009 0.174155 0
135 1 0.237616 0.145995 0
133 1 0.217048 0.139975 0
134 1 0.221535 0.163877 0
165 1 0.243538 0.170864 0
136 1 0.259646 0.153201 0
138 1 0.281994 0.159161 0
167 1 0.265422 0.177132 0
139 1 0.298656 0.142379 0
169 1 0.303512 0.166908 0
140 1 0.320026 0.148621 0
171 1 0.324792 0.173347 0
143 1 0.356642 0.138166 0
142 1 0.341428 0.156262 0
173 1 0.362909 0.162396 0
172 1 0.346582 0.180752 0
114 1 0.379828 0.144323 0
144 1 0.384734 0.168669 0
145 1 0.402398 0.151269 0
146 1 0.406651 0.175359 0
118 1 0.439059 0.139111 0
147 1 0.424584 0.157273 0
148 1 0.445764 0.164037 0
1051 1 0.488663 0.176514 0
149 1 0.461611 0.146311 0
150 1 0.467184 0.169696 0
1021 1 0.483049 0.151934 0
1107 1 0.00188394 0.210006 0
1109 1 0.0252613 0.204921 0
1078 1 0.00810973 0.185548 0
181 1 0.0470629 0.196565 0
183 1 0.0688 0.190233 0
182 1 0.0541791 0.220152 0
154 1 0.0908294 0.181542 0
185 1 0.0869046 0.206364 0
186 1 0.114488 0.219965 0
156 1 0.107197 0.197934 0
158 1 0.129862 0.201108 0
160 1 0.148215 0.185139 0
189 1 0.152168 0.209293 0
187 1 0.135666 0.225222 0
163 1 0.20599 0.181001 0
161 1 0.168485 0.192597 0
191 1 0.17463 0.216987 0
162 1 0.190383 0.199059 0
192 1 0.195727 0.223398 0
193 1 0.211824 0.205988 0
164 1 0.227418 0.187608 0
195 1 0.233639 0.211872 0
166 1 0.250057 0.195766 0
168 1 0.287326 0.183196 0
196 1 0.254499 0.219931 0
197 1 0.27205 0.200708 0
198 1 0.276878 0.225662 0
199 1 0.293108 0.208377 0
170 1 0.30924 0.191312 0
200 1 0.31397 0.215699 0
201 1 0.330426 0.198631 0
202 1 0.335733 0.22291 0
203 1 0.352085 0.205147 0
174 1 0.36862 0.186882 0
204 1 0.374255 0.211768 0
175 1 0.390492 0.193706 0
205 1 0.395693 0.217712 0
176 1 0.41211 0.199917 0
177 1 0.428105 0.182442 0
179 1 0.450231 0.188493 0
207 1 0.417634 0.224332 0
178 1 0.434655 0.206998 0
209 1 0.456549 0.213101 0
180 1 0.471897 0.194094 0
1081 1 0.477758 0.219382 0
1052 1 0.493863 0.201185 0
211 1 0.0377986 0.23842 0
1140 1 0.0206176 0.254013 0
1110 1 0.0162477 0.228422 0
1139 1 0.0059892 0.272523 0
184 1 0.0756729 0.227526 0
212 1 0.0433916 0.262787 0
213 1 0.0597254 0.245831 0
243 1 0.0641628 0.269437 0
214 1 0.0810316 0.253018 0
215 1 0.0974841 0.235385 0
216 1 0.103136 0.259463 0
217 1 0.120895 0.24332 0
218 1 0.125311 0.267005 0
188 1 0.141022 0.250068 0
190 1 0.156948 0.233823 0
220 1 0.164704 0.258152 0
221 1 0.179575 0.24087 0
222 1 0.185694 0.265742 0
223 1 0.200444 0.247207 0
253 1 0.206413 0.272307 0
194 1 0.217098 0.229968 0
224 1 0.22285 0.25428 0
225 1 0.238919 0.236753 0
226 1 0.24425 0.261894 0
227 1 0.260662 0.244418 0
228 1 0.28178 0.250123 0
257 1 0.266725 0.268903 0
229 1 0.298555 0.233675 0
230 1 0.305177 0.257304 0
231 1 0.321064 0.240336 0
261 1 0.326297 0.264566 0
233 1 0.358137 0.229171 0
232 1 0.34209 0.247125 0
234 1 0.364018 0.253329 0
263 1 0.348631 0.270598 0
235 1 0.379438 0.235626 0
265 1 0.385305 0.261015 0
206 1 0.400338 0.242473 0
236 1 0.407354 0.267001 0
208 1 0.439306 0.230926 0
237 1 0.42251 0.249251 0
239 1 0.444179 0.255434 0
210 1 0.460765 0.237645 0
240 1 0.466907 0.261121 0
1111 1 0.482977 0.244196 0
1112 1 0.488682 0.268876 0
1169 1 0.0111227 0.297103 0
241 1 0.0275152 0.280666 0
271 1 0.0327548 0.304383 0
242 1 0.0491365 0.287399 0
244 1 0.0705149 0.294245 0
273 1 0.0546539 0.311184 0
245 1 0.0861038 0.276799 0
246 1 0.0925923 0.301584 0
247 1 0.108246 0.283564 0
248 1 0.113934 0.308078 0
249 1 0.130316 0.29238 0
219 1 0.147068 0.274206 0
250 1 0.152252 0.299298 0
279 1 0.136589 0.316542 0
251 1 0.168478 0.282373 0
281 1 0.174779 0.306101 0
252 1 0.190983 0.290043 0
283 1 0.196448 0.314125 0
254 1 0.212471 0.295683 0
255 1 0.227978 0.279062 0
285 1 0.233497 0.303317 0
256 1 0.249867 0.286066 0
259 1 0.288858 0.273765 0
287 1 0.25604 0.30957 0
258 1 0.272277 0.292829 0
288 1 0.277938 0.316596 0
289 1 0.294631 0.298475 0
260 1 0.310309 0.281603 0
291 1 0.316307 0.305777 0
262 1 0.333168 0.288289 0
293 1 0.353703 0.296413 0
292 1 0.338321 0.313484 0
264 1 0.369206 0.278776 0
295 1 0.375006 0.303803 0
266 1 0.391477 0.285093 0
297 1 0.396496 0.30916 0
267 1 0.412977 0.290866 0
238 1 0.4289 0.273785 0
268 1 0.434906 0.297617 0
298 1 0.419292 0.315282 0
269 1 0.451227 0.278718 0
270 1 0.455954 0.302802 0
1141 1 0.472914 0.286543 0
300 1 0.478376 0.310286 0
1171 1 0.494459 0.293783 0
1200 1 0.0377366 0.328996 0
1229 1 0.0218113 0.346448 0
1170 1 0.0160331 0.321785 0
301 1 0.0436773 0.352877 0
275 1 0.0763407 0.318936 0
272 1 0.0592275 0.335836 0
274 1 0.081386 0.342842 0
303 1 0.0653515 0.361272 0
276 1 0.0977312 0.325528 0
305 1 0.103267 0.350682 0
277 1 0.119794 0.333646 0
307 1 0.125114 0.358808 0
278 1 0.141308 0.34109 0
280 1 0.158262 0.322784 0
311 1 0.163896 0.348632 0
282 1 0.180176 0.331244 0
312 1 0.185751 0.355331 0
313 1 0.201857 0.33807 0
314 1 0.207087 0.363428 0
284 1 0.217713 0.320466 0
315 1 0.222735 0.345428 0
286 1 0.239716 0.326746 0
316 1 0.245182 0.3516 0
317 1 0.260747 0.334183 0
319 1 0.283442 0.339973 0
318 1 0.267524 0.359016 0
290 1 0.30046 0.323352 0
320 1 0.306465 0.348535 0
321 1 0.321487 0.331461 0
322 1 0.32708 0.35618 0
294 1 0.359479 0.321295 0
323 1 0.343149 0.339215 0
325 1 0.364818 0.345364 0
324 1 0.34875 0.362723 0
296 1 0.381507 0.328146 0
326 1 0.386484 0.351779 0
327 1 0.403107 0.333808 0
328 1 0.408786 0.357429 0
299 1 0.440276 0.322356 0
329 1 0.424197 0.339647 0
359 1 0.445299 0.346514 0
330 1 0.46194 0.327582 0
360 1 0.46709 0.352056 0
1201 1 0.484424 0.333947 0
1231 1 0.490041 0.359414 0
1259 1 0.0056037 0.364218 0
1230 1 0.0277091 0.370142 0
331 1 0.0328731 0.396055 0
1260 1 0.0110251 0.388925 0
302 1 0.0482633 0.37881 0
333 1 0.0711891 0.385256 0
332 1 0.0541065 0.402722 0
304 1 0.0874039 0.367744 0
335 1 0.0918635 0.394138 0
306 1 0.108257 0.376083 0
337 1 0.113448 0.400641 0
308 1 0.130623 0.382992 0
309 1 0.147323 0.36432 0
339 1 0.152885 0.390142 0
338 1 0.135713 0.407867 0
310 1 0.168935 0.372282 0
341 1 0.174295 0.396717 0
343 1 0.19067 0.380672 0
342 1 0.195542 0.404604 0
344 1 0.212294 0.387214 0
345 1 0.228338 0.369351 0
346 1 0.234667 0.393655 0
347 1 0.25056 0.375535 0
377 1 0.256341 0.400753 0
348 1 0.271571 0.38188 0
349 1 0.289878 0.365644 0
378 1 0.277543 0.408003 0
350 1 0.292982 0.390146 0
351 1 0.311085 0.373522 0
381 1 0.31475 0.397241 0
353 1 0.332612 0.379891 0
354 1 0.353621 0.388271 0
352 1 0.336738 0.404635 0
355 1 0.370306 0.369896 0
356 1 0.375134 0.393475 0
357 1 0.391764 0.37602 0
386 1 0.397935 0.400013 0
387 1 0.414089 0.382432 0
358 1 0.429329 0.364744 0
389 1 0.435312 0.388411 0
388 1 0.419141 0.406394 0
1232 1 0.451486 0.370285 0
1261 1 0.457404 0.394511 0
1262 1 0.473665 0.376284 0
1293 1 0.479098 0.401993 0
1263 1 0.496145 0.384078 0
361 1 0.0381388 0.420143 0
391 1 0.022535 0.437217 0
1290 1 0.0159834 0.413373 0
362 1 0.0447699 0.444825 0
334 1 0.075878 0.410174 0
363 1 0.0601219 0.427163 0
365 1 0.0816663 0.434637 0
364 1 0.0663406 0.45205 0
336 1 0.0986864 0.418443 0
366 1 0.102547 0.442249 0
367 1 0.119951 0.425081 0
368 1 0.124358 0.449116 0
369 1 0.141316 0.431288 0
340 1 0.157357 0.414347 0
370 1 0.162509 0.43936 0
371 1 0.178633 0.421575 0
401 1 0.185143 0.446555 0
372 1 0.200667 0.429295 0
403 1 0.207485 0.454428 0
373 1 0.216935 0.411909 0
374 1 0.223555 0.436217 0
375 1 0.239657 0.417996 0
405 1 0.245091 0.442822 0
376 1 0.261243 0.425955 0
409 1 0.283308 0.432235 0
407 1 0.267575 0.450207 0
379 1 0.299039 0.414653 0
380 1 0.304936 0.439213 0
382 1 0.32097 0.422343 0
413 1 0.326332 0.447124 0
385 1 0.358836 0.411718 0
383 1 0.342745 0.428953 0
414 1 0.364576 0.435595 0
412 1 0.348421 0.452701 0
384 1 0.381323 0.418134 0
415 1 0.387376 0.44224 0
417 1 0.403824 0.425441 0
416 1 0.410347 0.44874 0
419 1 0.441438 0.411899 0
418 1 0.425687 0.430161 0
390 1 0.447532 0.436022 0
1292 1 0.485452 0.425873 0
1291 1 0.462712 0.41863 0
1321 1 0.469446 0.443167 0
1322 1 0.490944 0.451144 0
1320 1 0.00653208 0.453716 0
421 1 0.0114118 0.478531 0
392 1 0.0279047 0.461473 0
422 1 0.0323409 0.486405 0
393 1 0.0498154 0.469616 0
394 1 0.0714656 0.477004 0
423 1 0.0545415 0.493006 0
395 1 0.0872905 0.460379 0
396 1 0.0921039 0.484305 0
397 1 0.10887 0.466183 0
427 1 0.114443 0.490693 0
399 1 0.146544 0.455951 0
398 1 0.129713 0.473561 0
429 1 0.152628 0.479776 0
428 1 0.137205 0.497894 0
400 1 0.169657 0.464155 0
431 1 0.174392 0.488242 0
402 1 0.190523 0.470638 0
432 1 0.195768 0.495019 0
433 1 0.21321 0.478045 0
404 1 0.229561 0.461516 0
435 1 0.234921 0.486532 0
406 1 0.250878 0.468281 0
436 1 0.257333 0.493529 0
408 1 0.272511 0.475395 0
410 1 0.289047 0.457577 0
439 1 0.279606 0.499718 0
441 1 0.295099 0.482824 0
411 1 0.310599 0.465057 0
440 1 0.317162 0.488428 0
442 1 0.333268 0.47108 0
471 1 0.338211 0.495234 0
473 1 0.35433 0.477375 0
443 1 0.370341 0.459993 0
444 1 0.376668 0.484016 0
445 1 0.392931 0.465835 0
475 1 0.39932 0.489916 0
446 1 0.415833 0.472503 0
447 1 0.431662 0.454967 0
477 1 0.420663 0.497883 0
420 1 0.453014 0.460713 0
448 1 0.437894 0.480484 0
450 1 0.474954 0.468924 0
1353 1 0.497312 0.475782 0
449 1 0.459857 0.486644 0
1351 1 0.481163 0.492672 0
453 1 0.0370894 0.510855 0
452 1 0.020516 0.528186 0
451 1 0.0159423 0.503746 0
481 1 0.0051686 0.54526 0
454 1 0.0426146 0.535086 0
424 1 0.0587383 0.517795 0
455 1 0.081535 0.526419 0
485 1 0.0646203 0.542442 0
425 1 0.0756795 0.501505 0
426 1 0.0983667 0.509013 0
456 1 0.103121 0.53337 0
457 1 0.119981 0.515073 0
458 1 0.12499 0.539688 0
459 1 0.141943 0.523016 0
430 1 0.157553 0.505744 0
460 1 0.163544 0.530373 0
461 1 0.178963 0.513121 0
462 1 0.185744 0.537757 0
463 1 0.200978 0.52028 0
493 1 0.207003 0.545327 0
434 1 0.218644 0.503606 0
464 1 0.223396 0.52839 0
465 1 0.240787 0.511016 0
466 1 0.245212 0.534729 0
437 1 0.262952 0.518486 0
467 1 0.284399 0.524119 0
497 1 0.26692 0.541974 0
438 1 0.300369 0.507187 0
468 1 0.305212 0.532194 0
469 1 0.322214 0.51318 0
499 1 0.328256 0.536686 0
470 1 0.344451 0.520308 0
503 1 0.366388 0.525972 0
472 1 0.360445 0.502678 0
501 1 0.34977 0.544301 0
474 1 0.382839 0.50817 0
505 1 0.388069 0.533124 0
476 1 0.404151 0.515883 0
506 1 0.409184 0.540048 0
507 1 0.425881 0.521931 0
478 1 0.442388 0.504183 0
480 1 0.448522 0.528678 0
479 1 0.464621 0.510663 0
510 1 0.470737 0.534855 0
1381 1 0.48707 0.516506 0
1411 1 0.491951 0.541963 0
482 1 0.0321415 0.577351 0
483 1 0.0270609 0.552138 0
1410 1 0.0107241 0.570095 0
513 1 0.0482456 0.559926 0
484 1 0.0706143 0.567859 0
514 1 0.0539868 0.58382 0
486 1 0.0859752 0.550682 0
515 1 0.0920169 0.575291 0
487 1 0.108117 0.557438 0
517 1 0.114742 0.5822 0
489 1 0.147111 0.54689 0
488 1 0.130222 0.563919 0
490 1 0.152562 0.570507 0
519 1 0.136115 0.588208 0
491 1 0.169007 0.554391 0
521 1 0.173723 0.57935 0
492 1 0.190294 0.561814 0
523 1 0.19609 0.586498 0
494 1 0.212321 0.569997 0
495 1 0.228273 0.55368 0
525 1 0.234272 0.578419 0
496 1 0.250462 0.559233 0
526 1 0.256432 0.585292 0
527 1 0.272099 0.566471 0
498 1 0.288873 0.549745 0
528 1 0.277942 0.591504 0
529 1 0.294437 0.573558 0
500 1 0.310765 0.55614 0
530 1 0.317339 0.580141 0
531 1 0.332868 0.56258 0
533 1 0.355099 0.569115 0
502 1 0.371641 0.550265 0
532 1 0.338717 0.586838 0
534 1 0.377002 0.575597 0
504 1 0.393644 0.558562 0
535 1 0.399999 0.582539 0
508 1 0.416398 0.564369 0
509 1 0.431586 0.546608 0
539 1 0.438471 0.57044 0
540 1 0.453957 0.553511 0
537 1 0.421861 0.588998 0
1442 1 0.483433 0.583925 0
569 1 0.46083 0.578007 0
1441 1 0.475895 0.559115 0
1412 1 0.498244 0.566475 0
511 1 0.0156937 0.594112 0
512 1 0.0381651 0.601041 0
541 1 0.0211267 0.618056 0
1470 1 0.00551779 0.635381 0
545 1 0.0761701 0.591112 0
542 1 0.0427163 0.62483 0
543 1 0.0597733 0.608204 0
544 1 0.0655336 0.63205 0
546 1 0.0817522 0.615903 0
516 1 0.0983503 0.599223 0
547 1 0.102286 0.623519 0
518 1 0.119003 0.606573 0
577 1 0.123825 0.630979 0
520 1 0.157034 0.595706 0
548 1 0.14002 0.613573 0
549 1 0.161835 0.619745 0
522 1 0.179356 0.602757 0
551 1 0.184141 0.626729 0
553 1 0.202034 0.610755 0
552 1 0.2062 0.636025 0
524 1 0.218322 0.594832 0
554 1 0.223442 0.618862 0
555 1 0.24001 0.602135 0
556 1 0.245922 0.627082 0
557 1 0.261548 0.609534 0
558 1 0.283625 0.616305 0
587 1 0.268147 0.634118 0
559 1 0.300618 0.597621 0
561 1 0.322437 0.604484 0
560 1 0.30562 0.621461 0
591 1 0.327611 0.628434 0
562 1 0.344997 0.612146 0
563 1 0.361022 0.594626 0
565 1 0.367146 0.618265 0
564 1 0.349496 0.63645 0
536 1 0.383405 0.59892 0
566 1 0.388574 0.623706 0
567 1 0.404733 0.606953 0
597 1 0.411175 0.631586 0
568 1 0.427448 0.612836 0
538 1 0.442719 0.595879 0
600 1 0.448731 0.62033 0
570 1 0.465125 0.602481 0
1501 1 0.470776 0.626786 0
1471 1 0.487371 0.608812 0
1472 1 0.493091 0.632528 0
572 1 0.032198 0.665295 0
571 1 0.0267052 0.642258 0
1500 1 0.00960911 0.660415 0
573 1 0.0483884 0.648257 0
603 1 0.0533443 0.671294 0
574 1 0.0704664 0.656783 0
575 1 0.0864863 0.640179 0
605 1 0.092243 0.665266 0
576 1 0.107788 0.648262 0
607 1 0.113564 0.676046 0
578 1 0.128778 0.656276 0
579 1 0.145187 0.638663 0
609 1 0.150054 0.664434 0
550 1 0.167315 0.643164 0
580 1 0.172138 0.666704 0
581 1 0.189855 0.651264 0
611 1 0.192889 0.676039 0
582 1 0.211034 0.660563 0
583 1 0.228354 0.643659 0
584 1 0.234613 0.669689 0
585 1 0.249903 0.651941 0
586 1 0.273111 0.658442 0
589 1 0.289932 0.640879 0
615 1 0.256428 0.676727 0
617 1 0.279163 0.682769 0
588 1 0.2955 0.664851 0
590 1 0.311654 0.646023 0
621 1 0.317786 0.670491 0
593 1 0.333924 0.653777 0
594 1 0.356377 0.660033 0
592 1 0.339688 0.678028 0
595 1 0.372819 0.642846 0
625 1 0.378741 0.667159 0
596 1 0.394614 0.648008 0
627 1 0.401115 0.673497 0
598 1 0.416561 0.655699 0
599 1 0.432687 0.637327 0
628 1 0.439034 0.661432 0
629 1 0.455424 0.64457 0
657 1 0.42245 0.679592 0
630 1 0.461348 0.668622 0
1502 1 0.477876 0.650555 0
1533 1 0.483076 0.675822 0
1503 1 0.499185 0.657795 0
631 1 0.0140649 0.709353 0
602 1 0.0347709 0.701143 0
601 1 0.0177769 0.683741 0
632 1 0.0313742 0.726608 0
604 1 0.0740292 0.680914 0
633 1 0.0559095 0.695432 0
635 1 0.0750244 0.707012 0
634 1 0.0531655 0.719358 0
606 1 0.0946016 0.692037 0
636 1 0.0950143 0.716872 0
637 1 0.116184 0.700585 0
608 1 0.135428 0.68433 0
638 1 0.135393 0.715001 0
639 1 0.153727 0.702417 0
610 1 0.173779 0.690923 0
641 1 0.174061 0.715338 0
612 1 0.19428 0.700872 0
613 1 0.213824 0.685845 0
643 1 0.215594 0.710711 0
614 1 0.235791 0.694865 0
645 1 0.235354 0.722414 0
616 1 0.258094 0.700954 0
647 1 0.271763 0.72242 0
618 1 0.287215 0.705629 0
619 1 0.303113 0.688521 0
620 1 0.308247 0.71307 0
622 1 0.324973 0.696426 0
651 1 0.32981 0.720179 0
653 1 0.347851 0.702528 0
624 1 0.369038 0.708326 0
623 1 0.362497 0.68398 0
654 1 0.352791 0.727048 0
655 1 0.391947 0.716129 0
626 1 0.385279 0.691972 0
656 1 0.407196 0.698041 0
686 1 0.4135 0.722951 0
658 1 0.429528 0.703751 0
659 1 0.444751 0.685584 0
660 1 0.45137 0.711033 0
1531 1 0.466861 0.692643 0
1561 1 0.473649 0.716749 0
1532 1 0.488919 0.699673 0
1563 1 0.495683 0.72412 0
663 1 0.0256417 0.750073 0
661 1 0.0092032 0.732964 0
1590 1 0.00359072 0.756698 0
662 1 0.0423995 0.767467 0
664 1 0.0470903 0.743765 0
695 1 0.0649659 0.758248 0
665 1 0.0716413 0.73266 0
667 1 0.115088 0.727253 0
666 1 0.0945215 0.742169 0
668 1 0.115861 0.752153 0
697 1 0.098452 0.767274 0
640 1 0.155302 0.727961 0
669 1 0.135087 0.73967 0
670 1 0.15446 0.752926 0
699 1 0.134954 0.765772 0
642 1 0.194899 0.726368 0
671 1 0.174709 0.740449 0
672 1 0.174421 0.76502 0
673 1 0.195113 0.750944 0
644 1 0.215177 0.735711 0
674 1 0.214714 0.761575 0
675 1 0.234284 0.749005 0
646 1 0.253906 0.736571 0
677 1 0.255285 0.761649 0
648 1 0.274806 0.747064 0
678 1 0.277947 0.771074 0
649 1 0.292533 0.731587 0
679 1 0.296893 0.756383 0
650 1 0.314212 0.738351 0
681 1 0.320161 0.762472 0
652 1 0.3371 0.74478 0
682 1 0.343513 0.769947 0
683 1 0.359062 0.751478 0
685 1 0.374543 0.733904 0
684 1 0.381556 0.758065 0
715 1 0.397314 0.740902 0
714 1 0.40374 0.76461 0
687 1 0.435801 0.729747 0
717 1 0.41968 0.74714 0
688 1 0.442029 0.753442 0
716 1 0.425218 0.771385 0
689 1 0.457222 0.735399 0
719 1 0.463781 0.760784 0
690 1 0.478952 0.741167 0
1591 1 0.485833 0.76647 0
691 1 0.0196367 0.774153 0
693 1 0.036366 0.791357 0
721 1 0.0149765 0.798578 0
692 1 0.0313261 0.815588 0
723 1 0.0529845 0.809274 0
694 1 0.0575809 0.784615 0
696 1 0.0789902 0.777169 0
725 1 0.0746716 0.801491 0
727 1 0.0968625 0.792992 0
728 1 0.115779 0.808444 0
698 1 0.117225 0.77976 0
726 1 0.0917412 0.819249 0
700 1 0.136547 0.791947 0
701 1 0.155499 0.778539 0
731 1 0.155698 0.805166 0
703 1 0.194987 0.775969 0
702 1 0.176488 0.78951 0
733 1 0.19563 0.80133 0
732 1 0.176771 0.815078 0
705 1 0.234499 0.773096 0
704 1 0.214797 0.788025 0
735 1 0.216507 0.812947 0
706 1 0.234814 0.799554 0
676 1 0.253346 0.785363 0
737 1 0.254999 0.809772 0
707 1 0.273475 0.795061 0
709 1 0.305463 0.782218 0
708 1 0.29359 0.802352 0
710 1 0.314496 0.807229 0
680 1 0.327705 0.787309 0
713 1 0.365494 0.775601 0
711 1 0.350055 0.793816 0
741 1 0.335939 0.812606 0
712 1 0.372783 0.800406 0
743 1 0.387321 0.782632 0
745 1 0.394352 0.807851 0
746 1 0.410029 0.790188 0
775 1 0.416214 0.815368 0
718 1 0.446992 0.777877 0
747 1 0.430976 0.796782 0
749 1 0.452995 0.802667 0
720 1 0.468643 0.784267 0
1621 1 0.475325 0.80831 0
1592 1 0.491361 0.790741 0
1622 1 0.497807 0.815202 0
1680 1 0.023865 0.839974 0
752 1 0.0400299 0.857508 0
1650 1 0.00850469 0.822185 0
1709 1 0.00285907 0.845954 0
751 1 0.0470494 0.833556 0
753 1 0.0631549 0.850418 0
722 1 0.0692967 0.826665 0
724 1 0.0856989 0.842702 0
757 1 0.108422 0.83448 0
756 1 0.120596 0.854266 0
755 1 0.100131 0.860365 0
729 1 0.135642 0.817979 0
759 1 0.140606 0.843497 0
730 1 0.157767 0.828837 0
760 1 0.161393 0.856498 0
761 1 0.178189 0.840173 0
763 1 0.197461 0.825861 0
762 1 0.198388 0.850453 0
736 1 0.236676 0.824631 0
734 1 0.218632 0.839336 0
765 1 0.24196 0.853826 0
738 1 0.276722 0.819382 0
767 1 0.257266 0.83416 0
766 1 0.264753 0.856153 0
768 1 0.283349 0.843102 0
739 1 0.299166 0.825802 0
769 1 0.304192 0.849852 0
740 1 0.321125 0.831697 0
770 1 0.327244 0.856491 0
742 1 0.357978 0.819091 0
771 1 0.342338 0.837792 0
773 1 0.363468 0.844553 0
801 1 0.348778 0.862853 0
744 1 0.37891 0.826384 0
803 1 0.38436 0.851845 0
774 1 0.400829 0.834061 0
776 1 0.407044 0.857654 0
748 1 0.438014 0.821827 0
777 1 0.423503 0.839528 0
779 1 0.44507 0.845568 0
778 1 0.429379 0.863636 0
750 1 0.460532 0.827509 0
1651 1 0.482445 0.833435 0
780 1 0.466942 0.85175 0
1652 1 0.48924 0.858016 0
781 1 0.018774 0.864425 0
782 1 0.0354131 0.881074 0
811 1 0.0139037 0.88898 0
812 1 0.0297038 0.905801 0
813 1 0.0514178 0.898371 0
783 1 0.0566144 0.873724 0
784 1 0.0729763 0.891582 0
754 1 0.0789113 0.86739 0
785 1 0.0950626 0.88444 0
787 1 0.116412 0.877768 0
786 1 0.110575 0.901673 0
788 1 0.132772 0.893643 0
758 1 0.139008 0.869134 0
789 1 0.154302 0.886837 0
790 1 0.170255 0.903374 0
791 1 0.175293 0.878384 0
823 1 0.191535 0.897151 0
792 1 0.198349 0.874387 0
764 1 0.219721 0.864476 0
793 1 0.213713 0.890675 0
795 1 0.234303 0.883856 0
794 1 0.230028 0.908056 0
825 1 0.251901 0.900828 0
796 1 0.255068 0.87703 0
827 1 0.272933 0.892437 0
797 1 0.287441 0.868087 0
798 1 0.295966 0.891755 0
799 1 0.310676 0.873488 0
829 1 0.317249 0.898109 0
800 1 0.332671 0.880387 0
802 1 0.354457 0.887502 0
772 1 0.370366 0.870334 0
831 1 0.339017 0.90548 0
804 1 0.376577 0.894901 0
805 1 0.391535 0.875873 0
806 1 0.398762 0.899457 0
807 1 0.414585 0.882118 0
809 1 0.451207 0.86988 0
808 1 0.436851 0.888116 0
837 1 0.421179 0.906561 0
810 1 0.458499 0.895046 0
1681 1 0.473675 0.875874 0
1711 1 0.480472 0.900995 0
1682 1 0.495876 0.882417 0
841 1 0.0245698 0.929353 0
1740 1 0.00775611 0.912537 0
1769 1 0.00293851 0.936045 0
1770 1 0.0192982 0.95425 0
842 1 0.0414683 0.947607 0
843 1 0.0464792 0.923204 0
844 1 0.0629004 0.94077 0
814 1 0.0678161 0.916072 0
845 1 0.0839211 0.933631 0
815 1 0.0900532 0.908967 0
816 1 0.105433 0.926453 0
847 1 0.122026 0.94462 0
846 1 0.10037 0.95029 0
819 1 0.148207 0.912208 0
817 1 0.126521 0.919626 0
818 1 0.143901 0.936715 0
820 1 0.165381 0.928821 0
849 1 0.160202 0.953486 0
851 1 0.18109 0.946363 0
821 1 0.187266 0.922375 0
824 1 0.207663 0.914614 0
822 1 0.203055 0.938812 0
853 1 0.223819 0.931931 0
855 1 0.247013 0.924908 0
854 1 0.240509 0.948729 0
826 1 0.268478 0.917416 0
856 1 0.263819 0.942198 0
857 1 0.285095 0.935889 0
828 1 0.300192 0.916167 0
859 1 0.306094 0.941419 0
830 1 0.321642 0.922669 0
860 1 0.32855 0.946758 0
833 1 0.361708 0.913151 0
832 1 0.344287 0.92996 0
863 1 0.367834 0.935628 0
861 1 0.350959 0.953865 0
834 1 0.384105 0.919354 0
865 1 0.389084 0.943607 0
835 1 0.404967 0.92533 0
836 1 0.411635 0.949322 0
839 1 0.44336 0.913452 0
838 1 0.427886 0.930674 0
869 1 0.448912 0.937794 0
867 1 0.433229 0.955164 0
1712 1 0.486379 0.925993 0
1741 1 0.471872 0.944986 0
840 1 0.464763 0.919841 0
1742 1 0.493438 0.951454 0
871 1 0.0347509 0.972011 0
1800 1 0.0132963 0.979189 0
1 1 0.030177 0.996364 0
872 1 0.0513199 0.98941 0
873 1 0.0569281 0.965373 0
874 1 0.0727768 0.982827 0
875 1 0.0784918 0.959001 0
876 1 0.0949001 0.975311 0
877 1 0.11647 0.969094 0
7 1 0.110442 0.992834 0
878 1 0.132907 0.985294 0
848 1 0.138639 0.961804 0
879 1 0.155162 0.978182 0
881 1 0.170343 0.995909 0
850 1 0.177266 0.971123 0
11 1 0.191801 0.988371 0
852 1 0.197971 0.964172 0
883 1 0.219429 0.956823 0
882 1 0.213416 0.981337 0
884 1 0.235026 0.972886 0
13 1 0.229436 0.997879 0
886 1 0.250389 0.991365 0
887 1 0.280534 0.961508 0
885 1 0.256706 0.967021 0
17 1 0.27291 0.984666 0
888 1 0.295954 0.981254 0
858 1 0.313325 0.965541 0
889 1 0.321034 0.990459 0
890 1 0.343356 0.996302 0
891 1 0.33614 0.9715 0
862 1 0.358352 0.979564 0
864 1 0.372515 0.959837 0
893 1 0.379546 0.985906 0
895 1 0.39489 0.967089 0
896 1 0.401872 0.991902 0
870 1 0.456091 0.961752 0
866 1 0.417461 0.972764 0
897 1 0.424283 0.997349 0
868 1 0.439594 0.97794 0
899 1 0.46191 0.98587 0
1771 1 0.478239 0.968768 0
1772 1 0.484271 0.992326 0
1773 1 0.500395 0.975491 0
5 1 0.0884095 0.999784 0
902 1 0.512215 0.0244077 0
904 1 0.534533 0.0301485 0
905 1 0.527954 0.00643346 0
906 1 0.549476 0.0120753 0
935 1 0.555957 0.0366882 0
908 1 0.571933 0.0188374 0
937 1 0.577868 0.042598 0
939 1 0.594017 0.0241356 0
940 1 0.615892 0.0312384 0
941 1 0.610048 0.00672735 0
942 1 0.741519 0.0211754 0
971 1 0.735092 0.045109 0
944 1 0.757113 0.0369991 0
943 1 0.762929 0.013067 0
914 1 0.784393 0.00644047 0
945 1 0.778569 0.0306184 0
947 1 0.800884 0.0238727 0
918 1 0.823047 0.0173624 0
948 1 0.816212 0.0414438 0
949 1 0.838366 0.0335808 0
919 1 0.844232 0.00951303 0
920 1 0.860537 0.0267287 0
1790 1 0.866231 0.00250895 0
951 1 0.882511 0.0214024 0
922 1 0.904611 0.0152577 0
952 1 0.899148 0.0383866 0
950 1 0.876532 0.0453704 0
953 1 0.921686 0.0318557 0
924 1 0.92619 0.00758184 0
955 1 0.942962 0.0251899 0
956 1 0.959575 0.0426392 0
926 1 0.965024 0.0184099 0
957 1 0.980441 0.0360655 0
928 1 0.986262 0.0109507 0
933 1 0.51804 0.0476166 0
932 1 0.501734 0.0657684 0
963 1 0.523867 0.0718921 0
934 1 0.53994 0.0543417 0
965 1 0.545458 0.0787323 0
936 1 0.561213 0.0599855 0
966 1 0.566706 0.0857369 0
967 1 0.582705 0.0664507 0
938 1 0.599071 0.0482977 0
969 1 0.604704 0.0719255 0
970 1 0.729373 0.0692991 0
972 1 0.746187 0.0861688 0
973 1 0.751333 0.0623337 0
975 1 0.773012 0.0546404 0
974 1 0.789626 0.0731116 0
1003 1 0.768347 0.0796258 0
946 1 0.794746 0.0489028 0
976 1 0.811037 0.0653386 0
1007 1 0.828221 0.0826851 0
1005 1 0.806927 0.0896182 0
977 1 0.832892 0.0587152 0
979 1 0.854507 0.0512512 0
980 1 0.871404 0.0694046 0
978 1 0.850029 0.0762345 0
981 1 0.893768 0.0629208 0
983 1 0.915869 0.0558899 0
982 1 0.910077 0.0802263 0
1011 1 0.889027 0.0883028 0
984 1 0.933034 0.0741318 0
954 1 0.937669 0.0504228 0
985 1 0.954126 0.0665924 0
1015 1 0.948436 0.0922969 0
987 1 0.975765 0.0608084 0
988 1 0.991664 0.0780114 0
958 1 0.998273 0.0529005 0
986 1 0.970655 0.0858257 0
962 1 0.508029 0.0905957 0
964 1 0.530056 0.0961889 0
993 1 0.514153 0.114487 0
994 1 0.536305 0.121229 0
995 1 0.550743 0.102789 0
996 1 0.557658 0.127402 0
997 1 0.573945 0.10941 0
968 1 0.589575 0.091233 0
998 1 0.596271 0.116923 0
1000 1 0.618243 0.124259 0
1030 1 0.640183 0.131466 0
999 1 0.656124 0.112919 0
1001 1 0.677322 0.120569 0
1002 1 0.698979 0.126141 0
1033 1 0.76311 0.10379 0
1004 1 0.784811 0.0966603 0
1065 1 0.779195 0.120452 0
1035 1 0.800892 0.114107 0
1006 1 0.822927 0.107653 0
1036 1 0.816111 0.132608 0
1037 1 0.838011 0.125163 0
1008 1 0.844999 0.101437 0
1039 1 0.860554 0.119066 0
1009 1 0.866704 0.0942701 0
1010 1 0.882319 0.1122 0
1012 1 0.905589 0.105947 0
1041 1 0.898939 0.129063 0
1040 1 0.876626 0.135975 0
1043 1 0.920611 0.123247 0
1013 1 0.926907 0.098931 0
1014 1 0.943114 0.115877 0
1017 1 0.964127 0.109407 0
1018 1 0.986143 0.102998 0
1047 1 0.980838 0.126991 0
1016 1 0.958892 0.133969 0
1023 1 0.520831 0.139667 0
1022 1 0.504888 0.158375 0
1024 1 0.527363 0.164346 0
1027 1 0.58014 0.134746 0
1025 1 0.541768 0.146207 0
1055 1 0.548634 0.170937 0
1026 1 0.563839 0.152389 0
1057 1 0.570295 0.177088 0
1029 1 0.601482 0.142303 0
1028 1 0.586017 0.159886 0
1058 1 0.607425 0.167971 0
1059 1 0.623716 0.149729 0
1032 1 0.661681 0.137618 0
1060 1 0.629531 0.174387 0
1061 1 0.645307 0.155612 0
1091 1 0.651231 0.179808 0
1031 1 0.683132 0.143779 0
1062 1 0.667158 0.161329 0
1064 1 0.688911 0.169048 0
1063 1 0.705977 0.150444 0
1095 1 0.710701 0.175767 0
1034 1 0.726745 0.157499 0
1067 1 0.83252 0.148761 0
1038 1 0.854647 0.142554 0
1069 1 0.87133 0.160896 0
1068 1 0.848839 0.167351 0
1071 1 0.893125 0.152733 0
1072 1 0.909058 0.17049 0
1070 1 0.888198 0.178042 0
1042 1 0.915172 0.147197 0
1073 1 0.930847 0.164284 0
1044 1 0.936713 0.140261 0
1045 1 0.952675 0.157607 0
1074 1 0.94736 0.182375 0
1046 1 0.974933 0.151477 0