ITEM: TIMESTEP
462000
ITEM: NUMBER OF ATOMS
1800
ITEM: BOX BOUNDS pp pp pp
-1.7422756089758000e+01 1.8242275608975990e+02
1.1826529217466231e+00 1.6381734707825530e+02
0.0000000000000000e+00 5.5000000000000000e+00
ITEM: ATOMS id type xs ys zs
959 1 0.0327932 0.0315672 0
928 1 0.018066 0.0137075 0
957 1 0.0132892 0.038057 0
929 1 0.0371818 0.00612289 0
930 1 0.0517878 0.0231049 0
31 1 0.0665969 0.0403529 0
2 1 0.0708181 0.0159326 0
33 1 0.0860132 0.0329131 0
3 1 0.0906593 0.00793632 0
4 1 0.105406 0.0243613 0
6 1 0.12515 0.0183719 0
37 1 0.139343 0.0359678 0
35 1 0.120047 0.0424606 0
5 1 0.110185 0.000519564 0
8 1 0.143971 0.0109168 0
39 1 0.158831 0.0289402 0
880 1 0.163281 0.00447857 0
9 1 0.178102 0.0212643 0
40 1 0.192318 0.0395324 0
10 1 0.197859 0.0151964 0
41 1 0.211812 0.0327074 0
12 1 0.217464 0.00798282 0
14 1 0.231136 0.0254537 0
45 1 0.245465 0.0439864 0
15 1 0.250966 0.0196284 0
13 1 0.236951 0.0018193 0
46 1 0.27017 0.0154662 0
77 1 0.271802 0.041533 0
47 1 0.287936 0.0248424 0
19 1 0.30172 0.00602476 0
49 1 0.307619 0.0311391 0
20 1 0.321709 0.0119875 0
51 1 0.327273 0.0363166 0
21 1 0.340938 0.0175139 0
22 1 0.345962 0.0431798 0
23 1 0.35959 0.0240524 0
894 1 0.374083 0.0057927 0
24 1 0.379351 0.0310737 0
898 1 0.426802 -5.73347e-05 0
25 1 0.393519 0.0124772 0
26 1 0.399114 0.0367733 0
27 1 0.412993 0.0191909 0
28 1 0.41884 0.0428335 0
29 1 0.433118 0.0246127 0
900 1 0.446488 0.0060213 0
30 1 0.452856 0.0307217 0
902 1 0.486558 0.0206544 0
901 1 0.466415 0.0132062 0
931 1 0.472158 0.0379535 0
988 1 0.0236777 0.0794188 0
958 1 0.0280735 0.0551154 0
987 1 0.00867585 0.0624254 0
986 1 0.00420279 0.0876909 0
989 1 0.0421967 0.0726598 0
960 1 0.0473849 0.0476396 0
61 1 0.0616242 0.0653648 0
990 1 0.0571377 0.0899577 0
62 1 0.0762736 0.0816693 0
32 1 0.0811201 0.0569027 0
63 1 0.0957162 0.0742596 0
34 1 0.100892 0.0488498 0
65 1 0.114375 0.0671763 0
66 1 0.129414 0.0842898 0
36 1 0.133257 0.0605873 0
69 1 0.173106 0.0456652 0
67 1 0.148726 0.0776526 0
38 1 0.152812 0.0531587 0
68 1 0.167677 0.0700048 0
71 1 0.186841 0.0632975 0
72 1 0.201198 0.0803872 0
42 1 0.206328 0.0562323 0
70 1 0.182009 0.0869932 0
43 1 0.226249 0.0505654 0
73 1 0.220548 0.0738088 0
44 1 0.240551 0.0683375 0
74 1 0.263055 0.085279 0
75 1 0.259072 0.0614037 0
76 1 0.278269 0.067866 0
48 1 0.291218 0.0489694 0
79 1 0.298363 0.0732108 0
50 1 0.312595 0.0557483 0
81 1 0.317408 0.0798653 0
52 1 0.332008 0.0611876 0
82 1 0.337417 0.0862718 0
83 1 0.351505 0.0680041 0
53 1 0.365402 0.0489126 0
54 1 0.371353 0.0734744 0
55 1 0.385077 0.0553104 0
56 1 0.391136 0.0795652 0
57 1 0.404374 0.0602794 0
87 1 0.409954 0.0851378 0
58 1 0.424953 0.0676377 0
59 1 0.438564 0.048778 0
89 1 0.44411 0.0755743 0
60 1 0.457821 0.0563107 0
933 1 0.491206 0.0449523 0
963 1 0.498477 0.0701542 0
932 1 0.478464 0.0633734 0
961 1 0.464544 0.0803834 0
962 1 0.485381 0.0878505 0
1047 1 0.0139558 0.129574 0
1049 1 0.0332528 0.122557 0
1018 1 0.0188268 0.104842 0
1019 1 0.0383919 0.0966313 0
1020 1 0.0522045 0.115172 0
121 1 0.0672088 0.131712 0
91 1 0.0718816 0.106493 0
92 1 0.0858589 0.123548 0
93 1 0.0913674 0.0985424 0
94 1 0.105459 0.116926 0
64 1 0.110613 0.0918407 0
95 1 0.125257 0.109161 0
96 1 0.140221 0.126421 0
125 1 0.120837 0.134102 0
97 1 0.144306 0.101491 0
98 1 0.158811 0.118684 0
99 1 0.163598 0.0945827 0
100 1 0.177681 0.111684 0
130 1 0.192654 0.128972 0
101 1 0.196648 0.104396 0
102 1 0.211384 0.120908 0
105 1 0.234486 0.0918978 0
103 1 0.215558 0.0977483 0
104 1 0.231724 0.117651 0
78 1 0.284488 0.0924223 0
106 1 0.250877 0.104837 0
137 1 0.255342 0.128715 0
107 1 0.270098 0.111047 0
108 1 0.275544 0.13478 0
109 1 0.289598 0.116075 0
80 1 0.303628 0.0983673 0
110 1 0.309295 0.12229 0
111 1 0.323603 0.104319 0
141 1 0.32903 0.127764 0
113 1 0.34333 0.110073 0
143 1 0.348672 0.133841 0
84 1 0.357442 0.0917586 0
112 1 0.363061 0.116273 0
85 1 0.377447 0.0981633 0
115 1 0.382875 0.121745 0
86 1 0.397145 0.103644 0
116 1 0.402117 0.129283 0
117 1 0.415721 0.110539 0
118 1 0.421628 0.134963 0
88 1 0.429455 0.0928526 0
119 1 0.435998 0.117056 0
90 1 0.450404 0.0994599 0
120 1 0.455461 0.123111 0
991 1 0.470691 0.104989 0
992 1 0.475246 0.131005 0
993 1 0.489331 0.112947 0
1023 1 0.494378 0.136808 0
1075 1 0.00393696 0.17914 0
1048 1 0.0287259 0.146908 0
1077 1 0.0242013 0.172315 0
1046 1 0.00970885 0.154635 0
1079 1 0.0437954 0.165101 0
1050 1 0.0481896 0.141006 0
151 1 0.0633018 0.156357 0
152 1 0.0783841 0.175148 0
122 1 0.0824313 0.14913 0
153 1 0.097702 0.166809 0
123 1 0.101577 0.140995 0
124 1 0.117777 0.171677 0
126 1 0.134233 0.154648 0
155 1 0.136946 0.180919 0
129 1 0.173718 0.13585 0
157 1 0.1525 0.166078 0
127 1 0.154619 0.142761 0
128 1 0.172884 0.170236 0
159 1 0.187255 0.153109 0
132 1 0.19364 0.176225 0
131 1 0.207294 0.158491 0
133 1 0.221902 0.141219 0
134 1 0.227013 0.165905 0
135 1 0.241341 0.146655 0
165 1 0.247314 0.171432 0
136 1 0.262019 0.153286 0
167 1 0.267228 0.17735 0
138 1 0.281149 0.159077 0
139 1 0.294826 0.140644 0
169 1 0.300374 0.166691 0
140 1 0.314559 0.146451 0
171 1 0.320198 0.170251 0
142 1 0.334323 0.151899 0
172 1 0.339048 0.176902 0
173 1 0.353705 0.159133 0
114 1 0.368097 0.141481 0
144 1 0.372911 0.165962 0
145 1 0.387799 0.147301 0
146 1 0.391941 0.171801 0
147 1 0.407124 0.153611 0
177 1 0.412984 0.178097 0
148 1 0.426732 0.158997 0
149 1 0.442259 0.141958 0
150 1 0.4461 0.167212 0
1021 1 0.461124 0.148331 0
1024 1 0.500333 0.161392 0
1051 1 0.466153 0.172913 0
1022 1 0.480366 0.155038 0
1053 1 0.485978 0.178647 0
1076 1 0.0188798 0.197228 0
1107 1 0.0350267 0.213558 0
1106 1 0.0158596 0.22111 0
1105 1 -0.000110609 0.203938 0
1080 1 0.058694 0.181696 0
1078 1 0.0387253 0.189311 0
1109 1 0.0547923 0.217989 0
181 1 0.0705097 0.201156 0
182 1 0.0751649 0.226301 0
183 1 0.0889496 0.208684 0
154 1 0.103487 0.191092 0
185 1 0.109819 0.216151 0
156 1 0.123252 0.198029 0
186 1 0.128976 0.223571 0
158 1 0.1439 0.204752 0
160 1 0.158619 0.188623 0
189 1 0.163467 0.212766 0
161 1 0.178636 0.194101 0
163 1 0.212604 0.183248 0
191 1 0.182983 0.218803 0
162 1 0.198631 0.200592 0
192 1 0.202688 0.224474 0
193 1 0.218009 0.206823 0
164 1 0.232376 0.18929 0
195 1 0.237727 0.212927 0
166 1 0.252088 0.195159 0
196 1 0.256844 0.219794 0
197 1 0.271888 0.201717 0
198 1 0.276742 0.225937 0
168 1 0.28639 0.184301 0
199 1 0.291215 0.208291 0
170 1 0.305864 0.190541 0
200 1 0.310595 0.214508 0
201 1 0.32523 0.196093 0
202 1 0.330389 0.220102 0
203 1 0.344667 0.203122 0
233 1 0.350354 0.226549 0
174 1 0.358623 0.183707 0
204 1 0.364114 0.208876 0
175 1 0.378411 0.190668 0
205 1 0.384562 0.214506 0
176 1 0.398379 0.196636 0
207 1 0.403366 0.222112 0
178 1 0.417793 0.20386 0
179 1 0.43183 0.185754 0
209 1 0.437701 0.209116 0
180 1 0.451186 0.191031 0
1081 1 0.457487 0.215167 0
1052 1 0.470872 0.196702 0
1082 1 0.477173 0.222532 0
1083 1 0.490628 0.203875 0
1108 1 0.028466 0.254786 0
1136 1 0.0094192 0.245122 0
1137 1 0.0128224 0.270263 0
1110 1 0.041804 0.236595 0
1140 1 0.0479533 0.262118 0
211 1 0.0608753 0.242792 0
212 1 0.0669942 0.269234 0
213 1 0.081217 0.250714 0
184 1 0.0950329 0.233126 0
214 1 0.100701 0.25754 0
215 1 0.114993 0.240819 0
216 1 0.120232 0.264131 0
217 1 0.134913 0.247032 0
218 1 0.140357 0.271707 0
187 1 0.149098 0.229015 0
188 1 0.154717 0.253508 0
190 1 0.169511 0.23647 0
220 1 0.174863 0.260656 0
221 1 0.189307 0.242534 0
222 1 0.194277 0.267384 0
223 1 0.208848 0.248854 0
194 1 0.223481 0.231468 0
224 1 0.228031 0.256094 0
225 1 0.243215 0.238125 0
226 1 0.247228 0.262578 0
227 1 0.262599 0.24481 0
257 1 0.266673 0.269071 0
228 1 0.282053 0.249857 0
229 1 0.296665 0.231693 0
230 1 0.301052 0.255629 0
231 1 0.316837 0.238891 0
261 1 0.320979 0.262949 0
232 1 0.336425 0.244337 0
263 1 0.340827 0.268807 0
234 1 0.356038 0.251546 0
235 1 0.370156 0.232684 0
265 1 0.375208 0.258158 0
206 1 0.389337 0.239336 0
208 1 0.422974 0.228286 0
236 1 0.394162 0.264312 0
237 1 0.408381 0.24641 0
238 1 0.41383 0.269781 0
239 1 0.428509 0.251504 0
210 1 0.443317 0.233059 0
240 1 0.448822 0.257847 0
1111 1 0.4629 0.23954 0
1112 1 0.46877 0.264268 0
1113 1 0.482855 0.246082 0
1084 1 0.497725 0.228309 0
1142 1 0.487485 0.270788 0
1138 1 0.0178225 0.297879 0
1139 1 0.0323912 0.279493 0
1197 1 0.00255954 0.31446 0
1169 1 0.0372835 0.304104 0
241 1 0.0518828 0.286117 0
271 1 0.056834 0.311346 0
242 1 0.071023 0.294004 0
243 1 0.0857269 0.276122 0
244 1 0.0905302 0.300498 0
245 1 0.105668 0.28238 0
273 1 0.0764083 0.317984 0
246 1 0.110413 0.306788 0
247 1 0.12565 0.289028 0
248 1 0.130674 0.313265 0
249 1 0.145276 0.295588 0
219 1 0.160277 0.278336 0
250 1 0.164838 0.302406 0
251 1 0.179903 0.284954 0
281 1 0.185115 0.309881 0
252 1 0.199323 0.292157 0
283 1 0.20497 0.3168 0
253 1 0.214175 0.273912 0
254 1 0.219178 0.298833 0
255 1 0.233598 0.280654 0
285 1 0.238859 0.305891 0
256 1 0.253264 0.288363 0
287 1 0.258524 0.312205 0
258 1 0.272589 0.292573 0
288 1 0.277459 0.317747 0
259 1 0.286625 0.274635 0
289 1 0.291605 0.298363 0
260 1 0.306599 0.28103 0
291 1 0.312121 0.305912 0
262 1 0.325954 0.288387 0
292 1 0.33176 0.311797 0
293 1 0.345853 0.293465 0
264 1 0.359865 0.275306 0
295 1 0.365295 0.300968 0
266 1 0.379882 0.282857 0
297 1 0.385478 0.307132 0
267 1 0.399157 0.288753 0
298 1 0.404801 0.311831 0
268 1 0.419249 0.29399 0
269 1 0.43398 0.275873 0
270 1 0.43898 0.299684 0
1141 1 0.45351 0.28138 0
300 1 0.458292 0.30579 0
1171 1 0.47248 0.288992 0
1172 1 0.477691 0.313901 0
1173 1 0.492998 0.295963 0
1168 1 0.0229659 0.321743 0
1199 1 0.0282373 0.345517 0
1198 1 0.00849024 0.338804 0
1170 1 0.0429159 0.329335 0
1229 1 0.0485776 0.352352 0
1200 1 0.0626824 0.335106 0
301 1 0.0685416 0.360089 0
272 1 0.0826256 0.34195 0
275 1 0.0961199 0.324187 0
274 1 0.101899 0.348347 0
276 1 0.116237 0.330916 0
305 1 0.121626 0.35522 0
277 1 0.135296 0.337681 0
307 1 0.140606 0.361336 0
279 1 0.150704 0.320813 0
278 1 0.155165 0.344213 0
280 1 0.170556 0.327466 0
311 1 0.175475 0.351446 0
282 1 0.189876 0.333968 0
312 1 0.195623 0.358695 0
313 1 0.209422 0.340871 0
284 1 0.224747 0.323125 0
315 1 0.229181 0.348614 0
286 1 0.24415 0.330382 0
316 1 0.248907 0.355128 0
317 1 0.263364 0.336809 0
318 1 0.269051 0.36086 0
319 1 0.283318 0.3422 0
290 1 0.297288 0.322122 0
320 1 0.302904 0.348049 0
321 1 0.31712 0.32996 0
322 1 0.322932 0.354328 0
294 1 0.351175 0.318437 0
323 1 0.336707 0.337004 0
324 1 0.341958 0.361106 0
325 1 0.355853 0.343501 0
296 1 0.370592 0.325166 0
326 1 0.375591 0.349271 0
327 1 0.390729 0.33101 0
299 1 0.424692 0.318555 0
328 1 0.395048 0.35538 0
329 1 0.409871 0.336484 0
358 1 0.414503 0.362525 0
359 1 0.429424 0.344266 0
330 1 0.443964 0.325532 0
360 1 0.448612 0.35005 0
1201 1 0.463154 0.330512 0
1202 1 0.482526 0.337978 0
1231 1 0.468569 0.355014 0
1203 1 0.498213 0.320688 0
1233 1 0.487992 0.361932 0
1228 1 0.014084 0.364151 0
1287 1 0.00538521 0.405977 0
1259 1 0.0335592 0.369551 0
1258 1 0.0198761 0.388256 0
1260 1 0.0394689 0.394215 0
1230 1 0.0535431 0.377254 0
331 1 0.0596458 0.401323 0
302 1 0.0739321 0.384071 0
303 1 0.0882444 0.366663 0
333 1 0.0928589 0.391282 0
332 1 0.0788365 0.409251 0
304 1 0.107562 0.373252 0
335 1 0.1124 0.397917 0
306 1 0.127176 0.380139 0
337 1 0.131398 0.404623 0
308 1 0.145852 0.385617 0
309 1 0.160328 0.368552 0
339 1 0.166358 0.39328 0
310 1 0.179984 0.375568 0
341 1 0.185644 0.400666 0
343 1 0.200395 0.383903 0
342 1 0.205289 0.407998 0
314 1 0.214375 0.366399 0
344 1 0.220652 0.38945 0
345 1 0.235118 0.3729 0
346 1 0.239931 0.396314 0
347 1 0.254655 0.379777 0
377 1 0.260043 0.403572 0
348 1 0.274031 0.384752 0
349 1 0.288574 0.366832 0
350 1 0.293815 0.39096 0
351 1 0.308085 0.372789 0
381 1 0.312924 0.397358 0
353 1 0.32807 0.37918 0
352 1 0.333148 0.403981 0
354 1 0.346956 0.385791 0
355 1 0.362109 0.367048 0
356 1 0.366026 0.391666 0
357 1 0.381628 0.373395 0
386 1 0.385385 0.398472 0
387 1 0.400921 0.379728 0
388 1 0.405518 0.403658 0
389 1 0.421021 0.386508 0
1232 1 0.434544 0.368097 0
1261 1 0.440186 0.392978 0
1262 1 0.455147 0.373796 0
1293 1 0.459579 0.398453 0
1263 1 0.474268 0.379876 0
1294 1 0.479125 0.405359 0
1264 1 0.493469 0.387293 0
1289 1 0.0250305 0.412291 0
1319 1 0.0298586 0.436625 0
1288 1 0.01007 0.430073 0
1290 1 0.0449107 0.419066 0
391 1 0.0495275 0.443331 0
361 1 0.0639524 0.426105 0
362 1 0.0689363 0.450822 0
363 1 0.0834405 0.433341 0
334 1 0.0980003 0.415452 0
365 1 0.102878 0.439902 0
336 1 0.117409 0.42181 0
366 1 0.122249 0.445783 0
367 1 0.136453 0.428614 0
368 1 0.141516 0.453011 0
338 1 0.151156 0.410457 0
369 1 0.156359 0.434887 0
340 1 0.171022 0.418023 0
370 1 0.17542 0.442278 0
371 1 0.189863 0.425244 0
401 1 0.195834 0.449382 0
372 1 0.210014 0.431589 0
373 1 0.225495 0.414054 0
374 1 0.230433 0.438617 0
375 1 0.244903 0.42083 0
378 1 0.279244 0.408937 0
405 1 0.250203 0.444328 0
376 1 0.264724 0.427056 0
407 1 0.269881 0.451608 0
409 1 0.284734 0.433016 0
379 1 0.298805 0.415863 0
380 1 0.304334 0.440669 0
382 1 0.318788 0.421753 0
385 1 0.35249 0.410931 0
413 1 0.323795 0.44588 0
383 1 0.338152 0.428165 0
412 1 0.343028 0.452247 0
414 1 0.357803 0.435463 0
384 1 0.371922 0.416671 0
415 1 0.376956 0.440875 0
417 1 0.391521 0.422492 0
419 1 0.424879 0.410248 0
416 1 0.397066 0.447165 0
418 1 0.411079 0.429131 0
447 1 0.41672 0.452904 0
390 1 0.430421 0.435935 0
1291 1 0.444287 0.416905 0
1321 1 0.449894 0.44158 0
1323 1 0.484299 0.429967 0
1292 1 0.464047 0.42262 0
1322 1 0.4696 0.446512 0
1324 1 0.489887 0.453887 0
1295 1 0.498603 0.411753 0
1348 1 6.6027e-05 0.472126 0
1318 1 0.0148661 0.454986 0
1320 1 0.0345402 0.461646 0
1349 1 0.0202597 0.478842 0
1379 1 0.00549276 0.496526 0
421 1 0.0401553 0.485821 0
392 1 0.0540847 0.467937 0
422 1 0.0606934 0.492609 0
393 1 0.0736709 0.475777 0
364 1 0.0889224 0.457783 0
394 1 0.0934048 0.482229 0
395 1 0.1083 0.464485 0
396 1 0.113979 0.488588 0
397 1 0.127766 0.470524 0
427 1 0.132937 0.495399 0
398 1 0.147203 0.477262 0
399 1 0.161146 0.459313 0
429 1 0.166652 0.48388 0
400 1 0.181219 0.466086 0
431 1 0.186398 0.490126 0
402 1 0.201779 0.473357 0
432 1 0.20627 0.497901 0
403 1 0.215499 0.455906 0
433 1 0.221148 0.480628 0
404 1 0.235245 0.462845 0
435 1 0.240659 0.486386 0
439 1 0.280688 0.499381 0
406 1 0.254669 0.468768 0
436 1 0.260276 0.493375 0
408 1 0.274512 0.475497 0
410 1 0.289749 0.457601 0
441 1 0.294781 0.48233 0
411 1 0.309384 0.464164 0
440 1 0.314652 0.487973 0
442 1 0.328236 0.470624 0
471 1 0.334813 0.493722 0
473 1 0.348664 0.47597 0
443 1 0.36339 0.458853 0
444 1 0.368387 0.483392 0
445 1 0.383084 0.465489 0
475 1 0.38835 0.49013 0
446 1 0.402168 0.472114 0
477 1 0.408053 0.496775 0
448 1 0.422415 0.477996 0
449 1 0.442059 0.484546 0
420 1 0.435992 0.460349 0
1351 1 0.461663 0.490139 0
450 1 0.456202 0.46553 0
1353 1 0.475637 0.47069 0
1354 1 0.495088 0.477573 0
1352 1 0.48148 0.494357 0
1380 1 0.032078 0.528291 0
1350 1 0.0254127 0.502849 0
1409 1 0.0173329 0.544727 0
451 1 0.0457725 0.510154 0
452 1 0.0510148 0.534393 0
453 1 0.0650688 0.517139 0
454 1 0.0707133 0.540803 0
424 1 0.0850315 0.524314 0
425 1 0.099305 0.506541 0
455 1 0.104502 0.530837 0
423 1 0.0802348 0.499583 0
426 1 0.118817 0.51296 0
456 1 0.124666 0.538562 0
457 1 0.138515 0.51993 0
458 1 0.144405 0.54391 0
459 1 0.157491 0.525784 0
430 1 0.171608 0.50897 0
460 1 0.17767 0.533135 0
428 1 0.152572 0.501524 0
461 1 0.191482 0.514876 0
462 1 0.197964 0.540978 0
463 1 0.211095 0.522498 0
434 1 0.226107 0.505249 0
464 1 0.232101 0.528964 0
465 1 0.24607 0.511196 0
466 1 0.251442 0.535365 0
437 1 0.265491 0.517959 0
497 1 0.271696 0.54163 0
467 1 0.285469 0.523834 0
438 1 0.300299 0.505942 0
468 1 0.306397 0.529296 0
469 1 0.319952 0.511331 0
499 1 0.325385 0.537015 0
470 1 0.339461 0.519001 0
501 1 0.344613 0.543534 0
472 1 0.353914 0.501225 0
503 1 0.359391 0.525447 0
474 1 0.37339 0.508056 0
505 1 0.37929 0.531975 0
476 1 0.393084 0.513855 0
506 1 0.399006 0.538134 0
507 1 0.413019 0.520443 0
509 1 0.418391 0.544506 0
478 1 0.427521 0.501668 0
480 1 0.433617 0.526925 0
479 1 0.44795 0.508089 0
510 1 0.45274 0.533199 0
1382 1 0.48678 0.519712 0
1381 1 0.467623 0.51427 0
1411 1 0.472091 0.539558 0
1413 1 0.492036 0.543572 0
1408 1 0.0218099 0.568923 0
481 1 0.0364021 0.552895 0
1410 1 0.0415921 0.576561 0
483 1 0.0562385 0.55843 0
482 1 0.0613732 0.583583 0
485 1 0.0904494 0.548915 0
513 1 0.0760905 0.566346 0
484 1 0.095821 0.572763 0
514 1 0.0810283 0.590979 0
486 1 0.110465 0.555784 0
515 1 0.115132 0.580403 0
487 1 0.129636 0.563023 0
517 1 0.135013 0.587049 0
488 1 0.149736 0.568704 0
489 1 0.163752 0.55115 0
490 1 0.169224 0.575071 0
491 1 0.183585 0.557437 0
521 1 0.188974 0.581793 0
492 1 0.20345 0.565382 0
523 1 0.208855 0.589632 0
493 1 0.217455 0.546553 0
494 1 0.223024 0.571791 0
495 1 0.236617 0.553369 0
525 1 0.242682 0.578633 0
496 1 0.25747 0.558996 0
526 1 0.263221 0.583499 0
527 1 0.276939 0.565697 0
528 1 0.283015 0.591101 0
498 1 0.291398 0.547788 0
529 1 0.29682 0.572403 0
500 1 0.311506 0.553614 0
530 1 0.316762 0.578896 0
531 1 0.331276 0.561573 0
532 1 0.33714 0.585282 0
533 1 0.350891 0.567051 0
563 1 0.356203 0.592255 0
502 1 0.365494 0.550122 0
534 1 0.370304 0.573963 0
504 1 0.385106 0.55604 0
535 1 0.390535 0.580363 0
508 1 0.404829 0.562397 0
537 1 0.410162 0.587365 0
539 1 0.4243 0.56878 0
540 1 0.438614 0.551279 0
569 1 0.443451 0.575734 0
1441 1 0.458474 0.55755 0
1442 1 0.463704 0.581392 0
1443 1 0.48407 0.587022 0
1412 1 0.478793 0.563129 0
1414 1 0.498303 0.56868 0
1439 1 0.0272192 0.593977 0
1440 1 0.0317715 0.619438 0
1438 1 0.0117747 0.610888 0
1469 1 0.00340129 0.634023 0
511 1 0.0468489 0.600529 0
541 1 0.0510206 0.626153 0
512 1 0.0662739 0.60911 0
542 1 0.0710569 0.633523 0
543 1 0.0861793 0.615705 0
545 1 0.100179 0.598153 0
546 1 0.106154 0.621376 0
516 1 0.120282 0.604 0
547 1 0.124882 0.62903 0
518 1 0.139809 0.611283 0
519 1 0.155328 0.592966 0
548 1 0.159361 0.616972 0
520 1 0.174392 0.599078 0
577 1 0.144909 0.634505 0
549 1 0.179433 0.623749 0
522 1 0.19378 0.606973 0
551 1 0.19796 0.63133 0
553 1 0.212709 0.613738 0
524 1 0.228381 0.596025 0
554 1 0.233218 0.620338 0
555 1 0.248665 0.602666 0
556 1 0.253878 0.627224 0
557 1 0.268487 0.608753 0
587 1 0.273063 0.633931 0
558 1 0.288279 0.615586 0
559 1 0.302763 0.597711 0
560 1 0.308097 0.621232 0
561 1 0.322538 0.603475 0
591 1 0.328252 0.628355 0
562 1 0.342583 0.609763 0
564 1 0.347855 0.63473 0
565 1 0.362079 0.616285 0
536 1 0.376122 0.597851 0
566 1 0.381509 0.622181 0
567 1 0.395589 0.60499 0
597 1 0.400762 0.629215 0
568 1 0.415123 0.611894 0
599 1 0.420537 0.635813 0
538 1 0.429676 0.592855 0
600 1 0.435213 0.617646 0
570 1 0.449306 0.59935 0
1501 1 0.454303 0.623424 0
1471 1 0.469691 0.60554 0
1472 1 0.474202 0.629709 0
1473 1 0.488725 0.612199 0
1474 1 0.494357 0.636579 0
1529 1 0.0129333 0.675519 0
1500 1 0.0328946 0.667614 0
1499 1 0.0176196 0.651483 0
1470 1 0.0366466 0.64319 0
571 1 0.0561919 0.652285 0
572 1 0.0645666 0.676224 0
573 1 0.0774153 0.657434 0
544 1 0.0916086 0.640432 0
574 1 0.096513 0.666154 0
575 1 0.110721 0.647172 0
605 1 0.116232 0.671985 0
576 1 0.129801 0.653845 0
607 1 0.136209 0.679359 0
578 1 0.149449 0.659727 0
579 1 0.163862 0.641756 0
609 1 0.16873 0.666643 0
550 1 0.183597 0.6476 0
580 1 0.189068 0.672468 0
581 1 0.203915 0.654966 0
611 1 0.209376 0.679386 0
552 1 0.218932 0.637583 0
582 1 0.224216 0.661728 0
583 1 0.238436 0.644201 0
584 1 0.244158 0.668643 0
585 1 0.259164 0.652032 0
615 1 0.265377 0.674735 0
586 1 0.279153 0.657048 0
617 1 0.284673 0.682334 0
589 1 0.293711 0.639576 0
588 1 0.298449 0.663917 0
590 1 0.313332 0.646467 0
621 1 0.318386 0.670405 0
593 1 0.33312 0.651618 0
592 1 0.337271 0.677383 0
594 1 0.353154 0.65888 0
595 1 0.367275 0.641131 0
625 1 0.37204 0.66567 0
596 1 0.387057 0.647046 0
627 1 0.39219 0.672 0
598 1 0.406385 0.654164 0
657 1 0.411559 0.678709 0
628 1 0.426332 0.66054 0
629 1 0.439695 0.642468 0
630 1 0.446372 0.667348 0
1502 1 0.459099 0.648066 0
1533 1 0.465591 0.672817 0
1505 1 0.499418 0.661366 0
1503 1 0.47932 0.654791 0
1504 1 0.48466 0.680247 0
1558 1 0.00317638 0.723825 0
1559 1 0.00764071 0.698747 0
1530 1 0.0275829 0.691914 0
1560 1 0.0223398 0.715424 0
631 1 0.0423823 0.709332 0
601 1 0.0462968 0.685055 0
602 1 0.0635709 0.700793 0
632 1 0.0576723 0.726554 0
603 1 0.0816235 0.687086 0
633 1 0.0866313 0.711407 0
604 1 0.101375 0.691116 0
635 1 0.106833 0.716105 0
606 1 0.12133 0.697062 0
636 1 0.126191 0.722186 0
637 1 0.140889 0.703025 0
608 1 0.155275 0.684318 0
638 1 0.161103 0.70799 0
639 1 0.175521 0.69083 0
641 1 0.181609 0.715624 0
610 1 0.195872 0.697698 0
642 1 0.201899 0.721603 0
612 1 0.215445 0.703291 0
613 1 0.2301 0.686374 0
643 1 0.236406 0.711378 0
614 1 0.250488 0.692291 0
645 1 0.256176 0.71777 0
616 1 0.270009 0.699264 0
647 1 0.276478 0.724189 0
618 1 0.290042 0.707037 0
619 1 0.304274 0.68761 0
620 1 0.309212 0.712426 0
622 1 0.323683 0.69486 0
651 1 0.328374 0.719127 0
653 1 0.343338 0.702992 0
654 1 0.348425 0.726914 0
623 1 0.35677 0.684111 0
624 1 0.363517 0.708226 0
626 1 0.377032 0.690682 0
655 1 0.382642 0.71487 0
656 1 0.396405 0.6965 0
686 1 0.402411 0.7202 0
658 1 0.416373 0.702821 0
687 1 0.421941 0.727416 0
659 1 0.431329 0.685043 0
660 1 0.436228 0.70948 0
1531 1 0.45073 0.691775 0
1561 1 0.45612 0.71541 0
1532 1 0.470637 0.697982 0
1563 1 0.475777 0.721144 0
1534 1 0.490894 0.703543 0
1619 1 0.0133494 0.764677 0
1589 1 0.0176986 0.740857 0
1590 1 0.0328199 0.757778 0
661 1 0.0376677 0.733433 0
663 1 0.0527374 0.750698 0
662 1 0.0663393 0.768498 0
664 1 0.0719942 0.7432 0
695 1 0.0861 0.760462 0
634 1 0.0912709 0.735712 0
665 1 0.112748 0.742169 0
697 1 0.11984 0.768102 0
666 1 0.13388 0.745201 0
668 1 0.140598 0.767899 0
667 1 0.147108 0.726417 0
669 1 0.154256 0.750441 0
640 1 0.167779 0.731959 0
670 1 0.174413 0.757384 0
671 1 0.188062 0.739071 0
672 1 0.193699 0.763465 0
673 1 0.207215 0.745214 0
703 1 0.2126 0.77084 0
644 1 0.221663 0.727812 0
674 1 0.226942 0.752716 0
675 1 0.241327 0.735651 0
705 1 0.245903 0.759623 0
646 1 0.261059 0.741566 0
677 1 0.265926 0.765802 0
648 1 0.280692 0.747745 0
678 1 0.285575 0.771658 0
649 1 0.295126 0.730579 0
679 1 0.300989 0.755506 0
650 1 0.314929 0.737467 0
681 1 0.319598 0.762697 0
652 1 0.333921 0.744727 0
682 1 0.339386 0.767951 0
683 1 0.353405 0.750391 0
685 1 0.367895 0.732528 0
684 1 0.373329 0.756422 0
715 1 0.388215 0.738798 0
714 1 0.39355 0.762434 0
717 1 0.407808 0.745071 0
716 1 0.412852 0.769452 0
688 1 0.427038 0.751228 0
689 1 0.441655 0.733337 0
719 1 0.447172 0.757328 0
690 1 0.461591 0.73951 0
1565 1 0.495723 0.728423 0
1591 1 0.466822 0.763386 0
1562 1 0.481295 0.746013 0
1593 1 0.486299 0.770085 0
1620 1 0.0268581 0.781578 0
1649 1 0.0224102 0.807673 0
1618 1 0.00777215 0.790032 0
1648 1 0.00304528 0.814389 0
691 1 0.0465805 0.774993 0
721 1 0.0415328 0.799287 0
693 1 0.0616659 0.792389 0
692 1 0.0558913 0.817333 0
723 1 0.0758294 0.810541 0
694 1 0.0808198 0.785713 0
725 1 0.0951958 0.803988 0
696 1 0.101224 0.778398 0
727 1 0.115038 0.795663 0
728 1 0.129347 0.814094 0
698 1 0.134206 0.790183 0
699 1 0.160065 0.775127 0
700 1 0.148274 0.808339 0
731 1 0.165587 0.797813 0
701 1 0.180481 0.782522 0
702 1 0.199421 0.78981 0
763 1 0.204744 0.812951 0
732 1 0.184505 0.80649 0
733 1 0.218502 0.795601 0
704 1 0.232315 0.777529 0
706 1 0.238525 0.80187 0
676 1 0.25156 0.783426 0
737 1 0.257608 0.808304 0
707 1 0.271998 0.790516 0
738 1 0.276528 0.815816 0
708 1 0.290435 0.79712 0
709 1 0.304623 0.779182 0
710 1 0.310535 0.803794 0
680 1 0.32579 0.787168 0
741 1 0.330632 0.811468 0
711 1 0.345417 0.792849 0
713 1 0.359135 0.774578 0
712 1 0.36493 0.798372 0
743 1 0.378583 0.781687 0
745 1 0.38469 0.805967 0
746 1 0.397887 0.787731 0
775 1 0.404327 0.811649 0
747 1 0.418567 0.794668 0
748 1 0.424846 0.818068 0
718 1 0.433143 0.77528 0
749 1 0.438312 0.79989 0
720 1 0.452301 0.78221 0
1621 1 0.458088 0.806272 0
1623 1 0.492097 0.793984 0
1592 1 0.472396 0.78778 0
1622 1 0.477508 0.812241 0
1709 1 0.031777 0.849498 0
1679 1 0.0168372 0.831123 0
1678 1 0.0122993 0.856344 0
1650 1 0.0367094 0.825655 0
1680 1 0.0515671 0.84154 0
752 1 0.0655482 0.858904 0
751 1 0.0714492 0.834292 0
753 1 0.0854911 0.85229 0
722 1 0.0904295 0.82794 0
724 1 0.104991 0.845659 0
726 1 0.109961 0.820708 0
757 1 0.124748 0.839005 0
756 1 0.14019 0.854995 0
729 1 0.145104 0.832178 0
759 1 0.160173 0.848248 0
730 1 0.164947 0.823149 0
760 1 0.174873 0.865686 0
761 1 0.189525 0.830694 0
792 1 0.194294 0.855869 0
762 1 0.209174 0.838209 0
764 1 0.21449 0.863029 0
735 1 0.22425 0.820236 0
734 1 0.228706 0.844951 0
736 1 0.243286 0.826233 0
765 1 0.248575 0.852156 0
767 1 0.26278 0.833794 0
766 1 0.268588 0.858343 0
768 1 0.282435 0.840468 0
739 1 0.297077 0.823114 0
769 1 0.302533 0.84708 0
740 1 0.316675 0.828091 0
742 1 0.351429 0.817739 0
770 1 0.322279 0.852363 0
771 1 0.337437 0.836095 0
801 1 0.341851 0.860675 0
773 1 0.356199 0.842612 0
744 1 0.370121 0.824136 0
803 1 0.375456 0.847738 0
774 1 0.389664 0.829073 0
776 1 0.395569 0.853279 0
777 1 0.410059 0.834966 0
778 1 0.414558 0.85942 0
779 1 0.428977 0.841321 0
750 1 0.444514 0.824954 0
780 1 0.449361 0.848536 0
1651 1 0.463667 0.831539 0
1624 1 0.497232 0.819375 0
1652 1 0.468627 0.855717 0
1653 1 0.483031 0.836863 0
1683 1 0.488188 0.860489 0
1710 1 0.0280723 0.873591 0
1739 1 0.0221113 0.897727 0
1708 1 0.00763054 0.880791 0
1737 1 0.00300756 0.905289 0
781 1 0.0468231 0.866834 0
811 1 0.0421435 0.891033 0
782 1 0.0614428 0.88356 0
812 1 0.0559439 0.908101 0
813 1 0.0757629 0.900319 0
783 1 0.0805793 0.876184 0
784 1 0.0958847 0.894051 0
754 1 0.100647 0.869521 0
755 1 0.119733 0.862548 0
785 1 0.115102 0.886991 0
786 1 0.129864 0.903181 0
787 1 0.135589 0.879111 0
788 1 0.150546 0.897449 0
758 1 0.155355 0.872028 0
789 1 0.170079 0.889939 0
791 1 0.190861 0.88185 0
823 1 0.203474 0.900801 0
790 1 0.184316 0.907228 0
793 1 0.220065 0.887246 0
795 1 0.233475 0.869671 0
794 1 0.239703 0.893372 0
796 1 0.254047 0.87544 0
825 1 0.259405 0.899158 0
827 1 0.274387 0.882924 0
826 1 0.279775 0.907337 0
797 1 0.288158 0.864623 0
798 1 0.294231 0.889354 0
799 1 0.307598 0.871218 0
829 1 0.313695 0.895053 0
800 1 0.327432 0.877453 0
831 1 0.333347 0.902481 0
802 1 0.346964 0.884907 0
833 1 0.353373 0.909099 0
772 1 0.361649 0.866587 0
804 1 0.367008 0.890222 0
805 1 0.381424 0.871565 0
806 1 0.386669 0.895941 0
807 1 0.400758 0.877546 0
837 1 0.406568 0.902917 0
808 1 0.420006 0.884427 0
839 1 0.426366 0.909596 0
809 1 0.434529 0.866863 0
810 1 0.439467 0.890584 0
1681 1 0.454005 0.873766 0
1711 1 0.458999 0.897256 0
1684 1 0.493558 0.884607 0
1682 1 0.474173 0.878855 0
1713 1 0.479232 0.903328 0
1769 1 0.0317812 0.940186 0
1738 1 0.0178733 0.923012 0
1768 1 0.012401 0.947242 0
1740 1 0.0365357 0.914918 0
841 1 0.0513462 0.932103 0
842 1 0.0654003 0.950211 0
843 1 0.0702356 0.925333 0
844 1 0.0855809 0.94186 0
814 1 0.0903377 0.917767 0
845 1 0.104766 0.934135 0
815 1 0.110677 0.91169 0
816 1 0.12507 0.928493 0
847 1 0.139815 0.945289 0
846 1 0.119251 0.951965 0
817 1 0.144545 0.92083 0
818 1 0.158145 0.938383 0
819 1 0.164885 0.914237 0
820 1 0.178738 0.931333 0
851 1 0.192907 0.947924 0
821 1 0.198294 0.924127 0
822 1 0.213004 0.940577 0
824 1 0.224083 0.911244 0
853 1 0.231694 0.933692 0
855 1 0.245976 0.917805 0
854 1 0.251095 0.94227 0
856 1 0.265549 0.924798 0
885 1 0.271169 0.948705 0
857 1 0.28553 0.931257 0
828 1 0.299535 0.913279 0
859 1 0.3048 0.936345 0
830 1 0.318575 0.919025 0
860 1 0.324029 0.944386 0
832 1 0.337903 0.92723 0
861 1 0.343653 0.950795 0
863 1 0.357861 0.932116 0
834 1 0.373073 0.914588 0
865 1 0.376992 0.938088 0
835 1 0.39198 0.920499 0
836 1 0.397146 0.946048 0
838 1 0.411767 0.928286 0
867 1 0.417316 0.951994 0
869 1 0.43268 0.933737 0
840 1 0.445584 0.915085 0
1741 1 0.451585 0.939968 0
1743 1 0.484991 0.927871 0
1712 1 0.465444 0.921964 0
1742 1 0.471566 0.946759 0
1714 1 0.498457 0.910096 0
1744 1 0.490672 0.953568 0
1799 1 0.027116 0.964201 0
1798 1 0.0225608 0.98903 0
1797 1 0.00737446 0.971207 0
927 1 0.00236394 0.996322 0
1800 1 0.0416798 0.981247 0
1770 1 0.046305 0.956504 0
871 1 0.0616573 0.974135 0
1 1 0.0564795 0.998335 0
872 1 0.0753425 0.991525 0
873 1 0.08015 0.967079 0
874 1 0.0948785 0.983406 0
875 1 0.0996622 0.959501 0
876 1 0.114574 0.976184 0
7 1 0.129696 0.993643 0
877 1 0.13412 0.969422 0
849 1 0.173176 0.955245 0
878 1 0.149035 0.987297 0
848 1 0.154146 0.963151 0
879 1 0.168372 0.97965 0
850 1 0.18854 0.972621 0
11 1 0.202509 0.990848 0
852 1 0.208488 0.965227 0
881 1 0.182746 0.997331 0
883 1 0.228531 0.958366 0
882 1 0.222473 0.982948 0
884 1 0.24138 0.978187 0
886 1 0.25789 0.966321 0
16 1 0.258605 0.993713 0
17 1 0.277314 0.974276 0
18 1 0.282966 0.998245 0
887 1 0.29099 0.955274 0
888 1 0.296754 0.98011 0
858 1 0.310184 0.962322 0
889 1 0.315995 0.987893 0
891 1 0.32991 0.968417 0
890 1 0.335601 0.993354 0
862 1 0.348633 0.975025 0
892 1 0.354532 1.00018 0
864 1 0.363394 0.957144 0
893 1 0.368385 0.981789 0
895 1 0.382534 0.963179 0
896 1 0.387821 0.98777 0
866 1 0.402452 0.96962 0
897 1 0.40753 0.993512 0
868 1 0.421785 0.975794 0
1772 1 0.461458 0.988337 0
870 1 0.436482 0.958575 0
1771 1 0.455841 0.965537 0
899 1 0.440943 0.982609 0
1774 1 0.495577 0.977949 0
903 1 0.480573 0.996612 0
1773 1 0.476237 0.971251 0
904 1 0.506444 0.0267574 0
905 1 0.50078 0.00251492 0
906 1 0.52035 0.00933791 0
935 1 0.526388 0.0327142 0
908 1 0.541083 0.0144351 0
937 1 0.545843 0.0396144 0
939 1 0.56031 0.0216782 0
940 1 0.579886 0.0282055 0
941 1 0.575338 0.00342581 0
942 1 0.79831 0.0262754 0
943 1 0.817589 0.0187642 0
944 1 0.812705 0.0430932 0
912 1 0.802237 0.000398213 0
945 1 0.832506 0.0341655 0
914 1 0.837204 0.0101056 0
947 1 0.851942 0.0283216 0
916 1 0.856367 0.00347214 0
918 1 0.871004 0.0209609 0
949 1 0.886098 0.0375826 0
919 1 0.889477 0.0131004 0
948 1 0.866659 0.0450615 0
920 1 0.904887 0.0308955 0
1790 1 0.909704 0.00712838 0
951 1 0.924438 0.0249252 0
952 1 0.939625 0.0430012 0
922 1 0.944116 0.01738 0
953 1 0.95863 0.0347505 0