ITEM: TIMESTEP
430000
ITEM: NUMBER OF ATOMS
1800
ITEM: BOX BOUNDS pp pp pp
-1.6134069751298803e+01 1.8113406975130073e+02
1.1826529217466231e+00 1.6381734707825530e+02
0.0000000000000000e+00 5.5000000000000000e+00
ITEM: ATOMS id type xs ys zs
929 1 0.0326503 0.00617067 0
959 1 0.0277006 0.0302691 0
928 1 0.0133096 0.0134211 0
957 1 0.00819434 0.037549 0
930 1 0.0479864 0.0229098 0
31 1 0.0627004 0.0395915 0
2 1 0.0675076 0.0156674 0
33 1 0.0823034 0.0327044 0
3 1 0.0862739 0.00895916 0
4 1 0.102104 0.026425 0
5 1 0.106446 0.00119879 0
6 1 0.121213 0.0186288 0
37 1 0.136212 0.0359398 0
8 1 0.140983 0.0120707 0
35 1 0.117788 0.0430662 0
39 1 0.155324 0.0292874 0
880 1 0.16092 0.005284 0
9 1 0.175134 0.023139 0
40 1 0.190273 0.0403305 0
10 1 0.19502 0.0162654 0
41 1 0.209296 0.0336554 0
12 1 0.21503 0.0101303 0
14 1 0.229545 0.0276099 0
13 1 0.23433 0.00349293 0
45 1 0.243871 0.0451971 0
15 1 0.249091 0.0221136 0
46 1 0.268416 0.0159696 0
77 1 0.272397 0.041248 0
47 1 0.287338 0.0238007 0
19 1 0.301158 0.00532737 0
49 1 0.307071 0.0295866 0
20 1 0.321259 0.0109263 0
51 1 0.326907 0.0362677 0
21 1 0.341005 0.0186595 0
22 1 0.346851 0.0427443 0
1084 1 0.499944 0.228609 0
23 1 0.361706 0.0238527 0
894 1 0.376157 0.00672558 0
24 1 0.381765 0.0318989 0
25 1 0.395355 0.0137972 0
26 1 0.401571 0.0384365 0
27 1 0.415204 0.0206155 0
28 1 0.421229 0.0441779 0
29 1 0.43572 0.0267667 0
900 1 0.450237 0.00835032 0
30 1 0.456382 0.0320349 0
898 1 0.429832 0.00246211 0
902 1 0.490601 0.0205638 0
901 1 0.470244 0.0132899 0
931 1 0.47625 0.0383596 0
988 1 0.0190863 0.0785879 0
958 1 0.0230631 0.0544295 0
987 1 0.00329055 0.0618511 0
989 1 0.0385125 0.0708761 0
960 1 0.0430272 0.0468016 0
61 1 0.0575311 0.0636622 0
990 1 0.0528185 0.0890134 0
62 1 0.0724813 0.0812047 0
32 1 0.0771888 0.0574577 0
63 1 0.0922956 0.0757544 0
34 1 0.0978921 0.0500607 0
65 1 0.112065 0.0679235 0
66 1 0.126109 0.0857732 0
36 1 0.13109 0.0607504 0
67 1 0.14556 0.0778822 0
38 1 0.150663 0.0528787 0
69 1 0.170463 0.0477618 0
68 1 0.164958 0.0715931 0
71 1 0.184591 0.0644953 0
70 1 0.180548 0.0892085 0
72 1 0.200487 0.0818724 0
42 1 0.204868 0.0575636 0
43 1 0.224228 0.0508703 0
73 1 0.220033 0.074775 0
44 1 0.240191 0.0692923 0
105 1 0.23414 0.0924361 0
74 1 0.264222 0.085529 0
75 1 0.259497 0.0608667 0
76 1 0.279033 0.0676174 0
48 1 0.293061 0.048679 0
79 1 0.298427 0.0735243 0
50 1 0.313172 0.0549055 0
81 1 0.318557 0.0793507 0
52 1 0.332269 0.0607935 0
82 1 0.338167 0.0863632 0
83 1 0.352117 0.0678215 0
53 1 0.366449 0.0494005 0
54 1 0.372173 0.0742223 0
55 1 0.38712 0.0562043 0
56 1 0.392312 0.0802329 0
57 1 0.406317 0.0625388 0
87 1 0.411984 0.0865803 0
58 1 0.426186 0.0683554 0
59 1 0.441058 0.0514085 0
89 1 0.445967 0.074954 0
60 1 0.461724 0.056344 0
933 1 0.495975 0.0459889 0
932 1 0.481023 0.0635779 0
961 1 0.46669 0.0806604 0
962 1 0.486717 0.0881297 0
1047 1 0.0083632 0.127572 0
1019 1 0.0334772 0.0959257 0
1049 1 0.0280686 0.121183 0
1018 1 0.0142079 0.102993 0
1020 1 0.0477816 0.115021 0
121 1 0.0623511 0.132429 0
91 1 0.0670877 0.106073 0
92 1 0.0814769 0.123142 0
93 1 0.0863606 0.0992604 0
94 1 0.101879 0.11658 0
64 1 0.106337 0.0923402 0
125 1 0.115566 0.134329 0
95 1 0.121579 0.109491 0
96 1 0.13628 0.126889 0
97 1 0.1405 0.102314 0
98 1 0.155356 0.120431 0
99 1 0.160757 0.0956076 0
100 1 0.175636 0.113314 0
130 1 0.190798 0.130388 0
101 1 0.195589 0.106208 0
102 1 0.209554 0.123275 0
103 1 0.21516 0.0995218 0
104 1 0.230151 0.118061 0
78 1 0.283833 0.0913609 0
106 1 0.250472 0.105292 0
137 1 0.255499 0.128963 0
107 1 0.270157 0.109391 0
108 1 0.275634 0.132996 0
109 1 0.290286 0.115995 0
80 1 0.304344 0.0983446 0
110 1 0.309555 0.122211 0
111 1 0.323475 0.105112 0
141 1 0.329407 0.12814 0
113 1 0.343916 0.11111 0
143 1 0.349 0.135646 0
84 1 0.357561 0.0932886 0
112 1 0.363773 0.117299 0
85 1 0.378253 0.0986877 0
115 1 0.383994 0.122674 0
86 1 0.397715 0.104508 0
116 1 0.404279 0.129669 0
117 1 0.418038 0.110579 0
88 1 0.432205 0.0925196 0
119 1 0.437652 0.116015 0
90 1 0.452151 0.0988268 0
120 1 0.457324 0.122302 0
991 1 0.471919 0.105659 0
992 1 0.47874 0.130229 0
993 1 0.492791 0.111463 0
1048 1 0.0230138 0.145314 0
1077 1 0.0183486 0.170437 0
1046 1 0.00416244 0.153326 0
1079 1 0.0377504 0.1637 0
1050 1 0.0427633 0.140068 0
151 1 0.0572637 0.156719 0
152 1 0.0717647 0.174499 0
122 1 0.0763306 0.149701 0
153 1 0.0913746 0.166677 0
123 1 0.0958495 0.141902 0
124 1 0.111209 0.159022 0
155 1 0.126159 0.175046 0
126 1 0.130697 0.150138 0
157 1 0.14539 0.168442 0
127 1 0.151551 0.144626 0
129 1 0.170654 0.13711 0
128 1 0.16589 0.162853 0
159 1 0.18548 0.153737 0
132 1 0.192724 0.176342 0
131 1 0.206164 0.156698 0
133 1 0.222088 0.142316 0
134 1 0.227601 0.165523 0
135 1 0.241583 0.146888 0
165 1 0.247557 0.170312 0
136 1 0.261907 0.152566 0
167 1 0.267252 0.178135 0
138 1 0.280933 0.157852 0
139 1 0.294966 0.14012 0
169 1 0.300093 0.164751 0
140 1 0.315079 0.147091 0
171 1 0.31991 0.170355 0
142 1 0.334737 0.153446 0
172 1 0.340537 0.177455 0
173 1 0.354987 0.159511 0
114 1 0.369154 0.140907 0
144 1 0.374581 0.165601 0
145 1 0.389405 0.146958 0
118 1 0.423863 0.135063 0
146 1 0.394408 0.170584 0
147 1 0.409558 0.153485 0
177 1 0.414431 0.176997 0
148 1 0.429719 0.15896 0
149 1 0.443773 0.140366 0
150 1 0.448908 0.16684 0
1021 1 0.463582 0.148044 0
1051 1 0.468877 0.172375 0
1022 1 0.484108 0.155202 0
1053 1 0.489376 0.179792 0
1023 1 0.498399 0.136944 0
1076 1 0.0131325 0.195628 0
1107 1 0.0290225 0.2126 0
1078 1 0.033127 0.188425 0
1106 1 0.00972259 0.220797 0
1080 1 0.0525061 0.182262 0
1109 1 0.0502551 0.208416 0
181 1 0.0689872 0.199542 0
182 1 0.075659 0.222645 0
183 1 0.0876713 0.191798 0
185 1 0.103364 0.208662 0
154 1 0.107197 0.183439 0
156 1 0.122432 0.199039 0
186 1 0.131005 0.221647 0
158 1 0.142979 0.202028 0
160 1 0.158743 0.186315 0
189 1 0.163542 0.211175 0
161 1 0.178214 0.193694 0
163 1 0.212544 0.181409 0
191 1 0.184007 0.217493 0
162 1 0.198262 0.200548 0
192 1 0.203421 0.225314 0
193 1 0.218043 0.206932 0
164 1 0.23298 0.189122 0
195 1 0.238131 0.212849 0
166 1 0.252578 0.195142 0
196 1 0.258332 0.220084 0
197 1 0.272567 0.201703 0
198 1 0.27732 0.226564 0
168 1 0.286337 0.183503 0
199 1 0.291753 0.20847 0
170 1 0.306754 0.189696 0
200 1 0.31213 0.214029 0
201 1 0.326845 0.196098 0
202 1 0.332022 0.220047 0
203 1 0.346423 0.202062 0
174 1 0.359839 0.1839 0
204 1 0.366828 0.209041 0
175 1 0.379882 0.189151 0
205 1 0.3864 0.21368 0
176 1 0.400504 0.195012 0
207 1 0.405725 0.220512 0
178 1 0.420371 0.201983 0
179 1 0.434564 0.184155 0
209 1 0.4395 0.208898 0
180 1 0.454703 0.192047 0
1081 1 0.459772 0.216795 0
1052 1 0.475162 0.197837 0
1082 1 0.479436 0.221922 0
1083 1 0.494773 0.204051 0
1108 1 0.0248568 0.249982 0
1137 1 0.0118622 0.269143 0
1136 1 0.00477038 0.245337 0
1110 1 0.0412954 0.232855 0
1140 1 0.0458689 0.257564 0
211 1 0.0611069 0.239752 0
212 1 0.0656919 0.265581 0
213 1 0.0809067 0.247672 0
184 1 0.0958439 0.230739 0
214 1 0.0999647 0.256112 0
215 1 0.115102 0.239247 0
216 1 0.120017 0.26399 0
217 1 0.134077 0.24687 0
218 1 0.139843 0.271207 0
187 1 0.149974 0.229779 0
188 1 0.154485 0.253232 0
190 1 0.169743 0.235706 0
220 1 0.174304 0.260166 0
221 1 0.189597 0.241823 0
222 1 0.194328 0.265782 0
223 1 0.2091 0.249375 0
253 1 0.213621 0.272762 0
194 1 0.22394 0.23155 0
224 1 0.228774 0.255205 0
225 1 0.243227 0.237877 0
226 1 0.248204 0.262763 0
227 1 0.262328 0.244945 0
257 1 0.268059 0.268217 0
228 1 0.282615 0.25044 0
229 1 0.297196 0.232973 0
230 1 0.302412 0.256562 0
231 1 0.31785 0.23829 0
233 1 0.351975 0.226075 0
261 1 0.322811 0.262765 0
232 1 0.337706 0.244477 0
263 1 0.342838 0.269399 0
234 1 0.357946 0.251247 0
235 1 0.372387 0.233183 0
265 1 0.377728 0.256999 0
206 1 0.391652 0.239359 0
208 1 0.426188 0.226126 0
236 1 0.397267 0.263675 0
237 1 0.411914 0.244498 0
238 1 0.41683 0.269699 0
239 1 0.431705 0.251569 0
210 1 0.445506 0.233446 0
240 1 0.450957 0.258864 0
1111 1 0.465839 0.240952 0
1112 1 0.47076 0.265819 0
1113 1 0.485646 0.247928 0
1142 1 0.491346 0.272424 0
1138 1 0.0162931 0.294398 0
1139 1 0.0316156 0.276285 0
1197 1 0.00198869 0.312001 0
1169 1 0.0354886 0.301255 0
241 1 0.0506618 0.283305 0
271 1 0.0551726 0.307411 0
242 1 0.070048 0.291037 0
243 1 0.0846915 0.27411 0
273 1 0.0753255 0.315148 0
244 1 0.0897799 0.298273 0
245 1 0.104638 0.280742 0
246 1 0.109899 0.304883 0
247 1 0.124391 0.287395 0
248 1 0.129686 0.313572 0
249 1 0.143892 0.295436 0
219 1 0.159472 0.277563 0
250 1 0.163943 0.301969 0
251 1 0.178916 0.283534 0
281 1 0.183962 0.308641 0
252 1 0.199454 0.291246 0
283 1 0.203978 0.315665 0
254 1 0.218782 0.298042 0
255 1 0.233672 0.279867 0
285 1 0.238376 0.30393 0
256 1 0.254019 0.286433 0
287 1 0.258568 0.310954 0
258 1 0.274017 0.291857 0
288 1 0.27882 0.317213 0
259 1 0.288872 0.274684 0
289 1 0.293829 0.299328 0
260 1 0.308349 0.280604 0
291 1 0.313051 0.305851 0
262 1 0.328282 0.287449 0
292 1 0.333214 0.312014 0
293 1 0.347999 0.294392 0
294 1 0.353507 0.319115 0
264 1 0.363045 0.275281 0
295 1 0.36759 0.300285 0
266 1 0.381688 0.282063 0
297 1 0.388434 0.305994 0
267 1 0.402178 0.287459 0
298 1 0.407831 0.312379 0
268 1 0.42197 0.293633 0
269 1 0.436977 0.276132 0
270 1 0.441764 0.301511 0
1141 1 0.455752 0.283542 0
300 1 0.462437 0.30764 0
1171 1 0.476882 0.289719 0
1172 1 0.482153 0.313848 0
1173 1 0.49679 0.296913 0
1168 1 0.0214591 0.319206 0
1199 1 0.0267568 0.345158 0
1198 1 0.00672029 0.336423 0
1228 1 0.0111114 0.361226 0
1170 1 0.0408898 0.326113 0
1229 1 0.0460653 0.350791 0
1200 1 0.0600937 0.332466 0
301 1 0.0657896 0.357808 0
272 1 0.0801773 0.340659 0
275 1 0.0950783 0.323652 0
274 1 0.100328 0.346656 0
276 1 0.114793 0.329997 0
305 1 0.119276 0.354207 0
277 1 0.134393 0.338224 0
307 1 0.13997 0.362535 0
279 1 0.149413 0.32011 0
278 1 0.154668 0.344386 0
280 1 0.169071 0.32603 0
311 1 0.17432 0.351291 0
282 1 0.189135 0.33322 0
312 1 0.194566 0.358248 0
313 1 0.209653 0.339349 0
314 1 0.214077 0.363477 0
284 1 0.224342 0.321419 0
315 1 0.229261 0.346113 0
286 1 0.244017 0.328271 0
316 1 0.249645 0.3525 0
317 1 0.264529 0.335301 0
318 1 0.269919 0.359567 0
319 1 0.284081 0.341485 0
290 1 0.298236 0.323694 0
320 1 0.303183 0.347841 0
321 1 0.318575 0.329484 0
322 1 0.323844 0.354016 0
323 1 0.338663 0.336141 0
324 1 0.342938 0.360849 0
325 1 0.358117 0.342497 0
296 1 0.373483 0.324195 0
326 1 0.377815 0.348009 0
327 1 0.393101 0.33122 0
328 1 0.398357 0.354877 0
329 1 0.413172 0.336938 0
358 1 0.418227 0.361943 0
299 1 0.427318 0.318896 0
359 1 0.432769 0.343348 0
330 1 0.447595 0.326595 0
360 1 0.452499 0.350782 0
1202 1 0.486514 0.338659 0
1201 1 0.467066 0.33243 0
1231 1 0.472026 0.356203 0
1233 1 0.492418 0.363026 0
1287 1 0.00273405 0.404388 0
1259 1 0.0314892 0.368766 0
1258 1 0.0165638 0.386007 0
1260 1 0.0365467 0.392932 0
1230 1 0.050807 0.376041 0
331 1 0.0556494 0.400857 0
302 1 0.0704401 0.383072 0
303 1 0.0853665 0.365539 0
332 1 0.0760088 0.407391 0
333 1 0.091241 0.391041 0
304 1 0.105649 0.372098 0
335 1 0.110789 0.397252 0
306 1 0.125205 0.379344 0
337 1 0.13044 0.40476 0
308 1 0.145457 0.387347 0
309 1 0.159344 0.369034 0
339 1 0.165882 0.393115 0
310 1 0.180708 0.375729 0
341 1 0.185651 0.39973 0
343 1 0.200213 0.382647 0
342 1 0.205596 0.406586 0
344 1 0.220387 0.388471 0
345 1 0.234734 0.369982 0
346 1 0.240567 0.394813 0
347 1 0.254774 0.377264 0
377 1 0.260328 0.40273 0
348 1 0.273586 0.384582 0
378 1 0.280172 0.40915 0
349 1 0.288743 0.367051 0
350 1 0.294978 0.391427 0
351 1 0.310119 0.372698 0
381 1 0.314712 0.397162 0
353 1 0.329562 0.378412 0
352 1 0.334313 0.402764 0
354 1 0.349323 0.384562 0
385 1 0.354435 0.409045 0
355 1 0.36377 0.367253 0
356 1 0.368941 0.391403 0
357 1 0.383864 0.373076 0
386 1 0.3893 0.397521 0
387 1 0.403387 0.378843 0
388 1 0.409067 0.403998 0
389 1 0.423006 0.386234 0
1232 1 0.437923 0.367943 0
1261 1 0.442887 0.392051 0
1262 1 0.457994 0.374199 0
1293 1 0.462643 0.399355 0
1263 1 0.477634 0.38111 0
1294 1 0.482752 0.405917 0
1264 1 0.496763 0.387427 0
1289 1 0.0224185 0.411002 0
1319 1 0.0265094 0.436396 0
1288 1 0.00669137 0.429825 0
1318 1 0.011387 0.454017 0
1290 1 0.0414758 0.419191 0
391 1 0.0465913 0.443367 0
361 1 0.0612864 0.42664 0
362 1 0.0657118 0.450987 0
363 1 0.0810392 0.43225 0
334 1 0.0957638 0.415103 0
365 1 0.100304 0.439862 0
336 1 0.115361 0.421973 0
366 1 0.120473 0.446072 0
367 1 0.135758 0.428849 0
368 1 0.141139 0.452946 0
338 1 0.150595 0.412185 0
369 1 0.156694 0.43527 0
340 1 0.170363 0.417752 0
370 1 0.176267 0.441374 0
371 1 0.191019 0.423698 0
401 1 0.195703 0.448627 0
372 1 0.210078 0.430721 0
373 1 0.224758 0.412929 0
374 1 0.230554 0.438198 0
375 1 0.244507 0.419636 0
403 1 0.215024 0.455216 0
405 1 0.250401 0.443971 0
376 1 0.265671 0.426385 0
407 1 0.270154 0.450237 0
409 1 0.28488 0.433259 0
379 1 0.299298 0.415021 0
380 1 0.306033 0.438164 0
382 1 0.320758 0.420836 0
413 1 0.325712 0.445492 0
383 1 0.340327 0.426586 0
412 1 0.345142 0.451022 0
414 1 0.359997 0.43413 0
384 1 0.373932 0.415402 0
415 1 0.379115 0.439864 0
417 1 0.393764 0.422178 0
416 1 0.399477 0.447547 0
418 1 0.413472 0.429339 0
447 1 0.41934 0.453717 0
419 1 0.428479 0.410611 0
390 1 0.433536 0.435306 0
1291 1 0.448026 0.416879 0
1321 1 0.453799 0.441544 0
1323 1 0.488106 0.430136 0
1292 1 0.468212 0.423702 0
1322 1 0.473663 0.448216 0
1324 1 0.493893 0.456146 0
1320 1 0.0320578 0.460476 0
1349 1 0.0172161 0.477512 0
1379 1 0.0029952 0.494408 0
421 1 0.0365751 0.48638 0
392 1 0.051364 0.468545 0
422 1 0.0562244 0.493849 0
393 1 0.0709882 0.475539 0
364 1 0.0855398 0.458007 0
394 1 0.0900912 0.482916 0
395 1 0.105666 0.46493 0
1353 1 0.478876 0.472724 0
396 1 0.110361 0.488903 0
397 1 0.125855 0.471091 0
427 1 0.130844 0.495358 0
398 1 0.145639 0.477969 0
399 1 0.160853 0.460341 0
429 1 0.165159 0.485207 0
400 1 0.180469 0.467784 0
431 1 0.185115 0.491497 0
402 1 0.200289 0.472974 0
432 1 0.205434 0.497342 0
433 1 0.220294 0.479435 0
404 1 0.235004 0.46179 0
435 1 0.239894 0.485813 0
406 1 0.255757 0.468155 0
436 1 0.259752 0.492426 0
408 1 0.275474 0.474199 0
439 1 0.280223 0.498595 0
410 1 0.289844 0.455777 0
441 1 0.294775 0.480561 0
411 1 0.309615 0.462909 0
440 1 0.314279 0.488088 0
442 1 0.329515 0.469651 0
471 1 0.33532 0.494062 0
473 1 0.349763 0.474898 0
443 1 0.365291 0.458183 0
444 1 0.369336 0.482718 0
445 1 0.384944 0.465271 0
475 1 0.389883 0.488764 0
446 1 0.404785 0.471584 0
477 1 0.409846 0.495027 0
448 1 0.42432 0.477922 0
450 1 0.458746 0.465976 0
449 1 0.44448 0.484026 0
420 1 0.439188 0.459571 0
1351 1 0.464039 0.490492 0
1352 1 0.484597 0.49687 0
1354 1 0.498583 0.479904 0
1380 1 0.0262904 0.529509 0
1350 1 0.0214989 0.504216 0
451 1 0.0406493 0.511144 0
452 1 0.046206 0.536194 0
453 1 0.0606462 0.518734 0
454 1 0.0662877 0.542695 0
424 1 0.0807646 0.524962 0
425 1 0.0959921 0.507385 0
455 1 0.100827 0.531176 0
426 1 0.115937 0.512947 0
456 1 0.12197 0.536798 0
457 1 0.135917 0.519277 0
458 1 0.141945 0.544569 0
459 1 0.155544 0.527098 0
430 1 0.170338 0.509002 0
460 1 0.175676 0.532513 0
428 1 0.15056 0.502543 0
461 1 0.191789 0.514673 0
462 1 0.196004 0.539172 0
463 1 0.211062 0.522417 0
434 1 0.225463 0.503209 0
464 1 0.230387 0.528457 0
465 1 0.245224 0.509975 0
466 1 0.25053 0.536171 0
437 1 0.264596 0.517122 0
497 1 0.270565 0.541133 0
467 1 0.285443 0.523605 0
438 1 0.300184 0.505593 0
468 1 0.305348 0.529254 0
469 1 0.320219 0.511894 0
499 1 0.325743 0.535997 0
470 1 0.33983 0.518075 0
501 1 0.345625 0.54168 0
472 1 0.355544 0.500049 0
503 1 0.360461 0.524377 0
474 1 0.374958 0.50653 0
505 1 0.380788 0.530846 0
476 1 0.394919 0.512859 0
506 1 0.401092 0.538952 0
507 1 0.414644 0.518919 0
509 1 0.420893 0.544866 0
480 1 0.434702 0.525712 0
479 1 0.449445 0.508187 0
510 1 0.45439 0.532318 0
478 1 0.429952 0.501911 0
1382 1 0.489434 0.522257 0
1381 1 0.46969 0.515044 0
1411 1 0.474203 0.539618 0
1409 1 0.0120798 0.54896 0
481 1 0.0318504 0.553428 0
1408 1 0.0168692 0.573623 0
1410 1 0.0376392 0.578883 0
483 1 0.0517782 0.560685 0
482 1 0.056985 0.584685 0
485 1 0.0857881 0.549208 0
513 1 0.0710063 0.56736 0
484 1 0.0914398 0.573825 0
514 1 0.0769337 0.591995 0
486 1 0.107013 0.555242 0
515 1 0.111833 0.58009 0
487 1 0.126806 0.562392 0
517 1 0.132569 0.586171 0
488 1 0.146645 0.568551 0
489 1 0.161766 0.551552 0
490 1 0.167118 0.576034 0
491 1 0.182232 0.557361 0
521 1 0.186927 0.581369 0
492 1 0.201476 0.564639 0
523 1 0.207099 0.588416 0
493 1 0.216875 0.546564 0
494 1 0.222248 0.570813 0
495 1 0.236556 0.553349 0
525 1 0.242533 0.577218 0
496 1 0.256802 0.559649 0
526 1 0.26229 0.583637 0
527 1 0.276968 0.566313 0
528 1 0.283497 0.589831 0
498 1 0.29138 0.547576 0
529 1 0.29697 0.571825 0
500 1 0.311259 0.552747 0
530 1 0.317228 0.578071 0
531 1 0.330868 0.560204 0
532 1 0.33763 0.583961 0
533 1 0.351439 0.566112 0
502 1 0.36592 0.548686 0
534 1 0.371255 0.572816 0
504 1 0.385306 0.555304 0
535 1 0.391323 0.57961 0
508 1 0.405793 0.562655 0
537 1 0.411283 0.586393 0
539 1 0.425846 0.568303 0
540 1 0.440617 0.550593 0
569 1 0.445391 0.574766 0
1441 1 0.46043 0.558029 0
1413 1 0.49438 0.547172 0
1443 1 0.484976 0.588463 0
1442 1 0.465396 0.581759 0
1412 1 0.480109 0.564709 0
1439 1 0.0234704 0.597402 0
1440 1 0.0218822 0.624321 0
1438 1 0.00583462 0.607834 0
1774 1 0.499327 0.978512 0
511 1 0.0429927 0.604146 0
541 1 0.0489778 0.626801 0
512 1 0.0632712 0.609383 0
542 1 0.0685048 0.634081 0
543 1 0.0834992 0.616324 0
545 1 0.0974371 0.598596 0
546 1 0.103207 0.622388 0
516 1 0.11763 0.604469 0
547 1 0.123404 0.629448 0
518 1 0.137355 0.611276 0
577 1 0.143273 0.634855 0
519 1 0.151696 0.593129 0
548 1 0.158314 0.617338 0
520 1 0.172253 0.60022 0
549 1 0.178558 0.623988 0
522 1 0.192963 0.606297 0
551 1 0.198996 0.630663 0
553 1 0.213229 0.612408 0
524 1 0.227559 0.594971 0
554 1 0.233032 0.619164 0
555 1 0.247864 0.601922 0
552 1 0.218688 0.637599 0
556 1 0.25426 0.625408 0
557 1 0.268678 0.607334 0
587 1 0.273396 0.631928 0
558 1 0.288094 0.614325 0
559 1 0.30298 0.596346 0
560 1 0.308646 0.619404 0
561 1 0.323308 0.601948 0
591 1 0.328261 0.626089 0
562 1 0.342796 0.608734 0
564 1 0.348513 0.632997 0
563 1 0.356824 0.590963 0
565 1 0.362571 0.615456 0
536 1 0.376985 0.597271 0
566 1 0.381996 0.622378 0
567 1 0.397594 0.603585 0
597 1 0.401648 0.62883 0
568 1 0.416424 0.610809 0
599 1 0.42194 0.634775 0
538 1 0.431559 0.593118 0
600 1 0.435733 0.618156 0
570 1 0.451108 0.599955 0
1501 1 0.455686 0.624256 0
1471 1 0.47013 0.607281 0
1472 1 0.475746 0.630955 0
1473 1 0.49002 0.612756 0
1529 1 0.00980004 0.674066 0
1470 1 0.0344074 0.643943 0
1500 1 0.0301663 0.66822 0
1499 1 0.0153092 0.650388 0
571 1 0.0532285 0.650882 0
572 1 0.0598051 0.674128 0
573 1 0.0739267 0.657715 0
544 1 0.0883831 0.640757 0
574 1 0.0939814 0.666029 0
575 1 0.108049 0.647341 0
605 1 0.11387 0.671598 0
576 1 0.128358 0.654874 0
607 1 0.133805 0.677318 0
578 1 0.149109 0.658907 0
579 1 0.163894 0.641957 0
609 1 0.168934 0.665675 0
550 1 0.18401 0.647631 0
580 1 0.188515 0.672575 0
581 1 0.203043 0.654934 0
611 1 0.20866 0.678848 0
582 1 0.22451 0.660883 0
583 1 0.239437 0.643635 0
584 1 0.244268 0.66756 0
585 1 0.258798 0.650537 0
615 1 0.264612 0.674601 0
586 1 0.279325 0.656989 0
617 1 0.284624 0.681005 0
589 1 0.293757 0.637829 0
588 1 0.299247 0.66234 0
590 1 0.31329 0.644043 0
621 1 0.318684 0.668796 0
593 1 0.333416 0.650921 0
592 1 0.339205 0.676056 0
594 1 0.3541 0.658351 0
595 1 0.368136 0.639742 0
625 1 0.373491 0.664906 0
596 1 0.387468 0.647336 0
627 1 0.393054 0.671071 0
598 1 0.407746 0.652484 0
657 1 0.412903 0.677368 0
628 1 0.427768 0.660087 0
629 1 0.44167 0.6416 0
630 1 0.447377 0.6672 0
1502 1 0.461396 0.648557 0
1474 1 0.495913 0.637211 0
1503 1 0.481008 0.655499 0
1533 1 0.466731 0.672709 0
1504 1 0.487065 0.67936 0
1559 1 0.00435493 0.698819 0
1530 1 0.024045 0.692696 0
1560 1 0.0196108 0.716356 0
631 1 0.0395905 0.709615 0
601 1 0.0436319 0.686596 0
602 1 0.0614605 0.699827 0
632 1 0.0547384 0.72582 0
603 1 0.0789829 0.683424 0
633 1 0.0834251 0.707892 0
604 1 0.0991796 0.690005 0
635 1 0.103627 0.714332 0
606 1 0.119491 0.695624 0
636 1 0.123159 0.720069 0
637 1 0.14013 0.700979 0
608 1 0.154694 0.682699 0
638 1 0.159082 0.707275 0
639 1 0.174199 0.689179 0
667 1 0.144648 0.725782 0
641 1 0.178854 0.714419 0
610 1 0.194508 0.696272 0
642 1 0.199129 0.720905 0
612 1 0.214312 0.703019 0
613 1 0.22943 0.685705 0
643 1 0.234245 0.709802 0
614 1 0.249637 0.692078 0
645 1 0.253108 0.716612 0
616 1 0.269585 0.699465 0
647 1 0.274113 0.723518 0
618 1 0.28863 0.705761 0
619 1 0.304769 0.686778 0
620 1 0.30909 0.712197 0
622 1 0.324572 0.693754 0
651 1 0.329425 0.717962 0
653 1 0.344223 0.700339 0
654 1 0.348724 0.72554 0
623 1 0.35907 0.682495 0
624 1 0.364111 0.70746 0
626 1 0.378553 0.688176 0
655 1 0.38382 0.711999 0
656 1 0.398564 0.695325 0
686 1 0.403317 0.719666 0
658 1 0.418027 0.702068 0
659 1 0.432283 0.684123 0
660 1 0.438123 0.708516 0
1531 1 0.452658 0.691567 0
1561 1 0.458453 0.715254 0
1532 1 0.472338 0.697324 0
1563 1 0.478563 0.721443 0
1534 1 0.493403 0.703433 0
1619 1 0.0102191 0.764784 0
1589 1 0.0135392 0.740913 0
1590 1 0.0295335 0.758553 0
661 1 0.0336958 0.733737 0
663 1 0.0497186 0.750021 0
662 1 0.0658292 0.766922 0
664 1 0.0696217 0.741397 0
695 1 0.0858119 0.758085 0
634 1 0.088095 0.731627 0
665 1 0.10847 0.738538 0
697 1 0.115104 0.764412 0
666 1 0.129897 0.744375 0
668 1 0.136686 0.767405 0
669 1 0.15008 0.748801 0
640 1 0.164113 0.731185 0
670 1 0.170641 0.754821 0
671 1 0.185814 0.738199 0
672 1 0.190931 0.762756 0
673 1 0.205844 0.745503 0
703 1 0.211249 0.770391 0
644 1 0.219185 0.72718 0
674 1 0.225413 0.751948 0
675 1 0.239359 0.734148 0
705 1 0.244654 0.759435 0
646 1 0.25942 0.741314 0
677 1 0.265584 0.766563 0
648 1 0.279366 0.747985 0
678 1 0.285823 0.772042 0
649 1 0.294836 0.730887 0
679 1 0.299452 0.754858 0
650 1 0.314582 0.736523 0
681 1 0.319151 0.761299 0
652 1 0.333959 0.743379 0
682 1 0.338885 0.767231 0
683 1 0.354369 0.750968 0
685 1 0.369615 0.731934 0
684 1 0.374864 0.756703 0
715 1 0.389873 0.73822 0
687 1 0.424388 0.726871 0
714 1 0.395051 0.762215 0
717 1 0.409623 0.743594 0
716 1 0.414178 0.76946 0
688 1 0.428722 0.750543 0
689 1 0.444121 0.733789 0
719 1 0.448735 0.757248 0
690 1 0.463751 0.738995 0
1591 1 0.469383 0.762931 0
1562 1 0.483822 0.745831 0
1593 1 0.488528 0.769674 0
1620 1 0.0255897 0.782719 0
1649 1 0.0188501 0.806301 0
1618 1 0.00378604 0.789202 0
691 1 0.045161 0.774544 0
721 1 0.0402224 0.799595 0
693 1 0.059842 0.791628 0
692 1 0.0546932 0.817244 0
723 1 0.075387 0.809845 0
694 1 0.0799865 0.784929 0
725 1 0.0951478 0.802447 0
696 1 0.0992801 0.778291 0
727 1 0.115719 0.79415 0
728 1 0.128587 0.816159 0
698 1 0.136676 0.791484 0
699 1 0.156401 0.773747 0
700 1 0.148157 0.811696 0
731 1 0.163473 0.796997 0
701 1 0.176093 0.779026 0
702 1 0.195941 0.78868 0
763 1 0.200894 0.814332 0
732 1 0.181638 0.806872 0
733 1 0.215773 0.795061 0
704 1 0.230465 0.776803 0
706 1 0.235658 0.801264 0
735 1 0.221144 0.820265 0
676 1 0.250842 0.784493 0
737 1 0.256473 0.809005 0
707 1 0.272016 0.790266 0
738 1 0.27707 0.814498 0
708 1 0.291374 0.797128 0
709 1 0.305338 0.7791 0
710 1 0.310786 0.803571 0
680 1 0.324939 0.785554 0
741 1 0.330726 0.810127 0
711 1 0.345757 0.791314 0
742 1 0.35016 0.816642 0
713 1 0.360644 0.774657 0
712 1 0.365528 0.799093 0
743 1 0.379272 0.781665 0
745 1 0.385446 0.805664 0
746 1 0.39916 0.787792 0
775 1 0.40617 0.812513 0
747 1 0.419262 0.793351 0
718 1 0.433874 0.775214 0
749 1 0.439512 0.800535 0
720 1 0.454067 0.781297 0
1621 1 0.459404 0.805865 0
1623 1 0.493096 0.795455 0
1592 1 0.473808 0.787703 0
1622 1 0.479316 0.813643 0
1650 1 0.0346519 0.823051 0
1709 1 0.0285328 0.847556 0
1679 1 0.0131231 0.831299 0
1678 1 0.00808954 0.854985 0
1680 1 0.0491166 0.841654 0
752 1 0.064452 0.858406 0
751 1 0.0698787 0.833692 0
753 1 0.0843257 0.851493 0
722 1 0.0897643 0.826845 0
724 1 0.104169 0.845104 0
726 1 0.10927 0.820968 0
757 1 0.124054 0.839442 0
756 1 0.138936 0.857978 0
755 1 0.11872 0.863912 0
729 1 0.144899 0.834937 0
759 1 0.160898 0.848692 0
730 1 0.165217 0.823925 0
761 1 0.185723 0.832151 0
792 1 0.192022 0.855914 0
762 1 0.205844 0.838198 0
764 1 0.212466 0.861498 0
734 1 0.227042 0.844801 0
736 1 0.242354 0.826593 0
765 1 0.247845 0.851035 0
767 1 0.262847 0.833977 0
766 1 0.267658 0.858455 0
768 1 0.282115 0.840356 0
739 1 0.296981 0.82137 0
769 1 0.302869 0.84721 0
740 1 0.316084 0.828199 0
797 1 0.287104 0.865123 0
770 1 0.322691 0.853998 0
771 1 0.336582 0.834507 0
801 1 0.342293 0.860534 0
773 1 0.356155 0.841072 0
744 1 0.37101 0.823471 0
803 1 0.376977 0.847694 0
774 1 0.39136 0.829394 0
748 1 0.4254 0.818408 0
776 1 0.396211 0.854724 0
777 1 0.410805 0.836186 0
778 1 0.416245 0.860898 0
779 1 0.430319 0.842944 0
750 1 0.44556 0.82554 0
780 1 0.45108 0.849771 0
1651 1 0.46589 0.831048 0
1652 1 0.470017 0.855419 0
1653 1 0.485406 0.838367 0
1683 1 0.49058 0.863053 0
903 1 0.485724 0.996105 0
1710 1 0.0229628 0.872282 0
1739 1 0.0179218 0.896851 0
1708 1 0.00321514 0.879276 0
811 1 0.0382105 0.889586 0
781 1 0.0434543 0.86523 0
782 1 0.0596933 0.883634 0
812 1 0.0524407 0.907249 0
813 1 0.0729449 0.901531 0
783 1 0.0784998 0.876162 0
784 1 0.0927986 0.8949 0
754 1 0.0985251 0.870739 0
785 1 0.113476 0.888963 0
786 1 0.127541 0.905787 0
787 1 0.133682 0.881071 0
788 1 0.148875 0.898824 0
758 1 0.153871 0.873835 0
760 1 0.173809 0.867984 0
789 1 0.169573 0.891771 0
791 1 0.190551 0.880827 0
790 1 0.183861 0.909494 0
823 1 0.203263 0.901575 0
793 1 0.219683 0.886319 0
795 1 0.232654 0.868742 0
794 1 0.239254 0.893035 0
796 1 0.253017 0.875675 0
825 1 0.259187 0.901438 0
827 1 0.272884 0.882453 0
826 1 0.27882 0.907874 0
798 1 0.293321 0.889594 0
799 1 0.307864 0.871266 0
829 1 0.313155 0.895929 0
800 1 0.327486 0.877978 0
831 1 0.333116 0.902126 0
802 1 0.347717 0.885237 0
833 1 0.354321 0.908962 0
772 1 0.361942 0.865664 0
804 1 0.36778 0.891407 0
805 1 0.381912 0.872491 0
806 1 0.388633 0.897723 0
807 1 0.401567 0.879108 0
837 1 0.408123 0.90418 0
808 1 0.422795 0.885595 0
809 1 0.436277 0.867431 0
810 1 0.442923 0.892057 0
1681 1 0.456362 0.874034 0
1711 1 0.462204 0.898987 0
1684 1 0.496014 0.887171 0
1682 1 0.475951 0.880754 0
1713 1 0.481594 0.904908 0
1740 1 0.0329413 0.914853 0
1769 1 0.0278758 0.938573 0
1738 1 0.0126704 0.921574 0
1768 1 0.00818199 0.946338 0
841 1 0.0478052 0.931406 0
842 1 0.0621695 0.94878 0
843 1 0.0671674 0.924465 0
844 1 0.0828356 0.942047 0
814 1 0.0882257 0.918138 0
845 1 0.102749 0.937077 0
815 1 0.107432 0.912515 0
846 1 0.117017 0.953974 0
816 1 0.122978 0.929474 0
847 1 0.137623 0.94716 0
817 1 0.14238 0.922015 0
818 1 0.15675 0.93883 0
819 1 0.163833 0.91537 0
820 1 0.177641 0.93299 0
851 1 0.191535 0.950242 0
821 1 0.198102 0.925884 0
822 1 0.211234 0.945137 0
824 1 0.223752 0.911826 0
853 1 0.229975 0.936076 0
855 1 0.244422 0.919077 0
854 1 0.248736 0.943746 0
856 1 0.264189 0.925531 0
885 1 0.270348 0.948885 0
857 1 0.285185 0.932399 0
828 1 0.298763 0.913439 0
859 1 0.304963 0.938107 0
830 1 0.319135 0.920354 0
860 1 0.32555 0.945171 0
832 1 0.339857 0.927132 0
861 1 0.345442 0.950946 0
863 1 0.360016 0.933528 0
834 1 0.37387 0.915261 0
865 1 0.379442 0.940269 0
835 1 0.393637 0.922256 0
836 1 0.39908 0.947261 0
838 1 0.413828 0.928419 0
867 1 0.418829 0.953437 0
839 1 0.427827 0.909722 0
869 1 0.433965 0.9347 0
840 1 0.447896 0.916345 0
1741 1 0.45367 0.941233 0
1743 1 0.487263 0.929122 0
1712 1 0.467831 0.923204 0
1742 1 0.473259 0.947122 0
1744 1 0.492852 0.954967 0
1799 1 0.0230114 0.963641 0
1798 1 0.0181949 0.989343 0
1797 1 0.0035406 0.971525 0
1800 1 0.0381382 0.981425 0
1770 1 0.0429416 0.955494 0
871 1 0.0578046 0.97365 0
1 1 0.0528823 0.99808 0
872 1 0.072894 0.991123 0
873 1 0.0768734 0.965686 0
874 1 0.0923725 0.983691 0
875 1 0.0967755 0.959928 0
876 1 0.111814 0.977585 0
7 1 0.126416 0.994968 0
877 1 0.131836 0.970187 0
878 1 0.146131 0.987879 0
848 1 0.15169 0.963289 0
849 1 0.171158 0.956771 0
879 1 0.166344 0.980133 0
850 1 0.185802 0.974087 0
11 1 0.199725 0.991726 0
852 1 0.206328 0.968643 0
881 1 0.180492 0.998746 0
883 1 0.227441 0.961106 0
882 1 0.220832 0.985163 0
884 1 0.24141 0.981078 0
886 1 0.256804 0.965726 0
16 1 0.260114 0.992129 0
17 1 0.275175 0.975092 0
1565 1 0.498303 0.726973 0
887 1 0.289821 0.956386 0
888 1 0.295679 0.979308 0
858 1 0.310739 0.962046 0
889 1 0.315257 0.986511 0
891 1 0.330755 0.969226 0
890 1 0.33563 0.993577 0
862 1 0.350394 0.975859 0
864 1 0.364375 0.957892 0
893 1 0.370026 0.98151 0
895 1 0.384413 0.963827 0
896 1 0.390001 0.988838 0
866 1 0.405229 0.971843 0
897 1 0.410045 0.995324 0
868 1 0.424174 0.978648 0
1772 1 0.464621 0.990152 0
899 1 0.444545 0.983736 0
1771 1 0.459015 0.965093 0
870 1 0.438576 0.959072 0
1773 1 0.478385 0.973067 0
1469 1 0.000442905 0.632315 0
1624 1 0.499115 0.820174 0
892 1 0.35556 0.99991 0
423 1 0.0758509 0.501062 0
18 1 0.281644 0.998004 0
904 1 0.510091 0.0258612 0
905 1 0.504802 0.00249001 0
906 1 0.524406 0.00950231 0
935 1 0.531125 0.0330367 0
908 1 0.544709 0.0148573 0
937 1 0.550209 0.038642 0
939 1 0.56461 0.0220073 0
940 1 0.58451 0.0294004 0
941 1 0.580188 0.00384914 0
942 1 0.789187 0.0257155 0
944 1 0.804388 0.0419597 0
943 1 0.808997 0.0179224 0
945 1 0.823724 0.0351484 0
914 1 0.828923 0.0105699 0
947 1 0.843385 0.0276581 0
916 1 0.849271 0.00346538 0
918 1 0.86452 0.0208526 0
949 1 0.878879 0.0384915 0
919 1 0.884283 0.0135629 0
948 1 0.858844 0.0451383 0
920 1 0.89884 0.0310071 0
1790 1 0.903689 0.00709971 0
951 1 0.91874 0.024879 0
952 1 0.933631 0.0413449 0
922 1 0.938279 0.0171287 0
953 1 0.953173 0.0337788 0
924 1 0.95856 0.0100728 0
955 1 0.973398 0.0270429 0
925 1 0.978708 0.00317719 0
926 1 0.993488 0.0200584 0
956 1 0.988295 0.0445684 0
963 1 0.50165 0.0700127 0
934 1 0.516046 0.0504349 0
965 1 0.52208 0.0752141 0
936 1 0.535949 0.0573821 0
966 1 0.541658 0.0809383 0
967 1 0.556126 0.0634495 0
968 1 0.561744 0.0890292 0
938 1 0.569943 0.0459162 0
969 1 0.576487 0.0703629 0
970 1 0.778426 0.0740122 0