ITEM: TIMESTEP
402000
ITEM: NUMBER OF ATOMS
1800
ITEM: BOX BOUNDS pp pp pp
-1.5006469205147010e+01 1.8000646920514893e+02
1.1826529217466231e+00 1.6381734707825530e+02
0.0000000000000000e+00 5.5000000000000000e+00
ITEM: ATOMS id type xs ys zs
929 1 0.0302117 0.00486559 0
959 1 0.0247017 0.0301661 0
928 1 0.0103029 0.012119 0
957 1 0.00500479 0.0371823 0
930 1 0.0444341 0.0232184 0
31 1 0.0586892 0.0393643 0
2 1 0.0643721 0.0158288 0
33 1 0.0787872 0.0325071 0
3 1 0.0848551 0.00801652 0
4 1 0.099342 0.0255661 0
5 1 0.104471 0.000906127 0
35 1 0.114796 0.0430122 0
6 1 0.118946 0.0184039 0
37 1 0.13427 0.0362822 0
8 1 0.139296 0.0119491 0
39 1 0.15534 0.0296111 0
880 1 0.159218 0.00499101 0
9 1 0.174853 0.022379 0
40 1 0.189603 0.0398604 0
10 1 0.194945 0.0153323 0
41 1 0.209589 0.0322079 0
12 1 0.214661 0.00768307 0
14 1 0.229686 0.0250843 0
13 1 0.235533 0.00120911 0
15 1 0.249142 0.0199864 0
46 1 0.268493 0.0161995 0
45 1 0.243502 0.0434309 0
77 1 0.273309 0.0422088 0
47 1 0.288402 0.0238514 0
19 1 0.302559 0.00530551 0
49 1 0.308183 0.0301904 0
20 1 0.321692 0.0115728 0
51 1 0.326894 0.0358184 0
21 1 0.342135 0.018751 0
22 1 0.347575 0.0428414 0
23 1 0.362353 0.0243576 0
894 1 0.377383 0.00645126 0
24 1 0.382652 0.0305432 0
25 1 0.398669 0.013553 0
26 1 0.402924 0.0376995 0
27 1 0.418459 0.0206189 0
28 1 0.42259 0.0451775 0
29 1 0.438328 0.027455 0
900 1 0.452756 0.00903419 0
30 1 0.458635 0.0330534 0
898 1 0.433246 0.00256131 0
902 1 0.49389 0.0207648 0
901 1 0.472815 0.0147961 0
931 1 0.478887 0.038696 0
988 1 0.0151683 0.0796448 0
989 1 0.034599 0.0723429 0
958 1 0.0192061 0.0544663 0
987 1 -0.000271081 0.0619517 0
960 1 0.0392082 0.0484773 0
61 1 0.05484 0.063415 0
62 1 0.069605 0.0826552 0
32 1 0.0748447 0.058149 0
990 1 0.0493607 0.0889972 0
63 1 0.0896791 0.0753324 0
34 1 0.0945242 0.0503122 0
65 1 0.108851 0.0674482 0
66 1 0.124929 0.0843148 0
36 1 0.129517 0.0601655 0
67 1 0.144925 0.0772592 0
38 1 0.149739 0.0532284 0
69 1 0.169873 0.0473325 0
68 1 0.164471 0.0707485 0
71 1 0.184369 0.064282 0
70 1 0.179504 0.0883678 0
72 1 0.19951 0.081359 0
42 1 0.204408 0.0566526 0
43 1 0.223982 0.0494117 0
73 1 0.21893 0.0737675 0
44 1 0.239194 0.0663768 0
74 1 0.261538 0.0852908 0
75 1 0.259029 0.0610106 0
76 1 0.278799 0.0674752 0
48 1 0.293064 0.0490405 0
79 1 0.298236 0.0737478 0
50 1 0.312996 0.0553044 0
81 1 0.318237 0.0791222 0
52 1 0.332924 0.0607261 0
82 1 0.338339 0.0858681 0
83 1 0.353146 0.0676306 0
53 1 0.367614 0.0485358 0
54 1 0.373238 0.0731345 0
55 1 0.389326 0.0553146 0
56 1 0.39315 0.0793384 0
57 1 0.408611 0.0624701 0
87 1 0.41322 0.0863215 0
58 1 0.428686 0.0691096 0
59 1 0.44392 0.0512018 0
89 1 0.449004 0.0749459 0
933 1 0.499027 0.044969 0
932 1 0.484071 0.063241 0
60 1 0.46404 0.0575039 0
961 1 0.469252 0.0815636 0
962 1 0.489157 0.0872699 0
1047 1 0.00537324 0.127853 0
1019 1 0.0302753 0.0967303 0
1049 1 0.025536 0.121173 0
1018 1 0.0104191 0.103324 0
1020 1 0.045098 0.114447 0
121 1 0.0606996 0.129867 0
91 1 0.0652134 0.107055 0
92 1 0.0808098 0.123503 0
93 1 0.0850876 0.0988769 0
64 1 0.105083 0.091923 0
94 1 0.10017 0.117353 0
125 1 0.115407 0.134082 0
95 1 0.120353 0.109769 0
96 1 0.134664 0.127123 0
97 1 0.13987 0.102622 0
98 1 0.154128 0.119158 0
99 1 0.158984 0.0947603 0
100 1 0.173814 0.112742 0
130 1 0.188993 0.129818 0
101 1 0.193865 0.105746 0
102 1 0.208822 0.121477 0
103 1 0.214681 0.0983684 0
104 1 0.22942 0.116647 0
105 1 0.233458 0.0896419 0
106 1 0.248798 0.106109 0
137 1 0.254489 0.129109 0
107 1 0.269583 0.110937 0
78 1 0.283641 0.0925014 0
109 1 0.290158 0.11538 0
80 1 0.304249 0.0978567 0
108 1 0.275645 0.134448 0
110 1 0.3098 0.122494 0
111 1 0.323982 0.103439 0
141 1 0.328721 0.128559 0
113 1 0.344554 0.110352 0
84 1 0.358513 0.0922393 0
112 1 0.364873 0.11615 0
85 1 0.378939 0.0977531 0
143 1 0.350534 0.134401 0
115 1 0.385031 0.122917 0
86 1 0.399011 0.104731 0
116 1 0.405746 0.128855 0
117 1 0.420866 0.111407 0
88 1 0.434086 0.0922536 0
119 1 0.440572 0.118031 0
90 1 0.454338 0.0999085 0
120 1 0.459855 0.125604 0
118 1 0.425518 0.135968 0
991 1 0.473798 0.106311 0
992 1 0.480247 0.131366 0
993 1 0.49433 0.111967 0
1023 1 0.499618 0.137371 0
1079 1 0.03626 0.163785 0
1048 1 0.0200173 0.147235 0
1077 1 0.0156315 0.171289 0
1046 1 0.000363664 0.152863 0
1050 1 0.040454 0.138803 0
151 1 0.0556072 0.157566 0
122 1 0.0755744 0.149477 0
152 1 0.0722289 0.174779 0
1080 1 0.0522922 0.181502 0
153 1 0.0910418 0.166119 0
123 1 0.0947463 0.141533 0
124 1 0.110264 0.159043 0
155 1 0.125567 0.176185 0
126 1 0.129861 0.150732 0
157 1 0.144583 0.16777 0
127 1 0.149659 0.144307 0
129 1 0.168769 0.137064 0
128 1 0.164503 0.162782 0
159 1 0.184291 0.153192 0
132 1 0.191919 0.176096 0
131 1 0.206093 0.15685 0
133 1 0.222404 0.139884 0
134 1 0.225771 0.164451 0
135 1 0.241335 0.147923 0
165 1 0.245532 0.171775 0
136 1 0.261037 0.153756 0
167 1 0.266275 0.177722 0
138 1 0.280669 0.159473 0
139 1 0.294659 0.140583 0
169 1 0.300925 0.164993 0
140 1 0.314746 0.147504 0
171 1 0.32087 0.170743 0
142 1 0.3352 0.151602 0
172 1 0.34118 0.17647 0
173 1 0.356298 0.158486 0
114 1 0.371192 0.141156 0
144 1 0.376313 0.16459 0
145 1 0.391162 0.146738 0
146 1 0.39549 0.172035 0
147 1 0.410689 0.15411 0
177 1 0.41523 0.17804 0
148 1 0.430527 0.160164 0
149 1 0.445216 0.143076 0
150 1 0.4505 0.167859 0
1051 1 0.470134 0.174474 0
1021 1 0.465434 0.150346 0
1022 1 0.485355 0.155613 0
1053 1 0.49067 0.180309 0
1076 1 0.0115924 0.195584 0
1107 1 0.0277982 0.212994 0
1078 1 0.0318337 0.188939 0
1106 1 0.00659924 0.219629 0
1109 1 0.0487675 0.216127 0
181 1 0.0665617 0.199315 0
182 1 0.0708742 0.22339 0
183 1 0.0869662 0.194617 0
154 1 0.105826 0.183975 0
185 1 0.10343 0.21183 0
156 1 0.122101 0.199741 0
186 1 0.126607 0.223101 0
158 1 0.141722 0.2044 0
160 1 0.157006 0.186979 0
189 1 0.161358 0.210712 0
161 1 0.176435 0.193048 0
191 1 0.181183 0.217996 0
163 1 0.21181 0.182884 0
162 1 0.196455 0.201801 0
192 1 0.201385 0.225322 0
193 1 0.217294 0.206862 0
164 1 0.231279 0.189522 0
195 1 0.236918 0.214428 0
166 1 0.251129 0.197145 0
196 1 0.257495 0.221118 0
168 1 0.286341 0.183664 0
197 1 0.271475 0.202966 0
199 1 0.291169 0.208453 0
198 1 0.278088 0.227045 0
170 1 0.306865 0.189577 0
200 1 0.311065 0.21373 0
201 1 0.326385 0.195743 0
202 1 0.331571 0.220012 0
203 1 0.346297 0.200414 0
174 1 0.361738 0.182597 0
204 1 0.367348 0.207 0
175 1 0.38145 0.1896 0
205 1 0.386946 0.215647 0
176 1 0.401148 0.196912 0
207 1 0.407194 0.2221 0
178 1 0.421074 0.202843 0
179 1 0.435106 0.184911 0
209 1 0.440817 0.210212 0
180 1 0.45573 0.191843 0
1081 1 0.461222 0.216402 0
1052 1 0.476075 0.197965 0
1082 1 0.482005 0.222461 0
1083 1 0.496483 0.204379 0
1110 1 0.0353024 0.236117 0
1108 1 0.0211819 0.254351 0
1137 1 0.00483381 0.268661 0
1136 1 0.00230252 0.24392 0
1140 1 0.0418497 0.259645 0
211 1 0.055183 0.241241 0
212 1 0.0613138 0.266939 0
213 1 0.0752326 0.24779 0
184 1 0.0910918 0.23236 0
214 1 0.0961257 0.255878 0
215 1 0.11106 0.238546 0
216 1 0.116241 0.264012 0
187 1 0.147094 0.228677 0
217 1 0.131115 0.247296 0
218 1 0.136237 0.271379 0
188 1 0.151397 0.253438 0
190 1 0.166203 0.235953 0
220 1 0.171174 0.260475 0
221 1 0.185477 0.242756 0
222 1 0.191582 0.266563 0
223 1 0.206344 0.249503 0
194 1 0.221824 0.231822 0
224 1 0.226584 0.255762 0
225 1 0.241877 0.238306 0
226 1 0.247329 0.26273 0
227 1 0.262019 0.245861 0
257 1 0.267542 0.269643 0
228 1 0.282805 0.251999 0
229 1 0.296941 0.233379 0
230 1 0.302738 0.257105 0
231 1 0.317933 0.238245 0
261 1 0.322456 0.263243 0
232 1 0.337965 0.245256 0
263 1 0.342743 0.268894 0
233 1 0.35211 0.225841 0
234 1 0.357714 0.251016 0
235 1 0.371694 0.232688 0
265 1 0.37685 0.257702 0
206 1 0.391935 0.239119 0
236 1 0.396535 0.264262 0
237 1 0.411752 0.246237 0
238 1 0.417334 0.270427 0
208 1 0.426836 0.228197 0
239 1 0.432221 0.252221 0
210 1 0.4466 0.234273 0
240 1 0.452163 0.257727 0
1111 1 0.467062 0.24081 0
1112 1 0.472257 0.266025 0
1113 1 0.487627 0.248335 0
1142 1 0.49154 0.272751 0
1138 1 0.0130584 0.296786 0
1139 1 0.0267356 0.278138 0
1169 1 0.0324208 0.302656 0
241 1 0.046687 0.283906 0
271 1 0.0516832 0.310076 0
242 1 0.0667941 0.291183 0
273 1 0.0720789 0.316621 0
243 1 0.0812528 0.272592 0
244 1 0.0876867 0.299325 0
245 1 0.100687 0.280376 0
246 1 0.107558 0.307134 0
247 1 0.120705 0.288969 0
248 1 0.127211 0.312507 0
249 1 0.1422 0.295591 0
219 1 0.156833 0.277363 0
250 1 0.161586 0.301262 0
251 1 0.176397 0.283797 0
281 1 0.181407 0.308848 0
253 1 0.211691 0.274281 0
252 1 0.196588 0.291347 0
283 1 0.201665 0.314925 0
254 1 0.217189 0.297638 0
255 1 0.231896 0.280059 0
285 1 0.237653 0.305077 0
256 1 0.252759 0.287435 0
287 1 0.257521 0.310958 0
259 1 0.287755 0.276192 0
258 1 0.272619 0.294386 0
289 1 0.292701 0.29974 0
288 1 0.277784 0.318736 0
260 1 0.306736 0.281541 0
291 1 0.313286 0.304976 0
262 1 0.327622 0.287397 0
292 1 0.33279 0.311926 0
293 1 0.347208 0.293475 0
264 1 0.362636 0.275681 0
295 1 0.367984 0.300184 0
266 1 0.382491 0.282985 0
297 1 0.387839 0.307231 0
267 1 0.402246 0.288046 0
298 1 0.407593 0.313945 0
268 1 0.421812 0.295374 0
269 1 0.437659 0.276424 0
270 1 0.443681 0.30107 0
1141 1 0.457615 0.283536 0
300 1 0.46349 0.308785 0
1171 1 0.477391 0.29104 0
1172 1 0.482943 0.315473 0
1173 1 0.498322 0.297486 0
1168 1 0.0175043 0.320684 0
1170 1 0.037104 0.327515 0
1199 1 0.0231402 0.344827 0
1228 1 0.00812897 0.362411 0
1198 1 0.00243955 0.338219 0
1229 1 0.0432975 0.352438 0
1200 1 0.057545 0.333815 0
301 1 0.063458 0.359231 0
272 1 0.0767973 0.341182 0
275 1 0.0922497 0.324454 0
274 1 0.0961719 0.348692 0
276 1 0.112531 0.330839 0
279 1 0.147037 0.320549 0
305 1 0.117666 0.355966 0
277 1 0.132074 0.338243 0
278 1 0.1531 0.344549 0
307 1 0.138025 0.362345 0
280 1 0.167286 0.326276 0
311 1 0.172875 0.35086 0
282 1 0.187079 0.332806 0
312 1 0.193425 0.358334 0
313 1 0.207423 0.339699 0
284 1 0.222173 0.322572 0
315 1 0.228124 0.346485 0
286 1 0.243652 0.328766 0
316 1 0.248417 0.352614 0
317 1 0.263477 0.336073 0
318 1 0.269219 0.360167 0
319 1 0.283952 0.341736 0
290 1 0.298805 0.323258 0
320 1 0.30427 0.348408 0
321 1 0.318241 0.330063 0
322 1 0.324602 0.355249 0
323 1 0.338178 0.336305 0
324 1 0.343903 0.362084 0
294 1 0.352813 0.318224 0
325 1 0.358197 0.343329 0
296 1 0.37374 0.32547 0
326 1 0.378423 0.349773 0
327 1 0.393377 0.332166 0
328 1 0.398065 0.35674 0
329 1 0.413777 0.338858 0
358 1 0.418507 0.363823 0
299 1 0.428811 0.319087 0
359 1 0.43435 0.343835 0
330 1 0.448563 0.325787 0
360 1 0.45439 0.352055 0
1202 1 0.488807 0.339999 0
1201 1 0.469083 0.333192 0
1231 1 0.474 0.357073 0
1233 1 0.494554 0.363758 0
1259 1 0.0278597 0.370758 0
1260 1 0.0338191 0.394971 0
1258 1 0.0131816 0.388206 0
1230 1 0.048084 0.377804 0
331 1 0.0538504 0.402114 0
302 1 0.0682376 0.383865 0
332 1 0.0745369 0.408779 0
303 1 0.0830355 0.366348 0
333 1 0.0891299 0.389791 0
304 1 0.103223 0.37231 0
335 1 0.108548 0.398333 0
306 1 0.122813 0.379996 0
337 1 0.12876 0.404377 0
308 1 0.143382 0.386673 0
309 1 0.158446 0.369023 0
339 1 0.163867 0.393431 0
310 1 0.178093 0.37513 0
341 1 0.183874 0.40041 0
314 1 0.213336 0.363794 0
343 1 0.198704 0.382252 0
342 1 0.203638 0.406069 0
344 1 0.218775 0.388601 0
345 1 0.233706 0.370705 0
346 1 0.239099 0.395969 0
347 1 0.253672 0.376975 0
377 1 0.260472 0.402261 0
349 1 0.288991 0.366982 0
348 1 0.274584 0.384442 0
350 1 0.295074 0.390798 0
378 1 0.279833 0.408993 0
351 1 0.309253 0.372387 0
381 1 0.314301 0.397452 0
353 1 0.328456 0.380332 0
352 1 0.332966 0.404598 0
354 1 0.348618 0.386904 0
355 1 0.363884 0.368055 0
356 1 0.368859 0.392555 0
357 1 0.383751 0.374757 0
386 1 0.389264 0.398255 0
387 1 0.404009 0.380861 0
388 1 0.409498 0.405451 0
389 1 0.423996 0.388213 0
1232 1 0.438642 0.368599 0
1261 1 0.44363 0.39421 0
1262 1 0.458344 0.375605 0
1293 1 0.463778 0.398995 0
1263 1 0.479571 0.381844 0
1294 1 0.483531 0.405596 0
1264 1 0.499103 0.387206 0
1289 1 0.0183501 0.411874 0
1319 1 0.0231092 0.435798 0
1318 1 0.0080423 0.454007 0
1288 1 0.00279095 0.428866 0
1290 1 0.038865 0.419106 0
391 1 0.0440121 0.443372 0
361 1 0.0584055 0.425936 0
362 1 0.0632969 0.449859 0
363 1 0.0783754 0.432611 0
334 1 0.0942667 0.416165 0
365 1 0.0991168 0.440393 0
336 1 0.114065 0.422207 0
338 1 0.148566 0.410965 0
366 1 0.11863 0.446257 0
367 1 0.134412 0.428423 0
369 1 0.154149 0.436715 0
340 1 0.168141 0.418514 0
370 1 0.174756 0.442814 0
371 1 0.18872 0.424995 0
401 1 0.19474 0.448253 0
372 1 0.208847 0.429705 0
373 1 0.223783 0.412545 0
374 1 0.228729 0.437117 0
375 1 0.244008 0.419816 0
405 1 0.249061 0.44495 0
376 1 0.263927 0.427319 0
407 1 0.269415 0.451998 0
409 1 0.283989 0.433161 0
379 1 0.299621 0.415594 0
380 1 0.304467 0.439471 0
382 1 0.319039 0.422146 0
413 1 0.324122 0.447154 0
383 1 0.339491 0.429182 0
412 1 0.344408 0.452914 0
385 1 0.35343 0.411 0
414 1 0.360227 0.435291 0
384 1 0.373645 0.416615 0
415 1 0.379377 0.441287 0
417 1 0.393971 0.42277 0
416 1 0.399413 0.447276 0
418 1 0.414607 0.429836 0
447 1 0.419776 0.454186 0
419 1 0.429201 0.412354 0
390 1 0.434333 0.436028 0
1291 1 0.449282 0.419006 0
1321 1 0.454443 0.443045 0
1323 1 0.488853 0.42988 0
1292 1 0.469269 0.42424 0
1322 1 0.474673 0.447863 0
1320 1 0.0292068 0.460738 0
421 1 0.0347706 0.486298 0
1349 1 0.0137848 0.479256 0
392 1 0.0494408 0.468737 0
422 1 0.0553833 0.493135 0
393 1 0.0695975 0.475387 0
423 1 0.075522 0.499542 0
364 1 0.0839858 0.457923 0
394 1 0.0897829 0.48201 0
395 1 0.104425 0.465312 0
396 1 0.110023 0.489479 0
368 1 0.138518 0.453681 0
397 1 0.125259 0.471144 0
427 1 0.130062 0.495589 0
398 1 0.145003 0.478672 0
399 1 0.159598 0.460906 0
429 1 0.164671 0.485065 0
400 1 0.179894 0.467614 0
431 1 0.184991 0.49167 0
403 1 0.214174 0.455334 0
402 1 0.199482 0.474365 0
432 1 0.204929 0.498737 0
433 1 0.220134 0.48009 0
404 1 0.234213 0.462448 0
435 1 0.240034 0.48759 0
406 1 0.25498 0.469059 0
436 1 0.260472 0.493879 0
408 1 0.275442 0.475732 0
410 1 0.289708 0.456603 0
441 1 0.294721 0.482908 0
411 1 0.309492 0.465307 0
440 1 0.315272 0.48884 0
442 1 0.329913 0.470809 0
471 1 0.334825 0.495628 0
473 1 0.34981 0.47828 0
443 1 0.364094 0.459715 0
444 1 0.370317 0.484441 0
445 1 0.385151 0.465229 0
475 1 0.390216 0.490074 0
446 1 0.40548 0.472028 0
477 1 0.410469 0.496605 0
448 1 0.425539 0.478409 0
420 1 0.440444 0.461143 0
449 1 0.445703 0.485419 0
450 1 0.460428 0.46663 0
1354 1 0.500651 0.478425 0
1324 1 0.495606 0.453474 0
1351 1 0.465709 0.49093 0
1352 1 0.486147 0.49822 0
1353 1 0.481329 0.472699 0
1380 1 0.0245078 0.528501 0
1350 1 0.0199587 0.504175 0
1409 1 0.00973362 0.54569 0
451 1 0.0406638 0.511113 0
452 1 0.0444174 0.536226 0
453 1 0.0602587 0.517505 0
454 1 0.0639238 0.541784 0
424 1 0.079835 0.525012 0
425 1 0.0951683 0.507082 0
455 1 0.100742 0.531344 0
426 1 0.115706 0.513254 0
456 1 0.120379 0.538087 0
457 1 0.135366 0.520963 0
458 1 0.141548 0.545917 0
428 1 0.149934 0.503793 0
459 1 0.155611 0.527989 0
430 1 0.170763 0.510295 0
460 1 0.175614 0.535059 0
461 1 0.190955 0.517482 0
462 1 0.195965 0.54211 0
463 1 0.211039 0.523928 0
434 1 0.22489 0.503703 0
464 1 0.230955 0.530218 0
465 1 0.245558 0.511579 0
466 1 0.25061 0.537346 0
437 1 0.264972 0.519308 0
497 1 0.271381 0.542948 0
467 1 0.285143 0.524032 0
438 1 0.300076 0.506207 0
468 1 0.304417 0.531222 0
439 1 0.280194 0.500337 0
469 1 0.319515 0.513718 0
499 1 0.325243 0.537832 0
470 1 0.339761 0.519717 0
501 1 0.34576 0.544311 0
503 1 0.360192 0.526317 0
474 1 0.375556 0.508419 0
505 1 0.381306 0.533157 0
472 1 0.355523 0.503187 0
476 1 0.395857 0.514571 0
506 1 0.400785 0.539402 0
507 1 0.415504 0.520885 0
509 1 0.421275 0.545217 0
480 1 0.436007 0.527971 0
479 1 0.450496 0.50971 0
510 1 0.456267 0.53259 0
478 1 0.430217 0.502914 0
1382 1 0.49149 0.522274 0
1381 1 0.471001 0.515611 0
1411 1 0.477027 0.53986 0
481 1 0.0294887 0.553117 0
1410 1 0.0341017 0.577977 0
1408 1 0.0149537 0.571116 0
483 1 0.0490451 0.560659 0
482 1 0.053396 0.586479 0
513 1 0.0696459 0.566439 0
485 1 0.0854139 0.548576 0
484 1 0.0903569 0.574437 0
486 1 0.105635 0.555764 0
515 1 0.110804 0.580285 0
487 1 0.125988 0.562516 0
517 1 0.131232 0.587533 0
488 1 0.146813 0.569902 0
489 1 0.16128 0.552613 0
490 1 0.166478 0.577335 0
491 1 0.181097 0.559491 0
521 1 0.187557 0.583176 0
493 1 0.215912 0.54833 0
492 1 0.201791 0.566128 0
523 1 0.206763 0.589432 0
494 1 0.221929 0.572587 0
495 1 0.235794 0.55425 0
525 1 0.241637 0.57812 0
496 1 0.256461 0.560807 0
526 1 0.261665 0.585319 0
527 1 0.27563 0.566839 0
498 1 0.290466 0.549339 0
529 1 0.297291 0.573988 0
500 1 0.311148 0.555703 0
530 1 0.31739 0.580428 0
531 1 0.331749 0.562283 0
532 1 0.33734 0.585636 0
533 1 0.351515 0.568645 0
502 1 0.366053 0.550531 0
534 1 0.371352 0.574723 0
504 1 0.386289 0.557111 0
535 1 0.391254 0.581804 0
508 1 0.406721 0.563776 0
537 1 0.411698 0.587559 0
539 1 0.426804 0.571018 0
540 1 0.44173 0.552039 0
569 1 0.446966 0.57537 0
1441 1 0.462608 0.557073 0
1413 1 0.497929 0.546835 0
1443 1 0.48704 0.588616 0
1442 1 0.467271 0.582001 0
1412 1 0.482661 0.564103 0
1439 1 0.0189473 0.595299 0
1440 1 0.0229435 0.620554 0
1438 1 0.00320102 0.6109 0
514 1 0.0748742 0.591525 0
511 1 0.0391406 0.602993 0
541 1 0.0457542 0.626595 0
512 1 0.0605494 0.610088 0
542 1 0.0657918 0.633781 0
543 1 0.0809321 0.615062 0
545 1 0.0961339 0.59885 0
546 1 0.101209 0.622367 0
516 1 0.116187 0.605008 0
519 1 0.151325 0.594615 0
547 1 0.121121 0.629363 0
518 1 0.136799 0.612291 0
577 1 0.141193 0.63633 0
548 1 0.156439 0.618681 0
520 1 0.172243 0.601177 0
549 1 0.17666 0.626042 0
522 1 0.191826 0.607519 0
551 1 0.197417 0.631694 0
553 1 0.212227 0.613104 0
524 1 0.227007 0.595727 0
554 1 0.231953 0.620166 0
555 1 0.246867 0.602988 0
556 1 0.252619 0.626539 0
557 1 0.267612 0.608211 0
528 1 0.282095 0.590935 0
558 1 0.287286 0.615356 0
587 1 0.27287 0.633958 0
559 1 0.302314 0.598187 0
560 1 0.307551 0.622272 0
561 1 0.322735 0.60387 0
591 1 0.327581 0.628694 0
562 1 0.342491 0.610894 0
563 1 0.358009 0.592458 0
565 1 0.362241 0.616516 0
536 1 0.377642 0.599369 0
564 1 0.348482 0.635401 0
566 1 0.382389 0.623946 0
567 1 0.39684 0.606234 0
597 1 0.402968 0.630109 0
568 1 0.417551 0.612045 0
538 1 0.431856 0.594092 0
600 1 0.437827 0.618471 0
570 1 0.451744 0.599891 0
1501 1 0.458132 0.623827 0
1471 1 0.472306 0.606057 0
1472 1 0.478237 0.6295 0
1473 1 0.493382 0.612279 0
1529 1 0.00651134 0.674737 0
1470 1 0.0311022 0.64384 0
1500 1 0.0275549 0.668015 0
1499 1 0.0117364 0.650695 0
571 1 0.0508108 0.65319 0
572 1 0.059881 0.676438 0
573 1 0.0726392 0.657686 0
544 1 0.0867327 0.63981 0
574 1 0.0924272 0.664872 0
575 1 0.106207 0.647189 0
605 1 0.111767 0.672139 0
576 1 0.126163 0.654002 0
607 1 0.131909 0.67906 0
578 1 0.146176 0.660748 0
579 1 0.161124 0.64344 0
609 1 0.167128 0.666526 0
550 1 0.182307 0.649446 0
580 1 0.187292 0.672586 0
552 1 0.217539 0.637966 0
581 1 0.202514 0.656136 0
582 1 0.222758 0.661836 0
611 1 0.207919 0.679387 0
583 1 0.237711 0.645293 0
584 1 0.243003 0.669372 0
585 1 0.25786 0.651432 0
615 1 0.262948 0.675691 0
586 1 0.278265 0.658739 0
589 1 0.293136 0.641116 0
588 1 0.29862 0.664774 0
617 1 0.283687 0.682691 0
590 1 0.313396 0.646274 0
621 1 0.319325 0.671041 0
593 1 0.333595 0.652875 0
592 1 0.339694 0.676959 0
594 1 0.353307 0.659875 0
595 1 0.368121 0.640918 0
625 1 0.373804 0.665527 0
596 1 0.388274 0.648289 0
627 1 0.39428 0.671925 0
598 1 0.408304 0.654543 0
657 1 0.414203 0.678389 0
599 1 0.423327 0.636004 0
628 1 0.428324 0.660324 0
629 1 0.443583 0.642579 0
630 1 0.449328 0.666483 0
1503 1 0.484237 0.655461 0
1502 1 0.463308 0.648416 0
1533 1 0.468893 0.673173 0
1504 1 0.489289 0.679102 0
1474 1 0.498733 0.637365 0
1559 1 0.00159033 0.699355 0
1530 1 0.0224386 0.692143 0
1560 1 0.0164427 0.716509 0
631 1 0.0368976 0.710272 0
601 1 0.0424451 0.687115 0
602 1 0.0600267 0.702425 0
632 1 0.0512248 0.726938 0
603 1 0.0782825 0.684236 0
633 1 0.0807806 0.710412 0
604 1 0.0978822 0.691014 0
635 1 0.101077 0.715515 0
606 1 0.117232 0.697477 0
608 1 0.152368 0.684251 0
636 1 0.123144 0.720171 0
637 1 0.13805 0.703352 0
667 1 0.144384 0.726755 0
638 1 0.158458 0.708034 0
639 1 0.17276 0.690499 0
641 1 0.1788 0.714882 0
610 1 0.193604 0.697804 0
642 1 0.199517 0.722078 0
612 1 0.213756 0.703962 0
613 1 0.227937 0.686163 0
643 1 0.233248 0.711936 0
614 1 0.248006 0.693393 0
645 1 0.253756 0.718184 0
616 1 0.268971 0.700263 0
647 1 0.273968 0.725505 0
618 1 0.288563 0.70723 0
619 1 0.304127 0.688697 0
620 1 0.309347 0.712952 0
622 1 0.324485 0.695379 0
651 1 0.330278 0.719565 0
653 1 0.344112 0.701876 0
623 1 0.359559 0.684066 0
624 1 0.365166 0.70826 0
626 1 0.379377 0.689481 0
654 1 0.350542 0.725866 0
655 1 0.385791 0.714318 0
656 1 0.399702 0.695949 0
686 1 0.405509 0.721641 0
658 1 0.419141 0.702699 0
659 1 0.434027 0.684451 0
660 1 0.439084 0.708272 0
1531 1 0.453936 0.69075 0
1561 1 0.459739 0.715436 0
687 1 0.425167 0.726483 0
1532 1 0.475021 0.69704 0
1563 1 0.479972 0.721404 0
1534 1 0.495216 0.703618 0
1619 1 0.00571425 0.765704 0
1589 1 0.0109858 0.740846 0
661 1 0.0316167 0.734233 0
1590 1 0.0258025 0.758654 0
663 1 0.0462249 0.751499 0
662 1 0.0621192 0.767937 0
664 1 0.0666675 0.744038 0
695 1 0.0824148 0.760333 0
634 1 0.0870259 0.734863 0
665 1 0.107547 0.740873 0
697 1 0.116882 0.769914 0
666 1 0.128444 0.744932 0
668 1 0.137316 0.767868 0
669 1 0.150468 0.750149 0
640 1 0.164911 0.732348 0
670 1 0.170156 0.757268 0
671 1 0.184975 0.74016 0
672 1 0.19074 0.763767 0
644 1 0.219772 0.730378 0
673 1 0.20486 0.746492 0
674 1 0.224354 0.754449 0
703 1 0.210407 0.7722 0
675 1 0.23941 0.735867 0
705 1 0.245328 0.760508 0
646 1 0.259098 0.742873 0
677 1 0.265252 0.767184 0
648 1 0.281048 0.748795 0
649 1 0.294896 0.731206 0
679 1 0.30049 0.755868 0
678 1 0.28576 0.772676 0
650 1 0.314975 0.737935 0
681 1 0.321245 0.760769 0
652 1 0.336261 0.743168 0
682 1 0.341802 0.76828 0
683 1 0.35682 0.750624 0
685 1 0.371386 0.731724 0
684 1 0.376754 0.756423 0
715 1 0.391496 0.739456 0
714 1 0.397357 0.76316 0
717 1 0.411183 0.744755 0
716 1 0.417932 0.769987 0
688 1 0.431048 0.750448 0
689 1 0.445422 0.732743 0
719 1 0.450947 0.756973 0
690 1 0.465329 0.739304 0
1591 1 0.471513 0.764624 0
1562 1 0.485821 0.745978 0
1593 1 0.491645 0.771532 0
721 1 0.0357206 0.800045 0
1620 1 0.0207269 0.782555 0
1649 1 0.0158226 0.806395 0
1618 1 0.00114708 0.789419 0
691 1 0.0419841 0.776003 0
693 1 0.0573848 0.792367 0
723 1 0.071015 0.810963 0
692 1 0.0508396 0.816913 0
694 1 0.0769602 0.785351 0
725 1 0.0907999 0.802852 0
696 1 0.0966385 0.778014 0
727 1 0.110717 0.796048 0
728 1 0.125421 0.814424 0
698 1 0.130071 0.789905 0
700 1 0.145133 0.807645 0
699 1 0.156746 0.776418 0
731 1 0.164014 0.799553 0
701 1 0.17626 0.780758 0
732 1 0.180283 0.81421 0
702 1 0.194503 0.791699 0
763 1 0.200845 0.815079 0
733 1 0.215608 0.796613 0
704 1 0.231201 0.778928 0
706 1 0.236297 0.804198 0
676 1 0.25115 0.786344 0
737 1 0.256655 0.810854 0
707 1 0.270953 0.792253 0
738 1 0.277149 0.816595 0
708 1 0.291765 0.79752 0
709 1 0.306793 0.779473 0
710 1 0.311532 0.804738 0
680 1 0.326517 0.785926 0
741 1 0.332546 0.81004 0
711 1 0.347868 0.792563 0
713 1 0.362156 0.774523 0
712 1 0.367486 0.799082 0
743 1 0.382853 0.781154 0
742 1 0.353013 0.816395 0
745 1 0.387876 0.805311 0
746 1 0.402815 0.787549 0
775 1 0.407853 0.811295 0
747 1 0.422601 0.793759 0
718 1 0.436631 0.775081 0
749 1 0.442624 0.798984 0
720 1 0.456315 0.781834 0
1621 1 0.461746 0.80785 0
1623 1 0.497821 0.794503 0
1592 1 0.476252 0.788408 0
1622 1 0.482488 0.812028 0
1650 1 0.030948 0.823682 0
1709 1 0.0257237 0.847837 0
1679 1 0.0108627 0.830571 0
1678 1 0.00609133 0.85581 0
1680 1 0.0455322 0.841632 0
752 1 0.0611934 0.859037 0
751 1 0.0658475 0.834525 0
753 1 0.0819082 0.851988 0
722 1 0.0856289 0.827768 0
726 1 0.105036 0.820858 0
724 1 0.101676 0.845059 0
755 1 0.115137 0.862391 0
757 1 0.121463 0.838377 0
756 1 0.136408 0.855289 0
729 1 0.141073 0.83224 0
759 1 0.156838 0.8481 0
730 1 0.161651 0.823648 0
761 1 0.177053 0.840787 0
792 1 0.192636 0.857645 0
735 1 0.221279 0.821456 0
762 1 0.206578 0.838975 0
734 1 0.227105 0.846392 0
736 1 0.242364 0.828729 0
765 1 0.247303 0.851812 0
767 1 0.262818 0.834447 0
766 1 0.267589 0.858088 0
768 1 0.282647 0.840538 0
739 1 0.297123 0.822212 0
769 1 0.302683 0.846775 0
740 1 0.317432 0.827244 0
770 1 0.323661 0.853161 0
771 1 0.338442 0.834271 0
801 1 0.344271 0.858984 0
773 1 0.357929 0.840465 0
744 1 0.373379 0.823566 0
803 1 0.378113 0.847562 0
774 1 0.394038 0.829686 0
776 1 0.398496 0.853991 0
777 1 0.413467 0.836606 0
778 1 0.419335 0.861271 0
748 1 0.427582 0.817446 0
779 1 0.432749 0.84239 0
750 1 0.447337 0.825317 0
780 1 0.453328 0.848401 0
1651 1 0.46773 0.830453 0
1652 1 0.473891 0.855406 0
1653 1 0.488017 0.837587 0
1683 1 0.494549 0.861688 0
1710 1 0.0208442 0.873467 0
811 1 0.0364533 0.889423 0
1739 1 0.0163431 0.897436 0
1708 1 0.000978709 0.880005 0
781 1 0.0407156 0.864644 0
782 1 0.0562395 0.882976 0
813 1 0.0714677 0.899721 0
783 1 0.0766043 0.875827 0
812 1 0.050901 0.906948 0
784 1 0.0916492 0.89364 0
754 1 0.0960829 0.86943 0
785 1 0.111597 0.888053 0
786 1 0.126294 0.904181 0
787 1 0.131099 0.878745 0
788 1 0.145996 0.897291 0
758 1 0.151751 0.871894 0
760 1 0.17186 0.865483 0
789 1 0.166116 0.890618 0
791 1 0.186942 0.883708 0
790 1 0.180479 0.907846 0
764 1 0.21192 0.864232 0
823 1 0.200425 0.90152 0
793 1 0.217872 0.887042 0
795 1 0.233153 0.870535 0
794 1 0.238543 0.895123 0
796 1 0.252995 0.87593 0
825 1 0.25888 0.900136 0
797 1 0.287867 0.864547 0
827 1 0.273391 0.8817 0
798 1 0.294096 0.888168 0
826 1 0.27911 0.906547 0
799 1 0.308669 0.870487 0
829 1 0.314653 0.89449 0
800 1 0.328686 0.876605 0
831 1 0.335026 0.901754 0
802 1 0.348969 0.883876 0
772 1 0.364247 0.865657 0
804 1 0.369285 0.890283 0
805 1 0.384004 0.871686 0
806 1 0.389862 0.897423 0
807 1 0.4042 0.878829 0
837 1 0.409409 0.904065 0
808 1 0.423921 0.885457 0
809 1 0.43948 0.866758 0
810 1 0.444667 0.891491 0
1681 1 0.459617 0.873776 0
1711 1 0.46474 0.89806 0
1682 1 0.479988 0.88159 0
1713 1 0.485135 0.906111 0
1740 1 0.0317881 0.914118 0
1769 1 0.0253922 0.93846 0
1738 1 0.0113714 0.920961 0
1768 1 0.00579537 0.945463 0
841 1 0.0460725 0.930953 0
842 1 0.0612009 0.947684 0
843 1 0.0657918 0.923858 0
844 1 0.0810191 0.940783 0
814 1 0.0855602 0.917024 0
815 1 0.106443 0.911188 0
845 1 0.100433 0.934389 0
846 1 0.115355 0.952687 0
816 1 0.120759 0.927939 0
847 1 0.134943 0.945514 0
817 1 0.141066 0.92142 0
818 1 0.155213 0.938713 0
819 1 0.160956 0.914037 0
820 1 0.174887 0.931374 0
851 1 0.189467 0.949872 0
821 1 0.195022 0.925135 0
824 1 0.221911 0.911547 0
822 1 0.210005 0.942465 0
853 1 0.229688 0.93537 0
855 1 0.244664 0.918334 0
854 1 0.249338 0.943815 0
856 1 0.26426 0.924178 0
885 1 0.270578 0.948535 0
857 1 0.285077 0.930022 0
828 1 0.300266 0.912464 0
859 1 0.30554 0.936732 0
830 1 0.320486 0.919653 0
860 1 0.326826 0.943731 0
832 1 0.34019 0.925503 0
861 1 0.346529 0.950536 0
833 1 0.355025 0.908476 0
863 1 0.360374 0.93229 0
834 1 0.375281 0.915227 0
865 1 0.380879 0.939976 0
835 1 0.39525 0.92178 0
836 1 0.400693 0.946841 0
838 1 0.415176 0.929042 0
867 1 0.421746 0.95325 0
839 1 0.428856 0.909775 0
869 1 0.436825 0.934576 0
840 1 0.45003 0.915687 0
1741 1 0.456054 0.940937 0
1744 1 0.49612 0.954463 0
1743 1 0.490536 0.929583 0
1712 1 0.469906 0.922981 0
1742 1 0.47582 0.947208 0
1797 1 0.0008278 0.969797 0
1799 1 0.0206438 0.963186 0
1800 1 0.0349392 0.981035 0
1798 1 0.0150403 0.987881 0
1 1 0.0503193 0.998009 0
1770 1 0.0396575 0.955852 0
871 1 0.0552794 0.972834 0
872 1 0.0702605 0.990542 0
873 1 0.0751009 0.964853 0
874 1 0.089548 0.983088 0
875 1 0.0956343 0.958803 0
876 1 0.109999 0.977488 0
7 1 0.124796 0.994159 0
877 1 0.129406 0.970214 0
878 1 0.144064 0.987568 0
848 1 0.149664 0.963429 0
849 1 0.169353 0.955676 0
879 1 0.164426 0.979955 0
850 1 0.184893 0.972909 0
881 1 0.179396 0.998557 0
11 1 0.19902 0.990466 0
852 1 0.204717 0.966406 0
883 1 0.22571 0.960287 0
882 1 0.219183 0.983867 0
884 1 0.239488 0.977213 0
886 1 0.257809 0.967103 0
16 1 0.256882 0.993699 0
887 1 0.290395 0.954785 0
17 1 0.276988 0.974339 0
888 1 0.296549 0.979714 0
18 1 0.281774 0.998086 0
858 1 0.311224 0.96132 0
889 1 0.3165 0.987046 0
891 1 0.331302 0.96886 0
890 1 0.336418 0.994312 0
862 1 0.351021 0.974503 0
864 1 0.366076 0.95717 0
893 1 0.371563 0.981769 0
892 1 0.35664 0.999756 0
895 1 0.386507 0.964504 0
896 1 0.391913 0.989202 0
866 1 0.406947 0.970942 0
897 1 0.412517 0.995979 0
870 1 0.441618 0.959337 0
868 1 0.426549 0.978534 0
899 1 0.446504 0.984647 0
1771 1 0.46236 0.96579 0
1773 1 0.482095 0.971331 0
1772 1 0.468073 0.99059 0
903 1 0.48764 0.99641 0
904 1 0.513949 0.0268212 0
905 1 0.508171 0.00257983 0
906 1 0.528646 0.00932063 0
935 1 0.533868 0.0346488 0
908 1 0.548353 0.0146302 0
937 1 0.553214 0.0404398 0
939 1 0.568043 0.0213249 0
940 1 0.588662 0.0279031 0
941 1 0.583243 0.00488576 0
942 1 0.785655 0.0203862 0
943 1 0.805862 0.0158646 0
944 1 0.80079 0.0393887 0
945 1 0.820836 0.0333182 0
914 1 0.825329 0.00887818 0
947 1 0.840611 0.0266359 0
916 1 0.845289 0.00275707 0
918 1 0.860391 0.0200707 0
949 1 0.874668 0.0376591 0
919 1 0.880473 0.013314 0
948 1 0.855499 0.0451916 0
920 1 0.895151 0.0310877 0
1790 1 0.90008 0.00693953 0
951 1 0.914663 0.0241354 0
952 1 0.931076 0.0415969 0
922 1 0.935181 0.0160372 0
953 1 0.950549 0.0339736 0
924 1 0.955306 0.00993358 0
955 1 0.970398 0.0268084 0
925 1 0.975088 0.00212827 0
926 1 0.990126 0.0191926 0
956 1 0.985136 0.0432366 0
963 1 0.50408 0.0696778 0
934 1 0.518519 0.0520473 0
965 1 0.523861 0.0758078 0
936 1 0.538671 0.0584067 0
938 1 0.573957 0.0461163 0
966 1 0.544291 0.0820577 0
967 1 0.559359 0.0646857 0
968 1 0.564528 0.0892892 0
969 1 0.579367 0.0711138 0
971 1 0.780179 0.0456135 0
970 1 0.774453 0.0706145 0
973 1 0.795366 0.0643884 0
972 1 0.789407 0.0892829 0
1003 1 0.810013 0.0819738 0
975 1 0.815081 0.0579634 0
974 1 0.830363 0.0747871 0
946 1 0.835306 0.0511832 0
976 1 0.850873 0.0691995 0
977 1 0.871085 0.0621569 0
1007 1 0.865617 0.0861597 0