ITEM: TIMESTEP
163000
ITEM: NUMBER OF ATOMS
1800
ITEM: BOX BOUNDS pp pp pp
-5.3815931147798990e+00 1.7038159311478182e+02
1.1826529217466231e+00 1.6381734707825530e+02
0.0000000000000000e+00 5.5000000000000000e+00
ITEM: ATOMS id type xs ys zs
2 1 0.0369516 0.0209564 0
930 1 0.0144618 0.0280011 0
1 1 0.0190284 0.00325144 0
31 1 0.0323075 0.0451615 0
33 1 0.0539494 0.0375948 0
3 1 0.0583234 0.0126458 0
4 1 0.0754277 0.0291814 0
5 1 0.0810996 0.00565611 0
6 1 0.0980751 0.0219659 0
8 1 0.119995 0.0137317 0
37 1 0.114581 0.0385516 0
35 1 0.0921761 0.0469684 0
39 1 0.136623 0.0311295 0
880 1 0.141342 0.00641563 0
9 1 0.158748 0.0228273 0
40 1 0.176619 0.0406576 0
10 1 0.180424 0.0160689 0
41 1 0.197944 0.0325194 0
12 1 0.202062 0.00675808 0
14 1 0.218553 0.0241793 0
15 1 0.240847 0.0181455 0
45 1 0.236403 0.0433107 0
13 1 0.225017 -0.000103499 0
16 1 0.261871 0.0112252 0
46 1 0.257943 0.0357832 0
47 1 0.288888 0.0296569 0
18 1 0.283499 0.00547499 0
49 1 0.311773 0.0338154 0
19 1 0.305424 0.0102829 0
20 1 0.327318 0.0149461 0
51 1 0.334712 0.0389976 0
21 1 0.349404 0.0212879 0
23 1 0.371333 0.0263051 0
892 1 0.36497 0.00206855 0
894 1 0.386789 0.00674144 0
24 1 0.39361 0.032132 0
25 1 0.408137 0.0131278 0
26 1 0.416803 0.0368639 0
27 1 0.43166 0.0174726 0
29 1 0.454059 0.0237168 0
28 1 0.438641 0.0423023 0
1139 1 7.49021e-05 0.280137 0
900 1 0.470328 0.00487824 0
30 1 0.476865 0.0281456 0
901 1 0.493205 0.00968251 0
931 1 0.499303 0.0347222 0
989 1 0.00537536 0.0780618 0
61 1 0.0269559 0.0710761 0
960 1 0.010599 0.0538626 0
62 1 0.0447237 0.0864787 0
32 1 0.0491409 0.0621556 0
63 1 0.066231 0.0793877 0
34 1 0.0703528 0.0550706 0
65 1 0.0882093 0.071792 0
36 1 0.109663 0.063444 0
66 1 0.104651 0.0886939 0
69 1 0.154175 0.0462985 0
67 1 0.127204 0.0803652 0
38 1 0.131193 0.0558621 0
68 1 0.149373 0.0719121 0
70 1 0.166815 0.0890954 0
71 1 0.171518 0.0644699 0
72 1 0.1883 0.0815052 0
42 1 0.193489 0.0568299 0
73 1 0.210631 0.0749616 0
43 1 0.215212 0.0502058 0
44 1 0.232766 0.0681479 0
74 1 0.250004 0.084984 0
75 1 0.254574 0.0598406 0
76 1 0.273179 0.0748176 0
77 1 0.274962 0.0508605 0
48 1 0.297071 0.0526115 0
79 1 0.301237 0.07645 0
50 1 0.319015 0.0589275 0
81 1 0.32475 0.082296 0
22 1 0.356674 0.0458859 0
52 1 0.34098 0.0635154 0
83 1 0.362983 0.0700181 0
82 1 0.34657 0.0879788 0
53 1 0.378751 0.0502498 0
54 1 0.385095 0.0751557 0
55 1 0.400615 0.0552293 0
56 1 0.407088 0.0796003 0
57 1 0.423017 0.0609556 0
58 1 0.445564 0.0671644 0
87 1 0.428413 0.0856438 0
59 1 0.46071 0.0481751 0
89 1 0.467183 0.0724317 0
60 1 0.482305 0.052542 0
961 1 0.489691 0.0773565 0
990 1 0.0224612 0.0949872 0
91 1 0.0396495 0.111942 0
1020 1 0.0178206 0.120309 0
121 1 0.0348649 0.136059 0
1019 1 0.000938168 0.103384 0
92 1 0.0568102 0.129449 0
93 1 0.0611647 0.103771 0
94 1 0.0781519 0.121288 0
64 1 0.0834237 0.0958263 0
95 1 0.100428 0.113639 0
96 1 0.1183 0.129128 0
97 1 0.122052 0.104467 0
125 1 0.0951125 0.137668 0
98 1 0.139989 0.12148 0
99 1 0.144752 0.097351 0
100 1 0.161959 0.114002 0
130 1 0.17911 0.130327 0
101 1 0.184141 0.106506 0
102 1 0.200044 0.123468 0
103 1 0.205751 0.0988624 0
105 1 0.227689 0.0920697 0
104 1 0.222309 0.117444 0
106 1 0.243787 0.109235 0
137 1 0.253064 0.131221 0
107 1 0.268503 0.112793 0
78 1 0.285949 0.0958164 0
109 1 0.292037 0.120166 0
80 1 0.308193 0.100994 0
110 1 0.314779 0.12434 0
111 1 0.330451 0.105768 0
141 1 0.336945 0.131341 0
113 1 0.352525 0.112783 0
84 1 0.368292 0.0935054 0
143 1 0.358609 0.136283 0
112 1 0.37483 0.118297 0
85 1 0.39027 0.100065 0
115 1 0.397412 0.123819 0
86 1 0.412242 0.104513 0
88 1 0.450693 0.0909004 0
116 1 0.420268 0.128714 0
117 1 0.435559 0.109559 0
118 1 0.442529 0.134406 0
119 1 0.457871 0.115041 0
90 1 0.473855 0.0969384 0
120 1 0.480759 0.121812 0
991 1 0.495876 0.101723 0
1079 1 0.00670166 0.168646 0
151 1 0.029376 0.160487 0
1050 1 0.0119224 0.143989 0
152 1 0.0462947 0.177904 0
122 1 0.0514635 0.153889 0
153 1 0.0692114 0.171808 0
123 1 0.0737944 0.146942 0
124 1 0.091158 0.162583 0
126 1 0.113195 0.153532 0
155 1 0.108831 0.176935 0
157 1 0.130649 0.170603 0
127 1 0.135082 0.146576 0
129 1 0.157512 0.138143 0
128 1 0.153419 0.165096 0
159 1 0.175117 0.154751 0
131 1 0.197796 0.157351 0
132 1 0.182078 0.177409 0
135 1 0.236884 0.148704 0
133 1 0.214621 0.141189 0
134 1 0.219935 0.165882 0
165 1 0.243194 0.172473 0
108 1 0.275253 0.136312 0
136 1 0.260043 0.154728 0
138 1 0.281205 0.161445 0
167 1 0.264876 0.179581 0
139 1 0.298188 0.143579 0
169 1 0.304022 0.167915 0
140 1 0.320335 0.149831 0
171 1 0.326811 0.173418 0
142 1 0.343142 0.155719 0
173 1 0.365559 0.161575 0
172 1 0.348727 0.179499 0
114 1 0.381561 0.142641 0
144 1 0.387722 0.166525 0
145 1 0.403419 0.148295 0
146 1 0.409804 0.172848 0
147 1 0.425456 0.15302 0
148 1 0.44803 0.15867 0
177 1 0.432277 0.177455 0
1051 1 0.492673 0.170395 0
149 1 0.464582 0.140828 0
150 1 0.470446 0.16553 0
1021 1 0.486673 0.146214 0
1080 1 0.0248682 0.184259 0
1109 1 0.0245503 0.21768 0
1078 1 0.00268258 0.193334 0
450 1 0.483653 0.464534 0
181 1 0.0426099 0.201265 0
183 1 0.0657471 0.196628 0
182 1 0.0482126 0.225287 0
185 1 0.0868108 0.213996 0
154 1 0.0867334 0.188223 0
186 1 0.110076 0.224132 0
156 1 0.1062 0.200904 0
158 1 0.12805 0.205849 0
160 1 0.144409 0.189392 0
189 1 0.15014 0.212441 0
161 1 0.166505 0.195101 0
191 1 0.172623 0.219786 0
163 1 0.20392 0.183386 0
162 1 0.189133 0.201466 0
192 1 0.194495 0.225599 0
193 1 0.211337 0.207881 0
164 1 0.227009 0.190115 0
195 1 0.232498 0.215439 0
166 1 0.248534 0.197622 0
196 1 0.255858 0.22086 0
197 1 0.271797 0.203402 0
168 1 0.28765 0.186374 0
199 1 0.29378 0.20918 0
170 1 0.310189 0.191522 0
200 1 0.316317 0.215138 0
201 1 0.332683 0.197789 0
202 1 0.339 0.221803 0
203 1 0.354934 0.203993 0
174 1 0.371371 0.185071 0
204 1 0.376598 0.210071 0
175 1 0.393364 0.190472 0
205 1 0.399002 0.214866 0
176 1 0.415361 0.197434 0
179 1 0.453992 0.18467 0
207 1 0.421948 0.221826 0
178 1 0.438045 0.202828 0
208 1 0.444392 0.226285 0
209 1 0.459788 0.209028 0
180 1 0.476151 0.190394 0
1081 1 0.482667 0.214068 0
1052 1 0.499348 0.194537 0
211 1 0.0322549 0.242411 0
1140 1 0.0161282 0.261978 0
212 1 0.0376029 0.267598 0
1110 1 0.00985229 0.237871 0
213 1 0.0545956 0.249256 0
184 1 0.0715469 0.232218 0
214 1 0.0772588 0.256782 0
215 1 0.093444 0.239295 0
216 1 0.098808 0.264531 0
217 1 0.116723 0.247956 0
218 1 0.121905 0.272599 0
187 1 0.13341 0.229826 0
188 1 0.139058 0.255192 0
190 1 0.155841 0.236954 0
220 1 0.161524 0.261976 0
221 1 0.177158 0.245188 0
222 1 0.183626 0.268835 0
223 1 0.199585 0.2501 0
194 1 0.216563 0.232877 0
224 1 0.222908 0.256531 0
225 1 0.239439 0.238598 0
226 1 0.244837 0.263792 0
198 1 0.277693 0.227066 0
227 1 0.261424 0.245592 0
228 1 0.283313 0.250867 0
257 1 0.267787 0.269586 0
229 1 0.299777 0.233368 0
230 1 0.304171 0.258325 0
231 1 0.321915 0.240763 0
261 1 0.327039 0.26484 0
233 1 0.360228 0.228143 0
232 1 0.343437 0.247088 0
234 1 0.36565 0.252919 0
263 1 0.349832 0.271326 0
235 1 0.383298 0.234627 0
265 1 0.387402 0.259423 0
206 1 0.405396 0.239738 0
236 1 0.410579 0.263691 0
237 1 0.427662 0.246317 0
239 1 0.449519 0.250671 0
238 1 0.43309 0.269811 0
210 1 0.467375 0.232547 0
240 1 0.472361 0.257681 0
1111 1 0.489749 0.237461 0
1112 1 0.495568 0.262542 0
1169 1 0.00652337 0.304226 0
241 1 0.022309 0.285668 0
271 1 0.0279192 0.310266 0
242 1 0.043916 0.292235 0
243 1 0.0599741 0.273823 0
244 1 0.0661879 0.298667 0
273 1 0.0502955 0.316559 0
245 1 0.0827191 0.281633 0
246 1 0.0884812 0.30695 0
247 1 0.104694 0.289597 0
248 1 0.111415 0.313026 0
249 1 0.127697 0.296428 0
219 1 0.144646 0.279531 0
250 1 0.150112 0.303386 0
251 1 0.166895 0.286137 0
253 1 0.206218 0.273566 0
281 1 0.172653 0.310961 0
252 1 0.1905 0.291459 0
283 1 0.194891 0.316956 0
254 1 0.211523 0.299346 0
255 1 0.227694 0.28153 0
285 1 0.234085 0.307349 0
256 1 0.24931 0.287575 0
287 1 0.256385 0.312288 0
258 1 0.271334 0.295335 0
259 1 0.288514 0.277398 0
289 1 0.294896 0.301312 0
260 1 0.310615 0.282734 0
291 1 0.317814 0.307383 0
262 1 0.332796 0.289533 0
293 1 0.355882 0.295558 0
292 1 0.339763 0.313189 0
264 1 0.371651 0.277038 0
295 1 0.378077 0.301324 0
266 1 0.393926 0.283 0
297 1 0.400664 0.307065 0
267 1 0.417319 0.288437 0
268 1 0.439749 0.293412 0
298 1 0.423096 0.312857 0
269 1 0.456106 0.274407 0
270 1 0.460972 0.300406 0
1141 1 0.477574 0.281745 0
300 1 0.484075 0.305558 0
1200 1 0.0335988 0.335141 0
301 1 0.0385734 0.359573 0
1229 1 0.0165735 0.35291 0
1170 1 0.0118394 0.328547 0
272 1 0.0554367 0.342019 0
275 1 0.0721384 0.324279 0
274 1 0.0782322 0.348585 0
276 1 0.0948016 0.331077 0
305 1 0.0998461 0.35643 0
277 1 0.116528 0.338322 0
307 1 0.122551 0.363233 0
279 1 0.133162 0.321407 0
278 1 0.138603 0.346033 0
280 1 0.155656 0.328266 0
311 1 0.162349 0.352991 0
282 1 0.17904 0.335432 0
312 1 0.184504 0.359632 0
313 1 0.200662 0.3418 0
284 1 0.217199 0.324488 0
315 1 0.222722 0.35008 0
286 1 0.239716 0.331582 0
316 1 0.245568 0.355483 0
288 1 0.27914 0.31953 0
317 1 0.2629 0.337026 0
319 1 0.285903 0.343592 0
318 1 0.268714 0.361729 0
290 1 0.301804 0.325618 0
320 1 0.308247 0.350721 0
321 1 0.323587 0.332026 0
322 1 0.330753 0.355773 0
323 1 0.345956 0.337513 0
294 1 0.362587 0.319771 0
325 1 0.367986 0.343746 0
296 1 0.384502 0.325483 0
326 1 0.390546 0.349405 0
327 1 0.40709 0.330816 0
328 1 0.412751 0.356584 0
299 1 0.445741 0.318225 0
329 1 0.428906 0.337534 0
359 1 0.451576 0.34395 0
358 1 0.435291 0.361866 0
330 1 0.467951 0.324382 0
360 1 0.474354 0.348669 0
1201 1 0.491751 0.329682 0
1231 1 0.497617 0.354234 0
1230 1 0.0223215 0.377356 0
331 1 0.0270184 0.401783 0
1260 1 0.00373743 0.395055 0
302 1 0.0447218 0.384948 0
303 1 0.0612564 0.366503 0
333 1 0.0664646 0.3919 0
332 1 0.0498158 0.40957 0
304 1 0.0828696 0.373588 0
335 1 0.088612 0.398824 0
306 1 0.105419 0.380529 0
337 1 0.11164 0.405355 0
308 1 0.128894 0.38822 0
309 1 0.145132 0.370285 0
339 1 0.151478 0.394387 0
310 1 0.168077 0.376841 0
314 1 0.206743 0.367952 0
341 1 0.173742 0.401319 0
343 1 0.189854 0.38457 0
342 1 0.197203 0.409404 0
344 1 0.213353 0.391304 0
345 1 0.229732 0.373715 0
346 1 0.235954 0.397746 0
347 1 0.252435 0.378872 0
377 1 0.258579 0.405022 0
348 1 0.274444 0.386799 0
349 1 0.291567 0.368028 0
350 1 0.29801 0.394417 0
351 1 0.312991 0.374891 0
381 1 0.320242 0.399618 0
324 1 0.352812 0.361448 0
353 1 0.336091 0.379584 0
354 1 0.358233 0.385916 0
352 1 0.342844 0.404481 0
355 1 0.374786 0.368288 0
356 1 0.380168 0.392271 0
357 1 0.396211 0.374079 0
386 1 0.40262 0.399147 0
387 1 0.418831 0.380768 0
389 1 0.441728 0.386007 0
388 1 0.425482 0.405769 0
1232 1 0.45856 0.369059 0
1262 1 0.481742 0.373728 0
1261 1 0.464567 0.393095 0
1293 1 0.487484 0.399025 0
361 1 0.0321092 0.426371 0
362 1 0.0382136 0.451148 0
391 1 0.0148974 0.443991 0
1290 1 0.00967773 0.419603 0
363 1 0.0555107 0.433124 0
334 1 0.0724712 0.416587 0
365 1 0.0783416 0.44144 0
336 1 0.0952042 0.423912 0
366 1 0.100755 0.44798 0
367 1 0.11768 0.429444 0
368 1 0.123606 0.453956 0
338 1 0.13429 0.412322 0
369 1 0.140117 0.43649 0
340 1 0.158081 0.418904 0
370 1 0.163227 0.443944 0
371 1 0.18067 0.426946 0
401 1 0.185932 0.450992 0
372 1 0.202922 0.433612 0
373 1 0.219317 0.415902 0
374 1 0.225827 0.439882 0
375 1 0.242334 0.422491 0
405 1 0.248055 0.446753 0
378 1 0.280251 0.411516 0
376 1 0.265048 0.430195 0
409 1 0.287097 0.435811 0
407 1 0.270577 0.454115 0
379 1 0.30485 0.418128 0
380 1 0.310683 0.44245 0
382 1 0.32634 0.424699 0
413 1 0.332387 0.449407 0
383 1 0.34788 0.430515 0
385 1 0.364532 0.410878 0
414 1 0.370677 0.436899 0
384 1 0.38603 0.417699 0
415 1 0.393322 0.442201 0
417 1 0.40957 0.423722 0
416 1 0.415687 0.449114 0
419 1 0.448309 0.410663 0
418 1 0.431896 0.4301 0
390 1 0.454532 0.435952 0
447 1 0.438725 0.454927 0
1292 1 0.493596 0.422247 0
1291 1 0.470174 0.417413 0
1321 1 0.476826 0.441253 0
421 1 0.0031606 0.48547 0
392 1 0.0214157 0.467823 0
422 1 0.026894 0.492141 0
393 1 0.0437269 0.474728 0
364 1 0.0615007 0.458289 0
394 1 0.065725 0.481748 0
423 1 0.0489331 0.499655 0
395 1 0.0831662 0.465677 0
396 1 0.0883642 0.489729 0
397 1 0.10607 0.472094 0
427 1 0.111192 0.495265 0
398 1 0.129424 0.47787 0
399 1 0.146912 0.460435 0
429 1 0.151526 0.48458 0
400 1 0.168375 0.468241 0
431 1 0.173874 0.49255 0
402 1 0.191249 0.474919 0
432 1 0.196699 0.499453 0
403 1 0.209061 0.458051 0
433 1 0.214008 0.48233 0
404 1 0.230988 0.46448 0
435 1 0.237295 0.489393 0
406 1 0.254521 0.470831 0
436 1 0.259763 0.496731 0
408 1 0.27648 0.47867 0
410 1 0.29241 0.460416 0
441 1 0.298742 0.486555 0
411 1 0.314809 0.467451 0
440 1 0.320984 0.492371 0
412 1 0.354409 0.455713 0
442 1 0.337116 0.473983 0
473 1 0.360429 0.480857 0
471 1 0.344324 0.498676 0
443 1 0.376315 0.461809 0
444 1 0.384096 0.485644 0
445 1 0.39945 0.466638 0
475 1 0.407133 0.49145 0
448 1 0.44494 0.478453 0
446 1 0.422693 0.473423 0
477 1 0.429388 0.497238 0
449 1 0.467381 0.483696 0
1351 1 0.490359 0.488834 0
420 1 0.461551 0.459503 0
454 1 0.0383041 0.54067 0
453 1 0.0330728 0.51619 0
452 1 0.015885 0.533165 0
451 1 0.0103712 0.50935 0
424 1 0.05521 0.523893 0
455 1 0.0767899 0.531101 0
425 1 0.0716701 0.506071 0
426 1 0.0936604 0.514161 0
456 1 0.099812 0.538971 0
457 1 0.116719 0.519886 0
459 1 0.139236 0.525559 0
460 1 0.163394 0.532961 0
430 1 0.156707 0.509219 0
428 1 0.134789 0.501966 0
461 1 0.179961 0.516346 0
462 1 0.185749 0.539888 0
463 1 0.203032 0.523123 0
434 1 0.221173 0.506967 0
464 1 0.225914 0.531779 0
466 1 0.247785 0.539437 0
465 1 0.243628 0.513836 0
437 1 0.265465 0.522723 0
467 1 0.288603 0.529194 0
439 1 0.281902 0.503848 0
438 1 0.304157 0.511341 0
468 1 0.311697 0.535909 0
469 1 0.326881 0.516878 0
499 1 0.334103 0.541867 0
470 1 0.350631 0.522111 0
472 1 0.367205 0.504777 0
503 1 0.373416 0.52873 0
474 1 0.389365 0.510731 0
505 1 0.396456 0.535235 0
476 1 0.412207 0.515574 0
507 1 0.434545 0.521446 0
506 1 0.419283 0.54096 0
478 1 0.451683 0.503052 0
480 1 0.456492 0.527366 0
479 1 0.473427 0.507645 0
510 1 0.480134 0.532225 0
1381 1 0.496322 0.514312 0
482 1 0.0243877 0.582643 0
483 1 0.0201209 0.557632 0
1410 1 0.0015371 0.57577 0
513 1 0.0420317 0.565537 0
485 1 0.0606611 0.548833 0
484 1 0.0655136 0.573272 0
514 1 0.0469818 0.58994 0
486 1 0.0828752 0.556266 0
458 1 0.122117 0.544162 0
515 1 0.0877635 0.581589 0
487 1 0.105546 0.563825 0
489 1 0.144508 0.549002 0
488 1 0.127981 0.569097 0
490 1 0.150974 0.571762 0
493 1 0.208682 0.547766 0
491 1 0.16829 0.556268 0
521 1 0.172515 0.580724 0
492 1 0.190478 0.564195 0
523 1 0.194564 0.588458 0
494 1 0.212359 0.572701 0
495 1 0.230569 0.555749 0
525 1 0.23495 0.580831 0
497 1 0.271268 0.54718 0
496 1 0.25307 0.564391 0
526 1 0.25754 0.587942 0
527 1 0.27664 0.57119 0
498 1 0.294863 0.553793 0
529 1 0.300189 0.58011 0
500 1 0.318156 0.560803 0
530 1 0.323821 0.584689 0
501 1 0.35611 0.547142 0
531 1 0.340496 0.566721 0
533 1 0.363512 0.571839 0
502 1 0.379174 0.553297 0
534 1 0.38606 0.57829 0
504 1 0.402005 0.559574 0
535 1 0.408746 0.583517 0
509 1 0.441947 0.54638 0
508 1 0.425483 0.565666 0
537 1 0.431518 0.589391 0
539 1 0.44801 0.570446 0
1442 1 0.493705 0.581348 0
540 1 0.465324 0.551167 0
569 1 0.470519 0.575319 0
1441 1 0.487296 0.556786 0
512 1 0.0289503 0.607369 0
542 1 0.0332784 0.631868 0
541 1 0.0114505 0.623711 0
511 1 0.0075446 0.599487 0
543 1 0.0509933 0.615678 0
545 1 0.0692147 0.598365 0
546 1 0.0731644 0.623696 0
517 1 0.108711 0.591024 0
516 1 0.0918329 0.607662 0
547 1 0.0945835 0.634452 0
518 1 0.113447 0.6177 0
519 1 0.131237 0.600876 0
548 1 0.135128 0.629856 0
520 1 0.153818 0.595192 0
549 1 0.155472 0.619024 0
522 1 0.175558 0.604597 0
551 1 0.176317 0.628813 0
553 1 0.197246 0.6135 0
524 1 0.216462 0.597449 0
554 1 0.21838 0.622734 0
555 1 0.238187 0.606471 0
556 1 0.241092 0.631363 0
557 1 0.260571 0.613073 0
528 1 0.281371 0.597117 0
558 1 0.282262 0.622358 0
559 1 0.305146 0.605685 0
561 1 0.330788 0.6081 0
560 1 0.30319 0.635242 0
532 1 0.347386 0.590799 0
562 1 0.353548 0.616695 0
563 1 0.369996 0.597828 0
565 1 0.377479 0.622082 0
536 1 0.393518 0.602261 0
566 1 0.401015 0.627296 0
567 1 0.415714 0.607577 0
568 1 0.439435 0.612491 0
597 1 0.424587 0.631904 0
538 1 0.454624 0.594486 0
570 1 0.478497 0.59896 0
600 1 0.462289 0.618273 0
1501 1 0.485151 0.62365 0
573 1 0.0368927 0.656046 0
572 1 0.0199894 0.673437 0
571 1 0.0145194 0.648306 0
603 1 0.0410787 0.679721 0
544 1 0.054752 0.640662 0
575 1 0.0765685 0.649696 0
574 1 0.0582792 0.664067 0
605 1 0.0800808 0.674173 0
577 1 0.116185 0.64356 0
576 1 0.0981874 0.659476 0
578 1 0.118421 0.67076 0
579 1 0.137279 0.657028 0
550 1 0.156899 0.643613 0
580 1 0.159023 0.667772 0
609 1 0.140394 0.68214 0
552 1 0.198211 0.638816 0
581 1 0.177723 0.653367 0
611 1 0.179839 0.678619 0
582 1 0.199129 0.663346 0
583 1 0.220906 0.647398 0
584 1 0.220875 0.672081 0
585 1 0.241628 0.656908 0
615 1 0.241404 0.682084 0
587 1 0.263427 0.637668 0
586 1 0.26378 0.66291 0
589 1 0.283495 0.649584 0
588 1 0.282561 0.676061 0
590 1 0.303092 0.66099 0
591 1 0.324092 0.650232 0
621 1 0.32303 0.674372 0
593 1 0.345611 0.660797 0
564 1 0.361681 0.640016 0
594 1 0.368697 0.664339 0
595 1 0.38478 0.645162 0
625 1 0.392442 0.671053 0
596 1 0.407561 0.651382 0
627 1 0.415409 0.675976 0
599 1 0.446874 0.638628 0
598 1 0.430649 0.656878 0
628 1 0.455089 0.661922 0
657 1 0.438417 0.680495 0
1771 1 0.479452 0.962578 0
629 1 0.469692 0.641793 0
630 1 0.476832 0.668044 0
1502 1 0.492794 0.647709 0
602 1 0.0215604 0.70123 0
601 1 0.00233147 0.688565 0
631 1 0.00113012 0.713838 0
633 1 0.0440745 0.703447 0
604 1 0.0620371 0.688802 0
635 1 0.063786 0.715496 0
606 1 0.0819791 0.699639 0
636 1 0.0848187 0.724595 0
607 1 0.100607 0.686558 0
637 1 0.103263 0.710979 0
608 1 0.121856 0.696779 0
638 1 0.124399 0.721383 0
639 1 0.143035 0.70738 0
610 1 0.160845 0.693023 0
641 1 0.163956 0.71823 0
612 1 0.182392 0.703818 0
613 1 0.200888 0.689083 0
643 1 0.204731 0.713653 0
642 1 0.186314 0.728185 0
614 1 0.223205 0.698089 0
645 1 0.226033 0.722565 0
616 1 0.24478 0.707031 0
617 1 0.262799 0.691387 0
647 1 0.265301 0.718189 0
618 1 0.283669 0.702349 0
619 1 0.302346 0.686798 0
620 1 0.303703 0.713694 0
622 1 0.321167 0.698759 0
651 1 0.325011 0.722713 0
592 1 0.355037 0.684481 0
653 1 0.342111 0.704846 0
624 1 0.363083 0.709783 0
623 1 0.377508 0.690446 0
655 1 0.386259 0.713457 0
626 1 0.400559 0.694734 0
686 1 0.40852 0.718242 0
656 1 0.423694 0.699243 0
658 1 0.446495 0.705375 0
687 1 0.431399 0.723442 0
659 1 0.461778 0.686198 0
660 1 0.468944 0.709521 0
1531 1 0.484843 0.691342 0
1561 1 0.492011 0.715717 0
632 1 0.0195711 0.728968 0
664 1 0.0343402 0.748297 0
663 1 0.0121096 0.756815 0
634 1 0.0430448 0.726964 0
695 1 0.0533033 0.763706 0
665 1 0.0633301 0.740115 0
666 1 0.0849878 0.748918 0
667 1 0.105288 0.736478 0
668 1 0.10732 0.760388 0
669 1 0.127001 0.746668 0
640 1 0.145595 0.732913 0
670 1 0.147642 0.759188 0
699 1 0.127736 0.772489 0
671 1 0.166015 0.743395 0
672 1 0.168547 0.767651 0
673 1 0.187504 0.753379 0
644 1 0.206868 0.738606 0
674 1 0.208097 0.762874 0
646 1 0.246396 0.732482 0
675 1 0.228677 0.746751 0
677 1 0.248848 0.758097 0
649 1 0.286055 0.728849 0
648 1 0.268196 0.744244 0
678 1 0.270189 0.769773 0
679 1 0.289852 0.754505 0
650 1 0.307617 0.738515 0
681 1 0.313518 0.764268 0
652 1 0.32977 0.746476 0
654 1 0.346893 0.728919 0
683 1 0.353648 0.751486 0
685 1 0.369216 0.733424 0
682 1 0.33853 0.770012 0
715 1 0.392594 0.737722 0
684 1 0.376872 0.756777 0
714 1 0.399945 0.761655 0
689 1 0.454686 0.729421 0
717 1 0.415651 0.743526 0
688 1 0.438918 0.746521 0
716 1 0.42245 0.767599 0
690 1 0.477974 0.734894 0
719 1 0.462225 0.752496 0
1591 1 0.484789 0.759607 0
1562 1 0.500057 0.73998 0
662 1 0.0299271 0.773089 0
693 1 0.0241508 0.796933 0
691 1 0.00693572 0.77984 0
723 1 0.0403007 0.814504 0
721 1 0.00127909 0.804063 0
694 1 0.0460039 0.789813 0
696 1 0.0679121 0.783022 0
725 1 0.062234 0.807607 0
697 1 0.0877586 0.772743 0
727 1 0.0863261 0.798385 0
728 1 0.105868 0.815198 0
698 1 0.107598 0.786946 0
700 1 0.127769 0.798103 0
701 1 0.148033 0.785904 0
731 1 0.149777 0.810808 0
702 1 0.169009 0.793643 0
703 1 0.188838 0.777517 0
733 1 0.189885 0.804109 0
704 1 0.209261 0.78849 0
705 1 0.228419 0.772617 0
735 1 0.211543 0.813729 0
706 1 0.229872 0.797847 0
676 1 0.248734 0.783457 0
737 1 0.250388 0.808925 0
707 1 0.268992 0.793708 0
708 1 0.289456 0.803095 0
709 1 0.293091 0.779445 0
738 1 0.272314 0.818903 0
710 1 0.31071 0.808822 0
680 1 0.322489 0.787345 0
741 1 0.332501 0.814299 0
711 1 0.345847 0.794617 0
713 1 0.361423 0.775615 0
712 1 0.368451 0.799025 0
743 1 0.38351 0.780125 0
745 1 0.391529 0.805564 0
746 1 0.407017 0.786484 0
775 1 0.415699 0.810545 0
718 1 0.446293 0.771701 0
747 1 0.430428 0.79135 0
749 1 0.452959 0.796475 0
748 1 0.437713 0.815566 0
1622 1 0.498145 0.807053 0
720 1 0.468791 0.777399 0
1621 1 0.474982 0.80193 0
1592 1 0.491242 0.783805 0
692 1 0.0190675 0.821238 0
751 1 0.0356241 0.83931 0
1680 1 0.0125712 0.845315 0
753 1 0.0525989 0.855762 0
722 1 0.0572207 0.83176 0
724 1 0.0744143 0.847919 0
726 1 0.0799758 0.822561 0
757 1 0.0971114 0.839521 0
756 1 0.112728 0.857588 0
729 1 0.12873 0.824867 0
759 1 0.133409 0.848523 0
730 1 0.151842 0.835002 0
760 1 0.152636 0.865346 0
732 1 0.17142 0.821356 0
761 1 0.172086 0.845711 0
763 1 0.193523 0.829024 0
762 1 0.194214 0.852591 0
734 1 0.214746 0.841128 0
736 1 0.23177 0.825085 0
765 1 0.23572 0.850922 0
767 1 0.254326 0.834657 0
766 1 0.259279 0.858418 0
768 1 0.276617 0.84385 0
739 1 0.29338 0.827152 0
769 1 0.298806 0.849986 0
740 1 0.316043 0.833341 0
770 1 0.32144 0.856949 0
742 1 0.354588 0.819404 0
771 1 0.338938 0.837685 0
773 1 0.361391 0.84317 0
801 1 0.345245 0.862528 0
744 1 0.376568 0.824288 0
803 1 0.384358 0.848571 0
774 1 0.399386 0.829916 0
776 1 0.406521 0.854258 0
777 1 0.421476 0.834401 0
779 1 0.444491 0.840146 0
778 1 0.428898 0.858701 0
1651 1 0.482852 0.826235 0
750 1 0.460112 0.821125 0
780 1 0.466513 0.845196 0
1652 1 0.489472 0.85014 0
752 1 0.0297936 0.862773 0
781 1 0.00764963 0.870368 0
782 1 0.0245253 0.886796 0
811 1 0.00211402 0.895359 0
813 1 0.0406534 0.903889 0
783 1 0.0464988 0.879181 0
784 1 0.0639803 0.896906 0
754 1 0.0697239 0.872173 0
755 1 0.0914174 0.864992 0
785 1 0.0859981 0.889613 0
787 1 0.107424 0.881654 0
786 1 0.101509 0.906422 0
788 1 0.123956 0.899239 0
758 1 0.130079 0.874447 0
789 1 0.146599 0.8911 0
790 1 0.163461 0.908154 0
791 1 0.168149 0.883781 0
823 1 0.185787 0.901282 0
792 1 0.191831 0.876656 0
793 1 0.207564 0.894329 0
764 1 0.214364 0.866146 0
795 1 0.228758 0.885461 0
825 1 0.246184 0.903494 0
796 1 0.250431 0.879754 0
827 1 0.268945 0.894684 0
797 1 0.282361 0.869957 0
798 1 0.291027 0.893795 0
799 1 0.305124 0.873997 0
829 1 0.312841 0.898407 0
800 1 0.328284 0.880661 0
831 1 0.33596 0.904635 0
802 1 0.351981 0.886355 0
772 1 0.368015 0.866775 0
804 1 0.374212 0.891347 0
805 1 0.390677 0.873075 0
806 1 0.397402 0.897002 0
807 1 0.413457 0.878306 0
809 1 0.451101 0.863896 0
808 1 0.436186 0.88308 0
837 1 0.420188 0.902435 0
810 1 0.458473 0.88999 0
839 1 0.441826 0.908918 0
1681 1 0.473247 0.869443 0
1711 1 0.480198 0.895184 0
1682 1 0.495312 0.874971 0
812 1 0.0185085 0.912014 0
843 1 0.0356291 0.928234 0
841 1 0.0142296 0.936451 0
842 1 0.0300471 0.954025 0
815 1 0.0801629 0.914981 0
844 1 0.0512948 0.94563 0
814 1 0.0575035 0.921293 0
845 1 0.0739467 0.939428 0
816 1 0.0958569 0.931987 0
817 1 0.119054 0.923759 0
847 1 0.112376 0.949073 0
818 1 0.134926 0.941287 0
819 1 0.14088 0.916297 0
820 1 0.157378 0.932749 0
851 1 0.174005 0.949124 0
821 1 0.179639 0.92505 0
824 1 0.201607 0.918989 0
822 1 0.19652 0.943108 0
794 1 0.224148 0.910876 0
853 1 0.218667 0.935087 0
855 1 0.241594 0.927672 0
854 1 0.236147 0.95206 0
826 1 0.26431 0.919692 0
856 1 0.258993 0.944296 0
857 1 0.281499 0.936534 0
828 1 0.297506 0.917849 0
859 1 0.304676 0.941158 0
830 1 0.320833 0.922464 0
860 1 0.326984 0.947188 0
833 1 0.358263 0.910526 0
832 1 0.343218 0.928995 0
863 1 0.365564 0.934792 0
861 1 0.350059 0.95341 0
834 1 0.381571 0.915626 0
865 1 0.388787 0.939965 0
835 1 0.403909 0.921033 0
836 1 0.411389 0.944913 0
838 1 0.426444 0.927585 0
869 1 0.449165 0.932087 0
867 1 0.433632 0.950572 0
1712 1 0.487249 0.919809 0
1741 1 0.472017 0.938464 0
840 1 0.465205 0.914435 0
1742 1 0.495848 0.942186 0
871 1 0.0244195 0.97848 0
1770 1 0.00747589 0.961093 0
1800 1 0.00271855 0.986498 0
872 1 0.0417876 0.996186 0
873 1 0.0467742 0.971568 0
874 1 0.0633779 0.98804 0
875 1 0.0681109 0.963086 0
846 1 0.0903791 0.955946 0
876 1 0.0855139 0.980396 0
877 1 0.10683 0.97293 0
7 1 0.102539 0.997745 0
878 1 0.124222 0.989186 0
849 1 0.151839 0.95675 0
848 1 0.129167 0.964852 0
879 1 0.146097 0.981699 0
881 1 0.163063 0.998842 0
850 1 0.168539 0.973595 0
11 1 0.186031 0.990608 0
852 1 0.191408 0.966195 0
882 1 0.208294 0.983306 0
883 1 0.214002 0.959572 0
884 1 0.230487 0.976605 0
886 1 0.247236 0.993467 0
885 1 0.25364 0.968685 0
17 1 0.269475 0.986779 0
887 1 0.277207 0.962961 0
888 1 0.293956 0.984102 0
858 1 0.311972 0.966676 0
889 1 0.318911 0.990919 0
891 1 0.333842 0.97215 0
890 1 0.342301 0.996527 0
862 1 0.357714 0.977585 0
864 1 0.372839 0.958523 0
893 1 0.380072 0.983133 0
895 1 0.395877 0.963516 0
896 1 0.402879 0.987108 0
866 1 0.418196 0.9695 0
897 1 0.424751 0.99428 0
868 1 0.441148 0.975316 0
870 1 0.456889 0.956417 0
899 1 0.46346 0.980957 0
1772 1 0.485986 0.986175 0
898 1 0.447728 0.999145 0
902 1 0.514815 0.0158032 0
933 1 0.52251 0.0402469 0
904 1 0.537476 0.0203218 0
906 1 0.553355 0.00220161 0
935 1 0.559094 0.0273322 0
908 1 0.575094 0.00688467 0
937 1 0.58221 0.0328549 0
939 1 0.597163 0.0127099 0
938 1 0.604151 0.0388503 0
940 1 0.618982 0.0196502 0
942 1 0.725162 0.0389849 0
943 1 0.748452 0.0303921 0
912 1 0.730316 0.0138463 0
913 1 0.752414 0.00505982 0
914 1 0.769908 0.0212229 0
947 1 0.786934 0.0378029 0
916 1 0.792282 0.012665 0
918 1 0.808999 0.0306223 0
919 1 0.831644 0.0228827 0
917 1 0.81445 0.00524801 0
920 1 0.848233 0.040152 0
1790 1 0.853842 0.0141478 0
951 1 0.87 0.0321346 0
921 1 0.875621 0.00764922 0
922 1 0.892603 0.0253184 0
953 1 0.909249 0.0417012 0
924 1 0.914381 0.0170269 0
955 1 0.931301 0.0332698 0
926 1 0.953315 0.0261448 0
925 1 0.936807 0.00941014 0
957 1 0.971354 0.0428903 0
928 1 0.975854 0.0185218 0
959 1 0.992783 0.0354256 0
929 1 0.997661 0.0113967 0
927 1 0.959612 0.00173218 0
932 1 0.505504 0.0586656 0
963 1 0.528226 0.0641933 0
962 1 0.511452 0.0824571 0
964 1 0.534331 0.088839 0
934 1 0.545125 0.0459249 0
965 1 0.550083 0.0712684 0
936 1 0.567332 0.0522165 0
966 1 0.573502 0.0781399 0
967 1 0.590157 0.0571972 0
968 1 0.596591 0.0824463 0
969 1 0.613626 0.0618718 0
971 1 0.719649 0.0635375 0
944 1 0.743145 0.0542576 0
973 1 0.738323 0.0790204 0
970 1 0.716904 0.0891631 0
945 1 0.765782 0.0460924 0
975 1 0.760487 0.0713186 0
974 1 0.777333 0.0882895 0
946 1 0.782417 0.0628906 0
949 1 0.825633 0.0473168 0
976 1 0.799756 0.0801393 0
948 1 0.803322 0.0554976 0
977 1 0.82177 0.0730963 0
979 1 0.844021 0.0651704 0
950 1 0.865445 0.057059 0
980 1 0.860794 0.0816285 0
978 1 0.838815 0.0906626 0
952 1 0.887661 0.0496881 0
981 1 0.883655 0.074235 0
983 1 0.905065 0.0663602 0
982 1 0.900575 0.0915482 0
984 1 0.922789 0.0834165 0
954 1 0.926843 0.0582324 0
956 1 0.948313 0.0509045 0
985 1 0.94454 0.0751593 0
987 1 0.966626 0.0680551 0
988 1 0.983756 0.0843344 0
958 1 0.987784 0.0605173 0
992 1 0.501888 0.126167 0
993 1 0.518518 0.106648 0
1023 1 0.524401 0.131385 0
994 1 0.54073 0.112967 0
995 1 0.556964 0.0952912 0
996 1 0.562995 0.119616 0
997 1 0.579166 0.102159 0
1027 1 0.586171 0.126023 0
998 1 0.601666 0.107743 0
1029 1 0.608836 0.130794 0
1000 1 0.624466 0.113475 0
1030 1 0.647279 0.119661 0
999 1 0.663655 0.100403 0
1001 1 0.686097 0.107392 0
1032 1 0.670354 0.124991 0
1031 1 0.692817 0.131726 0
972 1 0.733013 0.10666 0
1002 1 0.709216 0.113105 0
1033 1 0.750348 0.122786 0
1003 1 0.754261 0.0974426 0
1004 1 0.772844 0.113608 0
1035 1 0.78992 0.130387 0
1005 1 0.794077 0.105399 0
1007 1 0.816313 0.097145 0
1006 1 0.811336 0.121578 0
1008 1 0.833833 0.115127 0
1039 1 0.850729 0.131205 0
1009 1 0.856292 0.106112 0
1010 1 0.873466 0.123199 0
1011 1 0.879228 0.099271 0
1012 1 0.89589 0.11604 0
1043 1 0.912929 0.132693 0
1013 1 0.917838 0.107115 0
1014 1 0.934201 0.124575 0
1015 1 0.939521 0.0997193 0
1017 1 0.956529 0.117808 0
986 1 0.961854 0.0922262 0
1047 1 0.973208 0.134746 0
1018 1 0.978412 0.109938 0
1049 1 0.994922 0.127168 0
1022 1 0.508571 0.151553 0
1053 1 0.516113 0.176232 0
1024 1 0.531867 0.155404 0
1025 1 0.547118 0.137295 0
1055 1 0.554522 0.162227 0
1026 1 0.569713 0.143821 0
1057 1 0.57714 0.168227 0
1028 1 0.592853 0.150333 0
1087 1 0.598882 0.174374 0
1058 1 0.614716 0.156171 0
1059 1 0.630857 0.137886 0
1060 1 0.636642 0.161629 0
1061 1 0.653984 0.142687 0
1091 1 0.658867 0.167074 0
1062 1 0.676641 0.150528 0
1093 1 0.681144 0.17472 0
1064 1 0.698318 0.155792 0
1063 1 0.716452 0.136749 0
1095 1 0.721108 0.162259 0
1034 1 0.737987 0.143593 0
1066 1 0.742961 0.168694 0
1065 1 0.767801 0.139544 0
1097 1 0.765283 0.174823 0
1037 1 0.828968 0.139112 0
1036 1 0.807108 0.146823 0
1067 1 0.82385 0.163353 0
1038 1 0.84684 0.155818 0
1040 1 0.86751 0.147305 0
1069 1 0.862812 0.172257 0
1068 1 0.840376 0.180451 0
1041 1 0.889295 0.140429 0
1071 1 0.883793 0.164548 0
1042 1 0.906467 0.157284 0
1072 1 0.90149 0.181815 0
1073 1 0.923995 0.174258 0
1044 1 0.928912 0.14946 0
1016 1 0.95117 0.14237 0
1045 1 0.945796 0.166963 0
1046 1 0.967449 0.159458 0
1077 1 0.985188 0.17646 0
1048 1 0.989841 0.151941 0
1054 1 0.538563 0.181567 0
1083 1 0.522085 0.200186 0
1082 1 0.505425 0.218318 0
1084 1 0.527855 0.224758 0
1085 1 0.544164 0.206371 0
1056 1 0.560257 0.186469 0
1115 1 0.565761 0.211407 0
1086 1 0.582944 0.192113 0
1089 1 0.621187 0.18029 0
1117 1 0.588389 0.216153 0
1088 1 0.605177 0.198523 0
1118 1 0.610369 0.224635 0
1119 1 0.626735 0.207307 0
1090 1 0.641906 0.188044 0
1121 1 0.649146 0.212651 0
1094 1 0.703685 0.180366 0