ITEM: TIMESTEP
204000
ITEM: NUMBER OF ATOMS
1800
ITEM: BOX BOUNDS pp pp pp
-7.0327224859307407e+00 1.7203272248593265e+02
1.1826529217466231e+00 1.6381734707825530e+02
0.0000000000000000e+00 5.5000000000000000e+00
ITEM: ATOMS id type xs ys zs
930 1 0.0239804 0.0202986 0
929 1 0.00707368 0.00407882 0
31 1 0.0398547 0.0386878 0
959 1 0.000663225 0.0291327 0
2 1 0.0449825 0.0129547 0
33 1 0.0613837 0.0312557 0
3 1 0.066411 0.00607186 0
4 1 0.0833439 0.0219619 0
6 1 0.105928 0.0153208 0
37 1 0.122057 0.0319236 0
35 1 0.100602 0.0407752 0
8 1 0.127665 0.00729832 0
39 1 0.144639 0.0242496 0
1108 1 0.000753304 0.246367 0
9 1 0.166066 0.0172452 0
69 1 0.160677 0.042018 0
40 1 0.182206 0.0344353 0
10 1 0.187586 0.0095394 0
41 1 0.20357 0.026525 0
12 1 0.208445 0.0021034 0
14 1 0.225752 0.0188262 0
15 1 0.2475 0.010357 0
45 1 0.243813 0.037231 0
43 1 0.220105 0.0438968 0
16 1 0.268341 0.00291798 0
46 1 0.264345 0.0270453 0
47 1 0.287591 0.0220695 0
77 1 0.27739 0.0453659 0
49 1 0.311348 0.0328616 0
19 1 0.307022 0.00939377 0
20 1 0.328107 0.0147914 0
51 1 0.333925 0.0383968 0
21 1 0.349988 0.0206192 0
23 1 0.37184 0.0270895 0
892 1 0.365549 0.00293554 0
894 1 0.386317 0.00938644 0
24 1 0.393366 0.0331309 0
25 1 0.40904 0.0143092 0
26 1 0.414672 0.0382575 0
27 1 0.430334 0.0208713 0
29 1 0.452472 0.0267997 0
898 1 0.446103 0.00290427 0
900 1 0.468535 0.00922656 0
30 1 0.474642 0.0337586 0
901 1 0.490626 0.0156663 0
931 1 0.496135 0.0400127 0
960 1 0.0179486 0.045455 0
989 1 0.013171 0.0709935 0
61 1 0.0349632 0.062523 0
990 1 0.029102 0.0880604 0
62 1 0.0506496 0.0812751 0
32 1 0.0565156 0.0552776 0
63 1 0.0726692 0.0717338 0
34 1 0.0787963 0.0480978 0
65 1 0.0953316 0.0647648 0
36 1 0.117001 0.0568764 0
66 1 0.112255 0.0823515 0
64 1 0.0902255 0.0891053 0
67 1 0.134087 0.0736013 0
38 1 0.138873 0.0480684 0
68 1 0.155215 0.0664709 0
70 1 0.173293 0.0840422 0
71 1 0.176709 0.0589466 0
72 1 0.194146 0.0760514 0
42 1 0.198673 0.0512521 0
73 1 0.216085 0.0689944 0
44 1 0.237145 0.0608986 0
105 1 0.23305 0.0849435 0
74 1 0.262462 0.086294 0
75 1 0.259902 0.0611589 0
76 1 0.280439 0.0702199 0
48 1 0.298218 0.052392 0
79 1 0.30343 0.0758118 0
50 1 0.31983 0.0570186 0
81 1 0.325493 0.0812219 0
22 1 0.355782 0.0452798 0
52 1 0.340959 0.0632193 0
83 1 0.361655 0.0704002 0
82 1 0.346191 0.0878623 0
53 1 0.377126 0.0518492 0
54 1 0.383753 0.0754415 0
55 1 0.399085 0.0572826 0
56 1 0.405231 0.0816827 0
28 1 0.436916 0.0453883 0
57 1 0.421096 0.0643596 0
58 1 0.442658 0.0706858 0
87 1 0.427054 0.0879963 0
59 1 0.458091 0.0519563 0
89 1 0.464055 0.0770912 0
60 1 0.479625 0.058536 0
961 1 0.486321 0.0837322 0
1020 1 0.0246681 0.112582 0
1019 1 0.00763111 0.09485 0
1049 1 0.00388099 0.120438 0
1050 1 0.0202013 0.136868 0
121 1 0.042457 0.12961 0
91 1 0.0458097 0.105004 0
92 1 0.0633151 0.121221 0
93 1 0.0680426 0.0967323 0
94 1 0.0853845 0.114996 0
95 1 0.106808 0.106192 0
96 1 0.122973 0.12225 0
125 1 0.101561 0.131069 0
97 1 0.129479 0.0981955 0
98 1 0.145659 0.116036 0
99 1 0.151493 0.0913159 0
129 1 0.162653 0.133613 0
100 1 0.16751 0.108779 0
130 1 0.185267 0.125878 0
101 1 0.189413 0.100402 0
102 1 0.20752 0.116982 0
103 1 0.211638 0.0925733 0
104 1 0.230902 0.121778 0
106 1 0.247272 0.104638 0
137 1 0.253974 0.129242 0
107 1 0.269058 0.111539 0
78 1 0.285919 0.0937456 0
108 1 0.275932 0.135875 0
109 1 0.2918 0.117037 0
80 1 0.309079 0.0996672 0
110 1 0.314534 0.123797 0
111 1 0.331357 0.106506 0
141 1 0.336312 0.131184 0
113 1 0.35254 0.112658 0
84 1 0.368374 0.0938832 0
112 1 0.374211 0.118682 0
85 1 0.390272 0.100383 0
115 1 0.395649 0.124195 0
86 1 0.411389 0.107219 0
116 1 0.417965 0.131266 0
88 1 0.448532 0.0950555 0
117 1 0.433014 0.11265 0
119 1 0.45524 0.118935 0
90 1 0.471856 0.101425 0
120 1 0.477455 0.126066 0
991 1 0.493378 0.108098 0
992 1 0.499105 0.132518 0
1079 1 0.0151936 0.161019 0
151 1 0.0368712 0.153821 0
1080 1 0.0313514 0.178854 0
152 1 0.0529947 0.171181 0
122 1 0.05902 0.146115 0
153 1 0.0749136 0.165519 0
123 1 0.0798742 0.13939 0
124 1 0.0962449 0.155901 0
126 1 0.119295 0.146465 0
155 1 0.113659 0.171557 0
154 1 0.0924698 0.181908 0
157 1 0.135481 0.163488 0
127 1 0.140947 0.14063 0
128 1 0.157453 0.158739 0
159 1 0.179091 0.150644 0
131 1 0.200249 0.158942 0
132 1 0.184536 0.175141 0
135 1 0.237407 0.146081 0
133 1 0.215456 0.140185 0
134 1 0.22229 0.164072 0
165 1 0.244199 0.170697 0
136 1 0.259659 0.153999 0
138 1 0.282127 0.159889 0
167 1 0.266534 0.177669 0
139 1 0.298546 0.14086 0
169 1 0.304334 0.165155 0
140 1 0.31981 0.147716 0
171 1 0.325579 0.172124 0
143 1 0.358108 0.138342 0
142 1 0.341377 0.155135 0
173 1 0.364164 0.161639 0
172 1 0.347796 0.179533 0
114 1 0.379685 0.142419 0
144 1 0.386157 0.167574 0
145 1 0.402193 0.149337 0
146 1 0.40812 0.174039 0
118 1 0.440073 0.137284 0
147 1 0.424051 0.154771 0
148 1 0.446065 0.161449 0
177 1 0.430067 0.179961 0
1051 1 0.489124 0.175997 0
149 1 0.462316 0.144214 0
150 1 0.468516 0.168411 0
1021 1 0.484201 0.149957 0
1107 1 0.00512209 0.210595 0
1109 1 0.0267799 0.205351 0
1078 1 0.0105205 0.186498 0
181 1 0.0481019 0.195889 0
183 1 0.0701021 0.19052 0
182 1 0.0562613 0.218612 0
185 1 0.0930123 0.208318 0
186 1 0.114826 0.219215 0
156 1 0.111574 0.195905 0
158 1 0.132528 0.202374 0
160 1 0.148427 0.184461 0
189 1 0.153741 0.209213 0
187 1 0.136445 0.227399 0
163 1 0.20732 0.182582 0
161 1 0.169412 0.192518 0
191 1 0.174711 0.217897 0
162 1 0.190999 0.200563 0
192 1 0.196345 0.224895 0
193 1 0.213043 0.207116 0
164 1 0.228647 0.18892 0
195 1 0.234488 0.213039 0
166 1 0.250719 0.195725 0
196 1 0.256483 0.219782 0
197 1 0.272278 0.201799 0
168 1 0.288402 0.183663 0
198 1 0.277828 0.226162 0
199 1 0.294285 0.207996 0
170 1 0.310079 0.18995 0
200 1 0.316092 0.21492 0
201 1 0.331825 0.19735 0
202 1 0.338259 0.221904 0
203 1 0.353706 0.204176 0
174 1 0.369943 0.185835 0
204 1 0.374911 0.210106 0
175 1 0.392056 0.191436 0
205 1 0.397076 0.216139 0
176 1 0.414361 0.197899 0
179 1 0.451623 0.185656 0
207 1 0.419397 0.222777 0
178 1 0.434874 0.204833 0
209 1 0.457661 0.211564 0
180 1 0.473083 0.193271 0
1081 1 0.478585 0.219468 0
1052 1 0.494291 0.200681 0
449 1 0.459858 0.486994 0
211 1 0.0392957 0.236168 0
1140 1 0.0223172 0.254749 0
1110 1 0.0182811 0.23047 0
1139 1 0.00588615 0.27224 0
1351 1 0.481811 0.493358 0
212 1 0.0439265 0.261955 0
184 1 0.0772325 0.226685 0
213 1 0.0607531 0.243537 0
214 1 0.0820939 0.252645 0
243 1 0.0656561 0.268986 0
215 1 0.0978807 0.235104 0
216 1 0.102171 0.259938 0
217 1 0.118698 0.243563 0
218 1 0.125043 0.269744 0
188 1 0.14057 0.252288 0
190 1 0.158129 0.235134 0
220 1 0.163016 0.259901 0
221 1 0.180129 0.243104 0
222 1 0.18484 0.267502 0
223 1 0.202094 0.248814 0
194 1 0.218156 0.231449 0
224 1 0.223954 0.254571 0
225 1 0.240524 0.237583 0
226 1 0.247169 0.262847 0
227 1 0.2622 0.243871 0
228 1 0.283464 0.250294 0
257 1 0.267532 0.268999 0
229 1 0.299423 0.232705 0
230 1 0.304674 0.257833 0
231 1 0.321607 0.238984 0
261 1 0.326894 0.263313 0
233 1 0.359529 0.228586 0
232 1 0.344197 0.247814 0
234 1 0.365981 0.253227 0
263 1 0.348586 0.271435 0
235 1 0.381593 0.234898 0
265 1 0.387254 0.259234 0
206 1 0.403463 0.241215 0
236 1 0.409189 0.265945 0
208 1 0.441065 0.229502 0
237 1 0.42444 0.247789 0
239 1 0.446293 0.254683 0
238 1 0.430335 0.27264 0
210 1 0.462685 0.236575 0
240 1 0.467718 0.26102 0
1111 1 0.484185 0.242928 0
1112 1 0.490222 0.267196 0
1169 1 0.0119935 0.296413 0
241 1 0.0276829 0.278824 0
271 1 0.0326337 0.30486 0
242 1 0.0490483 0.287794 0
244 1 0.0711156 0.294359 0
273 1 0.0545954 0.311838 0
245 1 0.0875245 0.278181 0
246 1 0.0925785 0.302573 0
247 1 0.109195 0.285785 0
248 1 0.11465 0.310217 0
249 1 0.13152 0.293794 0
219 1 0.147178 0.276183 0
250 1 0.152325 0.300259 0
279 1 0.13652 0.317519 0
253 1 0.207207 0.273118 0
251 1 0.168755 0.28431 0
281 1 0.174604 0.308044 0
252 1 0.190743 0.291008 0
283 1 0.196518 0.314704 0
254 1 0.2126 0.297651 0
255 1 0.229833 0.279761 0
285 1 0.234185 0.303801 0
256 1 0.251699 0.286518 0
259 1 0.289125 0.276316 0
287 1 0.256701 0.310809 0
258 1 0.272756 0.293289 0
289 1 0.294646 0.300114 0
260 1 0.311434 0.28198 0
291 1 0.316297 0.306469 0
262 1 0.332983 0.288871 0
293 1 0.354439 0.295159 0
292 1 0.337833 0.313576 0
264 1 0.370913 0.277728 0
295 1 0.377204 0.30154 0
266 1 0.392928 0.282956 0
297 1 0.398846 0.307542 0
267 1 0.414707 0.291662 0
268 1 0.436189 0.297189 0
298 1 0.420676 0.315684 0
269 1 0.451469 0.279813 0
270 1 0.458349 0.304675 0
1141 1 0.473675 0.285777 0
300 1 0.479739 0.310261 0
1171 1 0.495604 0.291202 0
1200 1 0.0373015 0.329252 0
1229 1 0.0220625 0.34616 0
1170 1 0.0164253 0.321503 0
301 1 0.0438603 0.352695 0
275 1 0.0770512 0.319192 0
272 1 0.0605998 0.335316 0
274 1 0.0815884 0.344611 0
303 1 0.0648107 0.361393 0
276 1 0.0973912 0.326994 0
305 1 0.103109 0.351452 0
277 1 0.119627 0.334503 0
307 1 0.125877 0.358941 0
278 1 0.141681 0.342009 0
280 1 0.158081 0.324726 0
311 1 0.162879 0.348899 0
282 1 0.179693 0.332115 0
312 1 0.183751 0.356857 0
313 1 0.201173 0.339349 0
284 1 0.218435 0.322258 0
315 1 0.223158 0.346677 0
286 1 0.240102 0.327997 0
316 1 0.245335 0.352597 0
288 1 0.27802 0.317801 0
317 1 0.261215 0.335038 0
319 1 0.282631 0.34195 0
318 1 0.266771 0.360124 0
290 1 0.299445 0.32446 0
320 1 0.305608 0.347784 0
321 1 0.321722 0.331371 0
322 1 0.326795 0.35512 0
294 1 0.359487 0.319446 0
323 1 0.343882 0.337269 0
325 1 0.366231 0.343279 0
296 1 0.382946 0.325012 0
326 1 0.387601 0.349736 0
327 1 0.404069 0.332801 0
328 1 0.409098 0.357107 0
299 1 0.442151 0.321796 0
329 1 0.425563 0.339892 0
359 1 0.447318 0.346197 0
358 1 0.430686 0.36458 0
330 1 0.464013 0.328831 0
360 1 0.469197 0.353002 0
1201 1 0.485895 0.33503 0
1231 1 0.490763 0.359654 0
1259 1 0.00524471 0.363205 0
1230 1 0.0271966 0.370808 0
331 1 0.0323614 0.395058 0
1260 1 0.0100929 0.386916 0
302 1 0.0484733 0.377197 0
333 1 0.0705972 0.385645 0
332 1 0.0539438 0.402945 0
304 1 0.0863875 0.368487 0
335 1 0.0922677 0.39283 0
306 1 0.108831 0.375366 0
337 1 0.113951 0.399769 0
308 1 0.131035 0.383336 0
309 1 0.147759 0.366155 0
339 1 0.152124 0.390634 0
314 1 0.206211 0.364022 0
310 1 0.1693 0.375323 0
341 1 0.174661 0.399043 0
343 1 0.190244 0.381302 0
342 1 0.196566 0.405598 0
344 1 0.212301 0.387539 0
345 1 0.22884 0.370836 0
346 1 0.233817 0.394497 0
347 1 0.250871 0.378078 0
377 1 0.256408 0.402172 0
348 1 0.272592 0.383601 0
349 1 0.289049 0.366214 0
350 1 0.29431 0.391138 0
351 1 0.310768 0.372587 0
381 1 0.316124 0.398023 0
353 1 0.333483 0.37943 0
324 1 0.34943 0.36132 0
354 1 0.355238 0.385812 0
352 1 0.33828 0.404568 0
355 1 0.371782 0.367843 0
356 1 0.377541 0.39285 0
357 1 0.393192 0.37492 0
386 1 0.399129 0.399425 0
387 1 0.414863 0.382047 0
389 1 0.436151 0.388841 0
388 1 0.420117 0.407032 0
1232 1 0.452646 0.371293 0
1261 1 0.458086 0.395377 0
1262 1 0.474703 0.376982 0
1293 1 0.479457 0.401137 0
1263 1 0.496327 0.383446 0
361 1 0.0375819 0.419461 0
391 1 0.0214756 0.437507 0
1290 1 0.016109 0.41178 0
1320 1 0.00476944 0.453464 0
362 1 0.0425053 0.444632 0
334 1 0.076239 0.410416 0
363 1 0.0604362 0.428085 0
365 1 0.0814025 0.435071 0
364 1 0.0650303 0.451871 0
336 1 0.098084 0.416519 0
366 1 0.102931 0.442041 0
367 1 0.11958 0.425399 0
368 1 0.125692 0.449508 0
338 1 0.135729 0.407233 0
369 1 0.141575 0.431798 0
340 1 0.157954 0.415217 0
370 1 0.163858 0.439995 0
371 1 0.180686 0.4233 0
401 1 0.186559 0.447182 0
372 1 0.202566 0.429935 0
373 1 0.218689 0.411036 0
374 1 0.223896 0.437031 0
375 1 0.239914 0.41935 0
405 1 0.246205 0.443765 0
378 1 0.277797 0.408567 0
376 1 0.261662 0.42666 0
409 1 0.283775 0.433115 0
407 1 0.267835 0.45067 0
379 1 0.299624 0.415625 0
380 1 0.305426 0.439992 0
382 1 0.321575 0.421804 0
413 1 0.327492 0.446982 0
385 1 0.359768 0.41084 0
383 1 0.343773 0.429079 0
414 1 0.36524 0.434916 0
384 1 0.382336 0.416912 0
415 1 0.387057 0.441302 0
417 1 0.404739 0.424147 0
416 1 0.409933 0.449339 0
419 1 0.442041 0.412433 0
418 1 0.426312 0.431783 0
390 1 0.447173 0.437929 0
447 1 0.431582 0.456419 0
1292 1 0.485843 0.424775 0
1291 1 0.463781 0.419663 0
1321 1 0.469874 0.443855 0
1322 1 0.491428 0.449009 0
421 1 0.0100764 0.478131 0
392 1 0.0263963 0.461584 0
422 1 0.0317724 0.485407 0
393 1 0.0483791 0.469065 0
394 1 0.0700766 0.476917 0
423 1 0.0538899 0.493108 0
395 1 0.0869561 0.459069 0
396 1 0.092064 0.484303 0
397 1 0.108385 0.46657 0
427 1 0.113692 0.490953 0
399 1 0.146475 0.456822 0
398 1 0.129784 0.474151 0
429 1 0.152179 0.481331 0
428 1 0.135334 0.497777 0
400 1 0.169128 0.46377 0
431 1 0.173277 0.487593 0
402 1 0.190938 0.471895 0
432 1 0.196259 0.495301 0
403 1 0.207904 0.454656 0
433 1 0.212453 0.479342 0
404 1 0.23044 0.46203 0
435 1 0.234871 0.486666 0
406 1 0.252008 0.468177 0
436 1 0.256562 0.493318 0
408 1 0.273613 0.474415 0
410 1 0.290085 0.457709 0
441 1 0.295484 0.481672 0
411 1 0.311453 0.4645 0
440 1 0.317146 0.489131 0
442 1 0.332897 0.4717 0
412 1 0.348692 0.454677 0
471 1 0.338185 0.496466 0
473 1 0.354468 0.478721 0
443 1 0.370672 0.460384 0
444 1 0.376744 0.484207 0
445 1 0.392928 0.467044 0
475 1 0.398822 0.491806 0
446 1 0.414864 0.474064 0
477 1 0.420389 0.498483 0
420 1 0.453445 0.463138 0
448 1 0.437016 0.48024 0
450 1 0.47495 0.468761 0
425 1 0.0755161 0.501607 0
1353 1 0.496308 0.473651 0
453 1 0.0371204 0.509856 0
452 1 0.0204418 0.527232 0
451 1 0.0152818 0.502238 0
454 1 0.0425322 0.534053 0
481 1 0.00435831 0.544378 0
424 1 0.0590229 0.517333 0
455 1 0.0798746 0.525695 0
485 1 0.0636785 0.54275 0
1772 1 0.484503 0.99087 0
426 1 0.0972294 0.508529 0
456 1 0.102653 0.532074 0
457 1 0.118862 0.514923 0
458 1 0.123364 0.540965 0
459 1 0.139935 0.523512 0
430 1 0.157373 0.505272 0
460 1 0.161824 0.530742 0
461 1 0.178454 0.512062 0
462 1 0.184614 0.536372 0
463 1 0.201301 0.519324 0
434 1 0.218292 0.504144 0
464 1 0.223191 0.528538 0
465 1 0.239779 0.510733 0
466 1 0.24607 0.535751 0
437 1 0.262925 0.517087 0
467 1 0.283548 0.523803 0
497 1 0.267303 0.541552 0
439 1 0.278412 0.49873 0
438 1 0.299992 0.50637 0
468 1 0.305408 0.530903 0
469 1 0.321227 0.513796 0
499 1 0.326991 0.538354 0
470 1 0.343927 0.520754 0
503 1 0.365692 0.52716 0
472 1 0.360022 0.503509 0
474 1 0.382616 0.509112 0
505 1 0.388481 0.53485 0
476 1 0.404907 0.516534 0
506 1 0.410026 0.541951 0
507 1 0.42663 0.522974 0
478 1 0.442768 0.505123 0
480 1 0.449005 0.528173 0
479 1 0.465711 0.511159 0
510 1 0.47061 0.535249 0
1381 1 0.487894 0.516965 0
1411 1 0.491943 0.540667 0
482 1 0.0305145 0.575754 0
483 1 0.026211 0.552014 0
1410 1 0.00886104 0.569225 0
513 1 0.0472945 0.559646 0
484 1 0.0684698 0.567075 0
514 1 0.0519365 0.583851 0
486 1 0.0852634 0.549523 0
515 1 0.090962 0.57497 0
487 1 0.106688 0.55728 0
517 1 0.113118 0.581827 0
489 1 0.145077 0.547618 0
488 1 0.128714 0.564927 0
490 1 0.151048 0.571349 0
519 1 0.134528 0.590011 0
493 1 0.207006 0.544056 0
491 1 0.16776 0.554006 0
521 1 0.173265 0.578422 0
492 1 0.189842 0.560324 0
523 1 0.196048 0.585255 0
494 1 0.211994 0.568451 0
495 1 0.229003 0.552668 0
525 1 0.23504 0.576419 0
496 1 0.250976 0.559568 0
526 1 0.257227 0.583459 0
527 1 0.273555 0.56642 0
498 1 0.29015 0.549132 0
529 1 0.296283 0.575854 0
500 1 0.312477 0.556984 0
530 1 0.317813 0.582535 0
501 1 0.35061 0.545016 0
531 1 0.333544 0.564741 0
533 1 0.356072 0.570016 0
502 1 0.372649 0.552273 0
532 1 0.340055 0.589246 0
534 1 0.379034 0.577406 0
504 1 0.394409 0.559096 0
535 1 0.401501 0.582535 0
508 1 0.4172 0.565077 0
509 1 0.432017 0.546449 0
539 1 0.439314 0.571138 0
540 1 0.454614 0.55247 0
537 1 0.422826 0.588578 0
1442 1 0.483065 0.584009 0
569 1 0.460429 0.577672 0
1441 1 0.476084 0.559488 0
1771 1 0.478218 0.966563 0
511 1 0.0142173 0.592613 0
512 1 0.0349547 0.600713 0
541 1 0.0181113 0.617654 0
542 1 0.0403847 0.624566 0
1470 1 0.00188351 0.634754 0
545 1 0.0741298 0.591598 0
543 1 0.0572686 0.607717 0
546 1 0.0794455 0.615328 0
544 1 0.0627354 0.632613 0
516 1 0.0960729 0.598455 0
547 1 0.101262 0.623514 0
518 1 0.117836 0.606326 0
577 1 0.122616 0.631929 0
520 1 0.156758 0.595415 0
548 1 0.13951 0.614901 0
549 1 0.162953 0.619129 0
522 1 0.179958 0.60183 0
551 1 0.185355 0.626251 0
553 1 0.202287 0.609274 0
524 1 0.21896 0.592638 0
554 1 0.225098 0.617643 0
555 1 0.241114 0.600423 0
556 1 0.245856 0.626465 0
528 1 0.278778 0.592129 0
557 1 0.262616 0.609753 0
558 1 0.284621 0.616769 0
559 1 0.301755 0.599918 0
561 1 0.323185 0.607343 0
560 1 0.305514 0.624001 0
591 1 0.329033 0.63068 0
562 1 0.345208 0.612894 0
563 1 0.361866 0.594688 0
565 1 0.367762 0.618511 0
564 1 0.351251 0.636396 0
536 1 0.384395 0.602253 0
566 1 0.390464 0.625613 0
567 1 0.40712 0.606805 0
597 1 0.41244 0.631465 0
568 1 0.429627 0.61358 0
538 1 0.44494 0.596107 0
600 1 0.451871 0.619771 0
570 1 0.467563 0.601388 0
1501 1 0.47358 0.626425 0
1471 1 0.489569 0.608737 0
1472 1 0.494858 0.632318 0
572 1 0.0287189 0.665743 0
571 1 0.0241578 0.641984 0
1500 1 0.00542636 0.660493 0
573 1 0.0457668 0.648918 0
603 1 0.0504453 0.672493 0
574 1 0.0678465 0.656819 0
604 1 0.0708952 0.681691 0
575 1 0.0852146 0.641441 0
605 1 0.0892568 0.666414 0
576 1 0.10752 0.649644 0
607 1 0.110208 0.675446 0
578 1 0.129405 0.661921 0
579 1 0.143492 0.640882 0
609 1 0.15001 0.675365 0
550 1 0.167021 0.642375 0
552 1 0.20711 0.633553 0
580 1 0.170996 0.666589 0
581 1 0.188998 0.650587 0
611 1 0.192045 0.675459 0
582 1 0.210203 0.658942 0
583 1 0.228608 0.642457 0
584 1 0.231964 0.667213 0
585 1 0.249447 0.651142 0
587 1 0.268176 0.634249 0
586 1 0.273097 0.659882 0
589 1 0.290407 0.641827 0
588 1 0.295975 0.666897 0
590 1 0.31195 0.64822 0
621 1 0.320811 0.67262 0
593 1 0.33553 0.65506 0
594 1 0.358243 0.661482 0
592 1 0.343699 0.678757 0
595 1 0.374604 0.643016 0
625 1 0.380823 0.667648 0
596 1 0.396694 0.649494 0
627 1 0.403658 0.673966 0
599 1 0.435186 0.638193 0
598 1 0.419304 0.655895 0
628 1 0.441241 0.662246 0
629 1 0.456799 0.643375 0
657 1 0.425532 0.679506 0
630 1 0.463189 0.666882 0
1502 1 0.480047 0.650247 0
1533 1 0.485367 0.674092 0
631 1 0.00881526 0.709697 0
602 1 0.0314317 0.701436 0
601 1 0.0150488 0.684936 0
632 1 0.0262375 0.725317 0
633 1 0.0531744 0.696699 0
635 1 0.0729511 0.708224 0
634 1 0.0515753 0.72074 0
606 1 0.0909555 0.691172 0
636 1 0.0933081 0.717246 0
637 1 0.110353 0.701673 0
608 1 0.130328 0.687988 0
638 1 0.131555 0.713176 0
639 1 0.150476 0.701024 0
640 1 0.153049 0.725579 0
610 1 0.171181 0.689847 0
641 1 0.172747 0.713803 0
612 1 0.192548 0.699445 0
642 1 0.192654 0.725212 0
613 1 0.213628 0.68302 0
643 1 0.212889 0.710469 0
614 1 0.235644 0.694152 0
645 1 0.233298 0.720526 0
615 1 0.254466 0.675449 0
616 1 0.259193 0.701903 0
617 1 0.279097 0.684171 0
647 1 0.273828 0.723588 0
618 1 0.289525 0.707176 0
619 1 0.304986 0.690318 0
620 1 0.310806 0.714691 0
622 1 0.326828 0.696577 0
651 1 0.333104 0.721349 0
653 1 0.349412 0.703315 0
624 1 0.371596 0.709089 0
623 1 0.365247 0.68497 0
654 1 0.356163 0.727887 0
655 1 0.394601 0.715492 0
626 1 0.387329 0.691695 0
656 1 0.409625 0.697206 0
686 1 0.416424 0.722901 0
658 1 0.43142 0.703835 0
659 1 0.447615 0.68467 0
660 1 0.453627 0.708818 0
1531 1 0.469916 0.691749 0
1561 1 0.476437 0.715795 0
1532 1 0.491921 0.697509 0
1563 1 0.498035 0.721354 0
663 1 0.0205187 0.749876 0
661 1 0.0033097 0.73339 0
662 1 0.0365784 0.766885 0
664 1 0.0425146 0.742613 0
695 1 0.0593375 0.757964 0
665 1 0.0704658 0.735329 0
666 1 0.0943002 0.741468 0
667 1 0.113462 0.727217 0
668 1 0.114454 0.752968 0
697 1 0.095124 0.765184 0
669 1 0.133565 0.738904 0
670 1 0.154008 0.751222 0
699 1 0.133666 0.765096 0
671 1 0.172949 0.738916 0
672 1 0.173307 0.763851 0
673 1 0.193033 0.749988 0
644 1 0.21359 0.735504 0
674 1 0.212929 0.760699 0
675 1 0.233557 0.746002 0
705 1 0.232907 0.770948 0
646 1 0.253189 0.733424 0
677 1 0.253139 0.757695 0
648 1 0.276151 0.749111 0
649 1 0.295034 0.732079 0
679 1 0.301823 0.755892 0
650 1 0.318133 0.73863 0
681 1 0.324955 0.763986 0
652 1 0.340579 0.745854 0
682 1 0.347304 0.769185 0
683 1 0.362599 0.751773 0
685 1 0.378503 0.733309 0
684 1 0.384972 0.758507 0
715 1 0.401097 0.741144 0
714 1 0.406779 0.765752 0
717 1 0.42227 0.748062 0
687 1 0.438385 0.72784 0
688 1 0.444584 0.753022 0
716 1 0.428492 0.771862 0
689 1 0.46035 0.733805 0
719 1 0.465802 0.75868 0
690 1 0.482285 0.740907 0
1591 1 0.488116 0.766208 0
691 1 0.0146995 0.773819 0
693 1 0.0327958 0.790933 0
721 1 0.010523 0.798428 0
692 1 0.0267127 0.815311 0
723 1 0.0484871 0.808388 0
694 1 0.0542279 0.783108 0
696 1 0.0750892 0.774461 0
725 1 0.0709625 0.800193 0
727 1 0.0926836 0.792316 0
728 1 0.111394 0.807246 0
698 1 0.113623 0.779687 0
726 1 0.088336 0.816938 0
700 1 0.134043 0.79279 0
701 1 0.153003 0.777487 0
731 1 0.154829 0.801967 0
729 1 0.133465 0.81691 0
703 1 0.193319 0.775026 0
702 1 0.174138 0.788933 0
733 1 0.19494 0.798908 0
732 1 0.175934 0.814684 0
704 1 0.214498 0.785272 0
735 1 0.215212 0.810597 0
706 1 0.234424 0.797846 0
678 1 0.286511 0.774853 0
676 1 0.252464 0.782986 0
737 1 0.255216 0.808711 0
707 1 0.272117 0.793206 0
709 1 0.308568 0.781003 0
708 1 0.293049 0.799376 0
710 1 0.315259 0.805735 0
680 1 0.330359 0.787829 0
713 1 0.368611 0.775858 0
711 1 0.353423 0.793417 0
741 1 0.336887 0.81282 0
712 1 0.375387 0.799861 0
742 1 0.358849 0.81926 0
743 1 0.390643 0.782346 0
745 1 0.396658 0.808302 0
746 1 0.412334 0.789242 0
775 1 0.417683 0.81338 0
718 1 0.451931 0.778086 0
747 1 0.434545 0.796356 0
749 1 0.456538 0.802343 0
870 1 0.455367 0.959244 0
720 1 0.472923 0.784101 0
1621 1 0.478668 0.809511 0
1592 1 0.494014 0.791144 0
1680 1 0.0210205 0.839957 0
752 1 0.0383002 0.857245 0
1650 1 0.00533329 0.823399 0
899 1 0.461793 0.985245 0
751 1 0.0428209 0.832959 0
753 1 0.0598855 0.849514 0
722 1 0.0648187 0.82439 0
724 1 0.0817239 0.840858 0
757 1 0.103846 0.833212 0
756 1 0.119357 0.851263 0
755 1 0.0984838 0.858506 0
759 1 0.139596 0.841023 0
730 1 0.157335 0.827763 0
760 1 0.158918 0.855377 0
761 1 0.177066 0.839867 0
763 1 0.196283 0.82409 0
762 1 0.197877 0.847621 0
736 1 0.236809 0.822682 0
734 1 0.217192 0.835241 0
765 1 0.238187 0.849689 0
764 1 0.215781 0.86126 0
738 1 0.276118 0.816989 0
767 1 0.257916 0.833648 0
766 1 0.268134 0.856332 0
768 1 0.283298 0.839652 0
739 1 0.299306 0.822331 0
769 1 0.304959 0.848297 0
740 1 0.319972 0.830709 0
770 1 0.326506 0.855523 0
771 1 0.341802 0.836983 0
773 1 0.365 0.843726 0
801 1 0.349234 0.862164 0
744 1 0.381307 0.826451 0
803 1 0.386484 0.850524 0
774 1 0.402659 0.833379 0
776 1 0.409023 0.856382 0
748 1 0.440322 0.820018 0
777 1 0.425231 0.838316 0
779 1 0.447397 0.845405 0
778 1 0.431416 0.862499 0
750 1 0.462603 0.826974 0
1651 1 0.483581 0.833856 0
780 1 0.468359 0.852062 0
1652 1 0.491781 0.857099 0
781 1 0.016436 0.864302 0
782 1 0.0334771 0.882095 0
811 1 0.0114454 0.889435 0
812 1 0.0267448 0.907014 0
813 1 0.0501107 0.898274 0
783 1 0.053983 0.874199 0
784 1 0.0711897 0.89002 0
754 1 0.0762312 0.865569 0
785 1 0.0929218 0.88162 0
787 1 0.114132 0.875907 0
786 1 0.109375 0.900824 0
815 1 0.0873376 0.90703 0
788 1 0.130654 0.891652 0
758 1 0.136319 0.866918 0
789 1 0.151876 0.88463 0
790 1 0.168858 0.90129 0
791 1 0.172568 0.876964 0
823 1 0.189818 0.894146 0
792 1 0.194381 0.870871 0
793 1 0.211007 0.887278 0
795 1 0.231514 0.879296 0
794 1 0.227947 0.903834 0
825 1 0.24918 0.895851 0
796 1 0.251861 0.870414 0
827 1 0.271017 0.884225 0
797 1 0.288516 0.865969 0
798 1 0.294007 0.891201 0
799 1 0.310864 0.873388 0
829 1 0.31615 0.897979 0
800 1 0.332165 0.879766 0
802 1 0.354532 0.886634 0
772 1 0.370304 0.867531 0
831 1 0.337948 0.904157 0
804 1 0.376949 0.891737 0
805 1 0.393568 0.874518 0
806 1 0.39889 0.899535 0
807 1 0.41499 0.880131 0
809 1 0.453036 0.869182 0
808 1 0.436317 0.887652 0
837 1 0.420318 0.904587 0
810 1 0.459992 0.893212 0
1681 1 0.475092 0.87617 0
1711 1 0.481629 0.899279 0
1682 1 0.49795 0.882048 0
841 1 0.0223224 0.931602 0
842 1 0.0394292 0.947854 0
1740 1 0.00558122 0.9136 0
1769 1 0.000752564 0.938344 0
843 1 0.0447844 0.923153 0
844 1 0.0612759 0.939681 0
814 1 0.0666657 0.915449 0
845 1 0.0833673 0.932037 0
816 1 0.104269 0.924201 0
847 1 0.121104 0.941443 0
846 1 0.100018 0.948528 0
817 1 0.126911 0.917157 0
818 1 0.142444 0.934501 0
819 1 0.147449 0.908963 0
820 1 0.163497 0.925973 0
849 1 0.158646 0.95063 0
851 1 0.180728 0.943072 0
821 1 0.185511 0.91808 0
824 1 0.20644 0.91147 0
822 1 0.20259 0.936663 0
853 1 0.224278 0.929 0
855 1 0.245507 0.920103 0
854 1 0.24082 0.944772 0
883 1 0.218931 0.953209 0
826 1 0.269028 0.909551 0
856 1 0.262037 0.937202 0
857 1 0.283459 0.930159 0
887 1 0.279129 0.954299 0
828 1 0.301452 0.91556 0
859 1 0.303587 0.943132 0
830 1 0.322124 0.924123 0
860 1 0.330337 0.948006 0
833 1 0.360238 0.910547 0
832 1 0.343876 0.929271 0
863 1 0.367061 0.934184 0
861 1 0.352624 0.952825 0
834 1 0.382356 0.916656 0
865 1 0.390131 0.940712 0
835 1 0.406067 0.922907 0
836 1 0.411968 0.947421 0
839 1 0.443501 0.911722 0
838 1 0.42782 0.928937 0
869 1 0.449443 0.935091 0
1712 1 0.487277 0.923598 0
1741 1 0.471135 0.942317 0
840 1 0.465663 0.917739 0
1742 1 0.494327 0.949432 0
1770 1 0.0173767 0.955151 0
871 1 0.0340972 0.972036 0
1800 1 0.0123482 0.979867 0
1 1 0.0290223 0.995764 0
872 1 0.050418 0.988797 0
873 1 0.0561453 0.964679 0
874 1 0.0723741 0.982149 0
875 1 0.0776903 0.956776 0
876 1 0.0943542 0.973512 0
877 1 0.116112 0.966156 0
7 1 0.110428 0.990425 0
5 1 0.088903 0.998631 0
878 1 0.132067 0.983366 0
848 1 0.137376 0.95868 0
879 1 0.154193 0.975708 0
881 1 0.170341 0.993059 0
850 1 0.175415 0.9674 0
11 1 0.191544 0.984961 0
852 1 0.196838 0.960764 0
882 1 0.21326 0.977231 0
884 1 0.235597 0.969739 0
13 1 0.230099 0.994023 0
886 1 0.252004 0.985955 0
885 1 0.258066 0.96201 0
17 1 0.273592 0.978612 0
18 1 0.289582 0.995626 0
888 1 0.294668 0.97211 0
858 1 0.315598 0.966073 0
889 1 0.322622 0.991108 0
890 1 0.343777 0.996694 0
891 1 0.337539 0.972096 0
862 1 0.359071 0.979122 0
864 1 0.373748 0.958837 0
893 1 0.380661 0.98462 0
895 1 0.39581 0.966659 0
896 1 0.402238 0.990992 0
866 1 0.417366 0.972879 0
867 1 0.433735 0.954021 0
897 1 0.424478 0.995824 0
868 1 0.440498 0.978807 0
1412 1 0.498368 0.565559 0
880 1 0.148791 0.999849 0
902 1 0.51243 0.022707 0
904 1 0.534016 0.0285873 0
905 1 0.528576 0.00432279 0
906 1 0.550306 0.0105195 0
935 1 0.555811 0.0347522 0
908 1 0.572435 0.0180316 0
937 1 0.577543 0.0419247 0
939 1 0.59384 0.0251934 0
940 1 0.615486 0.0310036 0
941 1 0.609664 0.0066265 0
942 1 0.738474 0.0266333 0
912 1 0.743806 0.00178355 0
944 1 0.756189 0.0418776 0
943 1 0.761609 0.0178437 0
914 1 0.783391 0.0112676 0
945 1 0.778013 0.0351041 0
947 1 0.800095 0.0279146 0
918 1 0.821921 0.0205215 0
916 1 0.805116 0.00383613 0
949 1 0.837896 0.0382246 0
919 1 0.842674 0.0129856 0
920 1 0.858401 0.0306988 0
1790 1 0.864197 0.00685905 0
951 1 0.880403 0.0243164 0
922 1 0.903141 0.0157335 0
952 1 0.897044 0.040857 0
953 1 0.918949 0.0336066 0
924 1 0.925118 0.00913429 0
955 1 0.941223 0.0267267 0
925 1 0.946466 0.00164621 0
956 1 0.9575 0.0436355 0
926 1 0.962876 0.0188983 0
957 1 0.979305 0.036357 0
928 1 0.984433 0.0121857 0
933 1 0.518338 0.0463917 0
932 1 0.501876 0.0646386 0
963 1 0.523828 0.0721743 0
962 1 0.508052 0.0893936 0
934 1 0.539236 0.0538371 0
965 1 0.545794 0.0777219 0
936 1 0.561307 0.0602311 0
966 1 0.567473 0.0847538 0
967 1 0.583485 0.0674748 0
938 1 0.599442 0.0494793 0
969 1 0.605757 0.0739373 0
968 1 0.589561 0.092176 0
971 1 0.732389 0.05014 0
970 1 0.728566 0.0747993 0
973 1 0.749684 0.0667068 0
975 1 0.7726 0.0593786 0
974 1 0.789218 0.076183 0
1003 1 0.767198 0.0839473 0
948 1 0.816184 0.0450098 0
946 1 0.794245 0.0523657 0
976 1 0.811089 0.0701844 0
1007 1 0.827817 0.087231 0
977 1 0.832393 0.0625304 0
979 1 0.853428 0.0553914 0
980 1 0.870712 0.0722348 0
978 1 0.849231 0.0811712 0
950 1 0.875515 0.0486134 0
981 1 0.89275 0.0654048 0
983 1 0.91472 0.0580989 0
982 1 0.909967 0.0825323 0
1011 1 0.888727 0.0900087 0
984 1 0.930913 0.0755721 0
954 1 0.936205 0.0505882 0
985 1 0.953197 0.0680101 0
987 1 0.974529 0.0603866 0
988 1 0.990878 0.0788995 0
958 1 0.996386 0.0540588 0
986 1 0.969523 0.0856362 0
964 1 0.530593 0.096564 0
993 1 0.51523 0.114385 0
994 1 0.536952 0.120933 0
995 1 0.55299 0.103158 0
996 1 0.558057 0.127889 0
997 1 0.574494 0.110246 0
1027 1 0.579621 0.135252 0
998 1 0.595809 0.117508 0
1000 1 0.617373 0.122693 0
1030 1 0.640101 0.129553 0
999 1 0.658896 0.113808 0
1001 1 0.680531 0.120448 0
1002 1 0.702966 0.128336 0
972 1 0.745677 0.0908775 0
1033 1 0.761344 0.1099 0
1004 1 0.78301 0.101373 0
1065 1 0.778307 0.127709 0
1005 1 0.804697 0.0940284 0
1035 1 0.79999 0.117947 0
1006 1 0.82134 0.110612 0
1037 1 0.837712 0.128712 0
1008 1 0.844142 0.104773 0
1039 1 0.860697 0.120695 0
1009 1 0.866091 0.0962999 0
1010 1 0.882131 0.113999 0
1012 1 0.904584 0.107517 0
1041 1 0.899289 0.130912 0
1015 1 0.948159 0.0928962 0
1043 1 0.921194 0.123278 0
1013 1 0.926087 0.0993855 0
1014 1 0.943672 0.116872 0
1017 1 0.965133 0.11029 0
1018 1 0.986454 0.103414 0
1047 1 0.982376 0.127461 0
1016 1 0.960016 0.134528 0
1023 1 0.520761 0.13973 0
1022 1 0.505379 0.157963 0
1024 1 0.527384 0.164364 0
1025 1 0.542619 0.145591 0
1055 1 0.548302 0.170891 0
1026 1 0.563644 0.15284 0
1057 1 0.570609 0.176939 0
1029 1 0.602139 0.141379 0
1028 1 0.585937 0.158262 0
1058 1 0.608194 0.165553 0
1059 1 0.623919 0.147037 0
1032 1 0.662395 0.138068 0
1060 1 0.629827 0.17206 0
1061 1 0.646355 0.15516 0
1091 1 0.652327 0.179432 0
1031 1 0.684974 0.144664 0
1062 1 0.668114 0.16234 0
1064 1 0.690247 0.170278 0
1063 1 0.706159 0.152414 0
1095 1 0.712465 0.17654 0
1034 1 0.729187 0.159197 0
1066 1 0.734344 0.184195 0
1036 1 0.815921 0.135622 0
1067 1 0.833322 0.153031 0
1038 1 0.855423 0.145868 0
1069 1 0.873179 0.162634 0
1068 1 0.849035 0.171616 0
1040 1 0.876888 0.138264 0
1071 1 0.894934 0.154905 0
1072 1 0.910912 0.173105 0
1070 1 0.889022 0.18035 0
1042 1 0.917572 0.148343 0
1073 1 0.932917 0.165666 0
1044 1 0.938401 0.141847 0
1045 1 0.955367 0.158949 0
1074 1 0.949682 0.183222 0
1046 1 0.977401 0.152169 0
1077 1 0.993895 0.169368 0
1048 1 0.998607 0.144609 0