ITEM: TIMESTEP
231000
ITEM: NUMBER OF ATOMS
1800
ITEM: BOX BOUNDS pp pp pp
-8.1200515840056884e+00 1.7312005158400760e+02
1.1826529217466231e+00 1.6381734707825530e+02
0.0000000000000000e+00 5.5000000000000000e+00
ITEM: ATOMS id type xs ys zs
930 1 0.0266922 0.0225496 0
929 1 0.0105046 0.00520831 0
959 1 0.00551274 0.030739 0
31 1 0.0431756 0.0396006 0
2 1 0.0475558 0.0148797 0
33 1 0.0642985 0.0322591 0
3 1 0.0694197 0.00830995 0
4 1 0.0856142 0.0243486 0
6 1 0.108114 0.0168473 0
37 1 0.122389 0.0349424 0
35 1 0.101352 0.0421464 0
5 1 0.0915552 0.000458786 0
8 1 0.129586 0.00978435 0
39 1 0.14465 0.0283175 0
880 1 0.151057 0.00304332 0
9 1 0.166602 0.0204113 0
40 1 0.183167 0.0374662 0
10 1 0.188328 0.0130987 0
41 1 0.204256 0.0310137 0
12 1 0.209711 0.00636382 0
14 1 0.226187 0.0241523 0
15 1 0.246826 0.0144221 0
45 1 0.246303 0.0399702 0
46 1 0.266799 0.0208628 0
47 1 0.287867 0.0252648 0
77 1 0.271511 0.0443088 0
18 1 0.279768 0.000204524 0
49 1 0.309025 0.031892 0
19 1 0.301501 0.00658202 0
20 1 0.324306 0.0131803 0
51 1 0.330635 0.0382609 0
21 1 0.345734 0.0195237 0
23 1 0.367226 0.0270324 0
892 1 0.360933 0.0016217 0
22 1 0.35125 0.0450836 0
894 1 0.382105 0.00753341 0
24 1 0.388258 0.0330287 0
25 1 0.403905 0.014267 0
26 1 0.410447 0.0397015 0
27 1 0.426561 0.0207918 0
29 1 0.448362 0.0268024 0
898 1 0.441209 0.00331781 0
28 1 0.43275 0.0447941 0
900 1 0.46427 0.00970453 0
30 1 0.470435 0.034309 0
901 1 0.486511 0.0160808 0
931 1 0.491731 0.0409996 0
960 1 0.0218361 0.0471978 0
989 1 0.0156134 0.071061 0
61 1 0.037377 0.0642705 0
990 1 0.0326321 0.0892843 0
1353 1 0.497171 0.472329 0
62 1 0.0539153 0.081777 0
32 1 0.0585423 0.0566294 0
63 1 0.0745975 0.0739716 0
34 1 0.0795073 0.0494183 0
65 1 0.0962938 0.0662914 0
36 1 0.118202 0.0588212 0
66 1 0.112901 0.0835985 0
69 1 0.161202 0.0439463 0
67 1 0.134755 0.0762187 0
38 1 0.139472 0.050934 0
68 1 0.156324 0.0688994 0
70 1 0.172222 0.086129 0
71 1 0.177987 0.0620312 0
72 1 0.193619 0.080298 0
42 1 0.199154 0.0546328 0
43 1 0.220408 0.0472662 0
73 1 0.214951 0.0717816 0
44 1 0.235165 0.0645281 0
105 1 0.231725 0.0885534 0
74 1 0.26019 0.0878467 0
75 1 0.25623 0.0625163 0
76 1 0.277136 0.0683436 0
48 1 0.29276 0.0507826 0
79 1 0.298465 0.075722 0
50 1 0.313773 0.0566253 0
81 1 0.320478 0.0809198 0
52 1 0.335666 0.0635119 0
83 1 0.356573 0.0701873 0
82 1 0.341436 0.0881232 0
53 1 0.372996 0.0514721 0
54 1 0.378109 0.0761632 0
55 1 0.394976 0.0579116 0
56 1 0.401734 0.0823034 0
57 1 0.417378 0.0637608 0
58 1 0.438506 0.0695193 0
87 1 0.423005 0.0886994 0
59 1 0.454813 0.0516586 0
932 1 0.498492 0.0646296 0
89 1 0.459825 0.075539 0
60 1 0.475975 0.0582748 0
961 1 0.481436 0.0821232 0
1020 1 0.0282086 0.114019 0
1019 1 0.0113786 0.0965829 0
1049 1 0.00715926 0.121701 0
121 1 0.045858 0.131603 0
91 1 0.0490415 0.106748 0
92 1 0.0669349 0.124088 0
93 1 0.0701672 0.0991497 0
64 1 0.0919112 0.0908087 0
94 1 0.0876604 0.116409 0
95 1 0.108053 0.107931 0
125 1 0.103452 0.133773 0
96 1 0.124205 0.124783 0
99 1 0.151569 0.0934154 0
97 1 0.128899 0.100243 0
98 1 0.146161 0.117017 0
129 1 0.161958 0.134394 0
100 1 0.167751 0.111099 0
130 1 0.183223 0.128773 0
101 1 0.188628 0.104075 0
102 1 0.205419 0.121229 0
103 1 0.211374 0.0967331 0
104 1 0.227549 0.124598 0
106 1 0.245104 0.107326 0
78 1 0.28259 0.0927103 0
137 1 0.251782 0.130283 0
107 1 0.267398 0.111389 0
109 1 0.289174 0.117212 0
108 1 0.273081 0.135192 0
80 1 0.30466 0.0989764 0
110 1 0.310752 0.123687 0
111 1 0.325958 0.105958 0
141 1 0.331999 0.130139 0
84 1 0.363532 0.0948824 0
113 1 0.348226 0.113562 0
112 1 0.369087 0.118765 0
143 1 0.354116 0.137095 0
85 1 0.38592 0.0999581 0
115 1 0.391225 0.125442 0
86 1 0.407226 0.107401 0
116 1 0.413074 0.131044 0
88 1 0.444414 0.0941095 0
117 1 0.429453 0.112771 0
119 1 0.450874 0.119497 0
90 1 0.466599 0.101103 0
120 1 0.472082 0.125536 0
991 1 0.487524 0.107507 0
992 1 0.493044 0.131914 0
1050 1 0.0239558 0.137967 0
1079 1 0.0178851 0.163604 0
151 1 0.0398072 0.155992 0
1048 1 0.00190436 0.145174 0
1080 1 0.0339749 0.18086 0
122 1 0.0617446 0.149406 0
153 1 0.0772443 0.166522 0
123 1 0.0834102 0.141451 0
152 1 0.0556143 0.174776 0
124 1 0.0992702 0.161407 0
126 1 0.120142 0.151246 0
155 1 0.119171 0.176572 0
157 1 0.13815 0.163619 0
127 1 0.140927 0.140294 0
128 1 0.158874 0.169409 0
159 1 0.176308 0.152722 0
131 1 0.198384 0.161631 0
132 1 0.181819 0.177512 0
135 1 0.236043 0.147999 0
133 1 0.214643 0.143835 0
134 1 0.219915 0.167689 0
165 1 0.241662 0.173429 0
136 1 0.25746 0.154835 0
138 1 0.279047 0.158978 0
167 1 0.26311 0.178643 0
139 1 0.295404 0.14134 0
169 1 0.300141 0.165864 0
140 1 0.316482 0.147883 0
171 1 0.322041 0.17195 0
142 1 0.338292 0.155199 0
173 1 0.359534 0.162609 0
172 1 0.342951 0.180548 0
114 1 0.375666 0.143581 0
144 1 0.381603 0.167519 0
145 1 0.396947 0.149582 0
146 1 0.402572 0.17411 0
118 1 0.43517 0.13815 0
147 1 0.418769 0.155895 0
148 1 0.439752 0.161901 0
177 1 0.424805 0.1807 0
149 1 0.456545 0.144409 0
1051 1 0.483318 0.174324 0
150 1 0.462196 0.169205 0
1021 1 0.478213 0.149706 0
1022 1 0.49995 0.155746 0
1107 1 0.00817174 0.212645 0
1109 1 0.0305328 0.218886 0
1078 1 0.0131178 0.188138 0
181 1 0.0471775 0.200831 0
183 1 0.0688658 0.208743 0
182 1 0.0522986 0.225758 0
154 1 0.0843383 0.189486 0
185 1 0.0898117 0.214325 0
186 1 0.111255 0.223156 0
156 1 0.106051 0.197213 0
158 1 0.126853 0.206043 0
160 1 0.14224 0.187763 0
189 1 0.148404 0.212989 0
161 1 0.164645 0.194468 0
163 1 0.203643 0.185291 0
191 1 0.170515 0.219548 0
162 1 0.186925 0.20147 0
192 1 0.192628 0.226466 0
193 1 0.209065 0.208284 0
164 1 0.225266 0.191336 0
195 1 0.230777 0.214603 0
166 1 0.247594 0.197401 0
168 1 0.283901 0.184602 0
196 1 0.252714 0.220747 0
197 1 0.2688 0.202985 0
198 1 0.275184 0.226547 0
199 1 0.29154 0.209354 0
170 1 0.306135 0.190427 0
200 1 0.312619 0.214877 0
201 1 0.327976 0.197462 0
202 1 0.333634 0.222696 0
203 1 0.34948 0.204693 0
174 1 0.365371 0.18612 0
204 1 0.37054 0.211349 0
175 1 0.3858 0.193153 0
205 1 0.392666 0.216702 0
176 1 0.407862 0.197793 0
207 1 0.414443 0.222865 0
179 1 0.446442 0.186161 0
178 1 0.430324 0.204848 0
209 1 0.451943 0.210513 0
180 1 0.46828 0.193083 0
1081 1 0.473894 0.216655 0
1052 1 0.49016 0.198311 0
1082 1 0.495613 0.22301 0
211 1 0.0366781 0.243062 0
1140 1 0.0212546 0.263746 0
1110 1 0.0137142 0.236332 0
1108 1 -5.28426e-05 0.255783 0
212 1 0.0430891 0.26936 0
184 1 0.0745712 0.234537 0
213 1 0.0581151 0.250655 0
214 1 0.0799575 0.258816 0
215 1 0.0960636 0.241438 0
216 1 0.101096 0.265853 0
217 1 0.117236 0.248183 0
218 1 0.12284 0.271903 0
187 1 0.133516 0.23085 0
188 1 0.138868 0.255096 0
190 1 0.155217 0.237559 0
220 1 0.160697 0.260685 0
221 1 0.176874 0.243422 0
222 1 0.183168 0.267669 0
223 1 0.199209 0.250673 0
194 1 0.215037 0.232327 0
224 1 0.221101 0.257337 0
225 1 0.23732 0.238598 0
226 1 0.243075 0.262822 0
227 1 0.259181 0.244442 0
228 1 0.279824 0.25192 0
257 1 0.264742 0.269401 0
229 1 0.296196 0.233287 0
230 1 0.30126 0.257493 0
231 1 0.317264 0.23965 0
261 1 0.322677 0.263175 0
233 1 0.354931 0.229276 0
232 1 0.33841 0.246982 0
234 1 0.360506 0.253527 0
263 1 0.344358 0.271665 0
235 1 0.376601 0.235502 0
265 1 0.382362 0.258383 0
206 1 0.398388 0.24078 0
236 1 0.404259 0.263853 0
208 1 0.436008 0.22852 0
237 1 0.419889 0.246255 0
239 1 0.442351 0.253284 0
238 1 0.425267 0.269971 0
210 1 0.457818 0.234764 0
240 1 0.46419 0.259257 0
1111 1 0.479302 0.241705 0
1112 1 0.485396 0.265986 0
1139 1 0.00544962 0.280308 0
1169 1 0.0121743 0.30486 0
241 1 0.0273151 0.287381 0
271 1 0.0337757 0.312453 0
243 1 0.0643134 0.276122 0
242 1 0.0487321 0.294356 0
244 1 0.0706656 0.301424 0
273 1 0.0555994 0.318927 0
245 1 0.0855501 0.283577 0
246 1 0.0918142 0.306944 0
247 1 0.107754 0.289656 0
248 1 0.113172 0.31453 0
249 1 0.129087 0.297168 0
219 1 0.145358 0.27957 0
250 1 0.151291 0.304429 0
253 1 0.203821 0.274451 0
251 1 0.166691 0.286638 0
281 1 0.173098 0.309931 0
252 1 0.188163 0.291897 0
283 1 0.194507 0.316178 0
254 1 0.210207 0.298518 0
255 1 0.22645 0.280528 0
285 1 0.232421 0.305415 0
256 1 0.248467 0.287414 0
259 1 0.286461 0.276193 0
287 1 0.25459 0.311521 0
258 1 0.270632 0.293399 0
288 1 0.275978 0.317747 0
289 1 0.292263 0.300668 0
260 1 0.307902 0.281936 0
291 1 0.313932 0.30611 0
262 1 0.328757 0.288602 0
293 1 0.350866 0.294848 0
292 1 0.33515 0.312644 0
264 1 0.366578 0.277127 0
295 1 0.373125 0.300954 0
266 1 0.388643 0.282901 0
297 1 0.394653 0.307585 0
267 1 0.410811 0.289081 0
298 1 0.416066 0.313978 0
268 1 0.432119 0.294988 0
269 1 0.448067 0.277479 0
270 1 0.453476 0.300883 0
1141 1 0.469202 0.284398 0
300 1 0.475648 0.307246 0
1171 1 0.491681 0.290408 0
1172 1 0.497684 0.313841 0
1200 1 0.040065 0.336727 0
1229 1 0.0232073 0.353619 0
1170 1 0.0181074 0.329511 0
1199 1 0.000950732 0.347249 0
301 1 0.0456067 0.360664 0
275 1 0.0772106 0.326334 0
272 1 0.0619292 0.342998 0
274 1 0.0827638 0.350394 0
276 1 0.0989181 0.332796 0
305 1 0.104705 0.356428 0
277 1 0.120509 0.339171 0
279 1 0.135172 0.321459 0
307 1 0.125785 0.363573 0
278 1 0.141353 0.345987 0
280 1 0.156845 0.328042 0
311 1 0.162849 0.352816 0
282 1 0.179042 0.335212 0
312 1 0.184842 0.358976 0
313 1 0.200374 0.340674 0
284 1 0.216752 0.323569 0
315 1 0.221473 0.348359 0
286 1 0.238326 0.330078 0
316 1 0.244282 0.353993 0
317 1 0.260662 0.335001 0
319 1 0.282124 0.341659 0
318 1 0.266105 0.360195 0
290 1 0.298052 0.324472 0
320 1 0.304823 0.348001 0
321 1 0.320327 0.330696 0
322 1 0.325632 0.354819 0
294 1 0.356995 0.318753 0
323 1 0.341651 0.337486 0
325 1 0.363369 0.343137 0
324 1 0.34744 0.361391 0
296 1 0.379009 0.325267 0
326 1 0.385632 0.350025 0
327 1 0.400638 0.331854 0
328 1 0.406747 0.356574 0
299 1 0.437068 0.319303 0
329 1 0.422424 0.338588 0
359 1 0.443601 0.342689 0
358 1 0.429064 0.362126 0
330 1 0.459432 0.324599 0
360 1 0.465056 0.34855 0
1201 1 0.481346 0.33116 0
1231 1 0.486521 0.35488 0
1259 1 0.0079149 0.370923 0
1230 1 0.0297696 0.377964 0
331 1 0.0351145 0.402559 0
1260 1 0.0135419 0.394939 0
303 1 0.0680762 0.367029 0
302 1 0.052247 0.384407 0
333 1 0.0739422 0.390781 0
332 1 0.056804 0.408725 0
304 1 0.0893314 0.374283 0
335 1 0.0943648 0.399633 0
306 1 0.11039 0.380975 0
337 1 0.116159 0.404985 0
308 1 0.132316 0.388297 0
309 1 0.147344 0.370678 0
339 1 0.152412 0.396137 0
314 1 0.206124 0.365379 0
310 1 0.168454 0.376836 0
341 1 0.174635 0.400773 0
343 1 0.189683 0.383267 0
342 1 0.196644 0.406884 0
344 1 0.213575 0.389024 0
345 1 0.228801 0.372277 0
346 1 0.234901 0.396809 0
347 1 0.250373 0.37755 0
377 1 0.257362 0.40185 0
348 1 0.272838 0.384062 0
349 1 0.288686 0.366173 0
350 1 0.294198 0.390655 0
351 1 0.310189 0.372838 0
381 1 0.316099 0.39727 0
353 1 0.33156 0.378493 0
354 1 0.354107 0.385128 0
352 1 0.337943 0.402673 0
355 1 0.36984 0.36734 0
356 1 0.376185 0.391975 0
385 1 0.359494 0.409916 0
357 1 0.390433 0.3743 0
386 1 0.397002 0.398263 0
387 1 0.412325 0.380674 0
389 1 0.435161 0.386202 0
388 1 0.418828 0.404091 0
1232 1 0.450788 0.367157 0
1261 1 0.456189 0.391954 0
1262 1 0.471762 0.374357 0
1293 1 0.477434 0.398814 0
1263 1 0.49429 0.379898 0
1294 1 0.499584 0.404254 0
1319 1 0.00406101 0.43798 0
391 1 0.0248497 0.44343 0
1290 1 0.0196585 0.419732 0
361 1 0.0413914 0.4268 0
362 1 0.0463975 0.45131 0
334 1 0.0774921 0.415354 0
363 1 0.0629224 0.433733 0
365 1 0.0846179 0.440912 0
336 1 0.0999787 0.423055 0
366 1 0.105515 0.448734 0
367 1 0.120346 0.430669 0
338 1 0.137361 0.413195 0
368 1 0.127273 0.455314 0
369 1 0.142168 0.436806 0
340 1 0.15907 0.419589 0
370 1 0.164859 0.443342 0
371 1 0.180964 0.424533 0
401 1 0.185982 0.44976 0
372 1 0.202668 0.431682 0
403 1 0.207686 0.455942 0
373 1 0.21845 0.41377 0
374 1 0.224682 0.438682 0
375 1 0.239925 0.421227 0
405 1 0.246364 0.44535 0
378 1 0.278827 0.409317 0
376 1 0.261867 0.426248 0
409 1 0.284023 0.433405 0
407 1 0.269079 0.451472 0
379 1 0.300156 0.415954 0
380 1 0.306767 0.439803 0
382 1 0.32214 0.421001 0
413 1 0.328572 0.445883 0
383 1 0.34449 0.427244 0
414 1 0.365534 0.433822 0
412 1 0.350217 0.451836 0
384 1 0.381776 0.416898 0
415 1 0.387665 0.441233 0
417 1 0.40344 0.422881 0
416 1 0.409479 0.44609 0
419 1 0.441024 0.410176 0
418 1 0.425655 0.428851 0
390 1 0.447221 0.435707 0
447 1 0.431745 0.453957 0
1292 1 0.483654 0.422447 0
1291 1 0.461969 0.417121 0
1321 1 0.468692 0.441012 0
1322 1 0.490694 0.448204 0
1320 1 0.00967605 0.462291 0
421 1 0.0160352 0.486509 0
392 1 0.0313385 0.468868 0
422 1 0.0372969 0.494367 0
364 1 0.067794 0.45787 0
393 1 0.0523097 0.475874 0
394 1 0.0734611 0.482666 0
395 1 0.0891134 0.465187 0
396 1 0.0951121 0.490947 0
397 1 0.110674 0.472773 0
427 1 0.116687 0.495884 0
399 1 0.149551 0.4614 0
398 1 0.132777 0.479179 0
429 1 0.155517 0.48575 0
400 1 0.170764 0.467049 0
431 1 0.176565 0.492474 0
402 1 0.192292 0.47476 0
432 1 0.198692 0.498435 0
433 1 0.213594 0.480438 0
404 1 0.229735 0.462728 0
435 1 0.236163 0.487173 0
406 1 0.252059 0.469299 0
436 1 0.258801 0.493038 0
408 1 0.274799 0.475343 0
439 1 0.281248 0.498982 0
410 1 0.290967 0.45833 0
441 1 0.297738 0.482077 0
411 1 0.312664 0.463247 0
440 1 0.319934 0.488016 0
442 1 0.334738 0.470162 0
471 1 0.341679 0.494925 0
473 1 0.356825 0.477102 0
443 1 0.372006 0.458768 0
444 1 0.378465 0.483317 0
445 1 0.394516 0.465079 0
475 1 0.399351 0.489293 0
446 1 0.415592 0.471055 0
448 1 0.437746 0.477304 0
477 1 0.4218 0.494947 0
420 1 0.452841 0.459676 0
449 1 0.459725 0.484396 0
1351 1 0.481471 0.490281 0
450 1 0.475316 0.466737 0
452 1 0.025836 0.535464 0
451 1 0.0204341 0.511616 0
1380 1 0.00429707 0.529716 0
453 1 0.0422482 0.517751 0
454 1 0.0476324 0.542354 0
424 1 0.0641006 0.525029 0
425 1 0.0804764 0.507759 0
423 1 0.0580891 0.500323 0
455 1 0.086409 0.532061 0
426 1 0.102164 0.514529 0
456 1 0.107846 0.538794 0
457 1 0.124089 0.520517 0
458 1 0.13039 0.544941 0
459 1 0.145613 0.528086 0
430 1 0.160421 0.51007 0
428 1 0.138499 0.502467 0
460 1 0.167442 0.534096 0
461 1 0.182939 0.516686 0
462 1 0.190027 0.540468 0
463 1 0.205332 0.522028 0
434 1 0.220126 0.503876 0
464 1 0.226339 0.528469 0
465 1 0.242485 0.51063 0
466 1 0.24844 0.534628 0
437 1 0.265077 0.51669 0
467 1 0.288622 0.52206 0
497 1 0.271486 0.53999 0
438 1 0.304239 0.505513 0
468 1 0.309062 0.530559 0
469 1 0.325215 0.512077 0
499 1 0.329873 0.536433 0
470 1 0.346557 0.519706 0
503 1 0.368581 0.525862 0
501 1 0.352445 0.543824 0
1772 1 0.479213 0.991267 0
474 1 0.383735 0.508761 0
505 1 0.390914 0.530774 0
476 1 0.406395 0.512772 0
506 1 0.412226 0.537695 0
507 1 0.428099 0.51895 0
480 1 0.449657 0.52619 0
478 1 0.444258 0.50034 0
509 1 0.433499 0.54353 0
479 1 0.465769 0.508328 0
510 1 0.47213 0.532838 0
1381 1 0.48801 0.514771 0
1411 1 0.493479 0.53857 0
481 1 0.00978445 0.553516 0
482 1 0.0371701 0.583839 0
483 1 0.0313057 0.559515 0
1410 1 0.0164054 0.577706 0
485 1 0.069459 0.549335 0
513 1 0.0534578 0.566573 0
484 1 0.0752561 0.573426 0
486 1 0.0922287 0.556979 0
515 1 0.0975362 0.581357 0
487 1 0.11374 0.562455 0
517 1 0.120161 0.587279 0
489 1 0.151992 0.551197 0
488 1 0.135213 0.569148 0
490 1 0.157089 0.575207 0
491 1 0.173573 0.556902 0
521 1 0.179508 0.581227 0
492 1 0.195653 0.563623 0
523 1 0.201471 0.589266 0
493 1 0.211614 0.546836 0
494 1 0.217363 0.570584 0
495 1 0.233535 0.552625 0
525 1 0.23912 0.576904 0
496 1 0.255031 0.559117 0
526 1 0.260516 0.583684 0
527 1 0.276226 0.565141 0
498 1 0.292559 0.547735 0
528 1 0.28232 0.589928 0
529 1 0.297845 0.571919 0
500 1 0.313575 0.554908 0
530 1 0.320405 0.578899 0
531 1 0.336327 0.561067 0
533 1 0.357898 0.567857 0
502 1 0.375131 0.549186 0
532 1 0.341313 0.585626 0
534 1 0.379732 0.5725 0
504 1 0.396181 0.555907 0
535 1 0.400819 0.579709 0
508 1 0.417964 0.561623 0
539 1 0.439643 0.567531 0
540 1 0.45503 0.550789 0
537 1 0.423407 0.584755 0
569 1 0.460978 0.574456 0
1442 1 0.482299 0.582559 0
1441 1 0.476772 0.557011 0
1412 1 0.498338 0.563206 0
511 1 0.0224498 0.601679 0
541 1 0.0288647 0.626918 0
1439 1 0.0004942 0.596822 0
514 1 0.059113 0.590446 0
512 1 0.0443885 0.608664 0
545 1 0.0800742 0.597517 0
542 1 0.0499159 0.63306 0
543 1 0.0653447 0.615861 0
546 1 0.0872757 0.623231 0
516 1 0.103049 0.604301 0
547 1 0.108978 0.628586 0
518 1 0.124298 0.61072 0
519 1 0.141924 0.593345 0
520 1 0.16447 0.598917 0
548 1 0.146085 0.618156 0
577 1 0.130681 0.63512 0
549 1 0.169195 0.624466 0
522 1 0.184775 0.60622 0
551 1 0.190348 0.630933 0
553 1 0.206948 0.613046 0
524 1 0.223137 0.595595 0
554 1 0.228228 0.619907 0
555 1 0.245299 0.601426 0
556 1 0.250109 0.625272 0
557 1 0.266564 0.608369 0
558 1 0.287931 0.613276 0
587 1 0.27231 0.631382 0
559 1 0.304267 0.596339 0
561 1 0.325102 0.603156 0
560 1 0.309816 0.620792 0
591 1 0.330481 0.627869 0
563 1 0.36383 0.591275 0
562 1 0.347568 0.609506 0
565 1 0.368468 0.615398 0
564 1 0.354123 0.632981 0
536 1 0.385009 0.597294 0
566 1 0.390051 0.621834 0
567 1 0.406789 0.60452 0
597 1 0.412775 0.629303 0
568 1 0.428127 0.609998 0
538 1 0.443966 0.59205 0
600 1 0.449641 0.616699 0
599 1 0.433819 0.635568 0
570 1 0.464611 0.59986 0
1501 1 0.470434 0.624061 0
1471 1 0.486954 0.606322 0
1472 1 0.492934 0.630122 0
1470 1 0.0123008 0.642622 0
571 1 0.0339094 0.650437 0
1500 1 0.00796407 0.666899 0
572 1 0.041802 0.67489 0
544 1 0.0714209 0.640264 0
573 1 0.0565419 0.657152 0
574 1 0.0778585 0.664772 0
575 1 0.0939264 0.647398 0
605 1 0.0995679 0.671712 0
576 1 0.115682 0.652398 0
607 1 0.121476 0.677587 0
578 1 0.136886 0.659554 0
579 1 0.15323 0.641267 0
609 1 0.158469 0.66601 0
550 1 0.17524 0.648994 0
580 1 0.180735 0.672989 0
581 1 0.196642 0.655161 0
611 1 0.203105 0.679007 0
552 1 0.212313 0.637605 0
582 1 0.218898 0.661362 0
583 1 0.234358 0.644285 0
584 1 0.240752 0.668542 0
585 1 0.256429 0.648507 0
586 1 0.277803 0.6566 0
615 1 0.262025 0.67497 0
617 1 0.283728 0.682116 0
589 1 0.29312 0.638481 0
588 1 0.298437 0.664508 0
590 1 0.31456 0.645728 0
621 1 0.320881 0.669133 0
593 1 0.337639 0.652455 0
594 1 0.359598 0.657536 0
592 1 0.343151 0.676601 0
595 1 0.375415 0.639703 0
625 1 0.380714 0.664799 0
596 1 0.396043 0.647384 0
627 1 0.401075 0.67232 0
598 1 0.417322 0.654331 0
628 1 0.439139 0.66052 0
629 1 0.45529 0.642601 0
657 1 0.423115 0.677853 0
630 1 0.461193 0.666798 0
1502 1 0.476589 0.648448 0
1533 1 0.482925 0.672214 0
1503 1 0.498933 0.653967 0
601 1 0.022418 0.684421 0
631 1 0.0167806 0.707406 0
632 1 0.0334555 0.723745 0
602 1 0.0441686 0.700458 0
1530 1 0.000458596 0.6906 0
603 1 0.0618537 0.682936 0
604 1 0.0832677 0.689025 0
633 1 0.066312 0.70724 0
635 1 0.0889337 0.714309 0
606 1 0.105034 0.696393 0
636 1 0.110003 0.721186 0
637 1 0.125945 0.702495 0
608 1 0.14332 0.683782 0
638 1 0.148448 0.707811 0
639 1 0.164725 0.691122 0
667 1 0.132843 0.726614 0
641 1 0.171717 0.7153 0
610 1 0.188109 0.697413 0
642 1 0.193086 0.721413 0
612 1 0.209265 0.703798 0
613 1 0.224873 0.685826 0
643 1 0.230867 0.711189 0
614 1 0.24613 0.692893 0
645 1 0.252084 0.719085 0
616 1 0.267702 0.700837 0
647 1 0.274188 0.724968 0
618 1 0.289651 0.707021 0
619 1 0.305762 0.68824 0
620 1 0.311461 0.712948 0
622 1 0.327396 0.694815 0
651 1 0.332756 0.718771 0
653 1 0.349029 0.701355 0
624 1 0.370122 0.70796 0
623 1 0.365122 0.682895 0
654 1 0.355034 0.72577 0
655 1 0.392181 0.714688 0
626 1 0.38636 0.690395 0
656 1 0.407638 0.696602 0
686 1 0.413715 0.720968 0
658 1 0.429315 0.703598 0
659 1 0.444957 0.685691 0
660 1 0.451267 0.709673 0
687 1 0.436107 0.727573 0
1531 1 0.466594 0.690784 0
1561 1 0.473468 0.714804 0
1532 1 0.488372 0.695704 0
1563 1 0.49472 0.722337 0
663 1 0.0277909 0.748391 0
661 1 0.0115772 0.731681 0
1590 1 0.00697531 0.756275 0
662 1 0.0443094 0.765123 0
634 1 0.0715304 0.732997 0
664 1 0.0497183 0.740564 0
695 1 0.0668192 0.758066 0
665 1 0.0946661 0.740272 0
666 1 0.116846 0.744538 0
697 1 0.102396 0.768305 0
668 1 0.124847 0.767448 0
640 1 0.155386 0.732386 0
669 1 0.139548 0.750234 0
670 1 0.161237 0.756483 0
671 1 0.177979 0.73925 0
672 1 0.183411 0.763329 0
673 1 0.199202 0.746248 0
703 1 0.205039 0.771632 0
644 1 0.214606 0.729093 0
674 1 0.220573 0.754091 0
675 1 0.236792 0.736306 0
705 1 0.242201 0.760242 0
646 1 0.259122 0.74286 0
677 1 0.263784 0.766474 0
648 1 0.281005 0.749982 0
678 1 0.286194 0.77327 0
649 1 0.295672 0.73209 0
679 1 0.302981 0.756631 0
650 1 0.317351 0.737421 0
681 1 0.324423 0.761924 0
652 1 0.338971 0.743625 0
682 1 0.345072 0.768543 0
683 1 0.360023 0.750639 0
685 1 0.376049 0.732393 0
684 1 0.381825 0.757379 0
715 1 0.397338 0.738779 0
714 1 0.403736 0.763061 0
717 1 0.419771 0.745838 0
688 1 0.441825 0.751864 0
716 1 0.425939 0.770735 0
689 1 0.457895 0.734213 0
719 1 0.463186 0.758689 0
690 1 0.478991 0.740405 0
1591 1 0.484063 0.76507 0
899 1 0.457285 0.984748 0
691 1 0.0229342 0.773133 0
693 1 0.0376063 0.790822 0
721 1 0.0171601 0.797933 0
692 1 0.0327382 0.816 0
1773 1 0.495398 0.97255 0
723 1 0.0534336 0.808312 0
694 1 0.0598149 0.783568 0
696 1 0.0811227 0.778009 0
725 1 0.0746622 0.801235 0
727 1 0.0969301 0.795675 0
728 1 0.112103 0.814197 0
698 1 0.117761 0.790262 0
699 1 0.14551 0.774627 0
700 1 0.133278 0.80773 0
731 1 0.152063 0.796916 0
701 1 0.167227 0.780257 0
702 1 0.189398 0.789889 0
732 1 0.1717 0.807703 0
763 1 0.193333 0.814141 0
733 1 0.210348 0.797045 0
704 1 0.226339 0.778221 0
706 1 0.232096 0.802026 0
676 1 0.24768 0.784997 0
737 1 0.254112 0.809252 0
707 1 0.270142 0.791054 0
738 1 0.27544 0.81516 0
708 1 0.291494 0.797012 0
709 1 0.307458 0.780352 0
710 1 0.313616 0.803961 0
680 1 0.32935 0.786744 0
741 1 0.335586 0.811069 0
713 1 0.366055 0.774594 0
711 1 0.350623 0.793217 0
712 1 0.372356 0.799385 0
743 1 0.387616 0.781248 0
745 1 0.39356 0.805402 0
746 1 0.409337 0.787744 0
775 1 0.415091 0.812138 0
718 1 0.447558 0.77683 0
747 1 0.430964 0.794659 0
749 1 0.453383 0.800602 0
720 1 0.469 0.782227 0
1621 1 0.474577 0.807868 0
1592 1 0.490271 0.789651 0
1622 1 0.495746 0.813337 0
1680 1 0.0265188 0.840522 0
1650 1 0.0110933 0.822652 0
1709 1 0.00495285 0.846796 0
752 1 0.042884 0.858802 0
751 1 0.0476188 0.833762 0
753 1 0.064441 0.851037 0
722 1 0.0689199 0.826291 0
726 1 0.0907338 0.819464 0
724 1 0.0848441 0.843872 0
757 1 0.107008 0.838196 0
756 1 0.123824 0.855388 0
755 1 0.101908 0.861396 0
729 1 0.12807 0.831706 0
759 1 0.144985 0.846467 0
730 1 0.153731 0.823651 0
761 1 0.176071 0.83171 0
762 1 0.199418 0.837539 0
792 1 0.184186 0.855976 0
764 1 0.205479 0.860665 0
735 1 0.214762 0.820808 0
736 1 0.237517 0.826845 0
734 1 0.221959 0.844466 0
765 1 0.2441 0.850999 0
767 1 0.259897 0.833716 0
766 1 0.266064 0.857305 0
768 1 0.282474 0.83888 0
739 1 0.29756 0.821196 0
769 1 0.303288 0.846078 0
740 1 0.319452 0.828155 0
770 1 0.3256 0.85341 0
742 1 0.35743 0.817579 0
771 1 0.341535 0.834829 0
773 1 0.362338 0.841816 0
801 1 0.347394 0.859714 0
744 1 0.379141 0.823943 0
803 1 0.383768 0.848779 0
774 1 0.39916 0.83042 0
776 1 0.405999 0.854879 0
748 1 0.436898 0.818294 0
777 1 0.421893 0.836693 0
779 1 0.44295 0.843119 0
778 1 0.427371 0.862135 0
750 1 0.458087 0.825393 0
1651 1 0.479634 0.831605 0
780 1 0.463936 0.849948 0
1652 1 0.485137 0.855956 0
781 1 0.0210313 0.865126 0
782 1 0.0376405 0.88325 0
811 1 0.0167239 0.889475 0
812 1 0.0321554 0.90761 0
813 1 0.0543552 0.900539 0
783 1 0.0589946 0.875371 0
784 1 0.0749628 0.892678 0
754 1 0.0805895 0.869133 0
785 1 0.0966703 0.886154 0
787 1 0.118461 0.878804 0
786 1 0.113444 0.901905 0
760 1 0.161734 0.862866 0
788 1 0.13488 0.895721 0
758 1 0.141046 0.871103 0
789 1 0.156365 0.889363 0
790 1 0.172878 0.90568 0
791 1 0.177673 0.880827 0
823 1 0.193322 0.897951 0
793 1 0.212375 0.885112 0
795 1 0.228541 0.868411 0
794 1 0.235025 0.892446 0
796 1 0.250589 0.87502 0
797 1 0.288633 0.863376 0
825 1 0.257409 0.899004 0
827 1 0.272554 0.881514 0
826 1 0.279484 0.905667 0
798 1 0.29395 0.8878 0
799 1 0.309895 0.871034 0
829 1 0.316515 0.895534 0
800 1 0.332689 0.87717 0
802 1 0.353281 0.883721 0
772 1 0.368879 0.865807 0
831 1 0.337075 0.902678 0
804 1 0.374734 0.890688 0
833 1 0.35886 0.907897 0
805 1 0.389378 0.872316 0
806 1 0.396055 0.897784 0
807 1 0.411069 0.879442 0
809 1 0.448196 0.867735 0
808 1 0.432915 0.886613 0
837 1 0.417554 0.903914 0
810 1 0.454233 0.892629 0
1681 1 0.469124 0.875061 0
1711 1 0.476128 0.899374 0
1682 1 0.490908 0.880063 0
1713 1 0.497532 0.904895 0
841 1 0.0273077 0.931172 0
1740 1 0.0105515 0.913958 0
1769 1 0.00568943 0.937767 0
842 1 0.0426763 0.948927 0
843 1 0.049402 0.925327 0
844 1 0.0648863 0.941621 0
814 1 0.0709567 0.917856 0
815 1 0.0923873 0.910964 0
845 1 0.0867009 0.935854 0
816 1 0.108823 0.927562 0
847 1 0.12384 0.944573 0
846 1 0.102375 0.952908 0
819 1 0.150535 0.913128 0
817 1 0.129634 0.919738 0
818 1 0.145117 0.937549 0
820 1 0.166928 0.929399 0
851 1 0.183175 0.947052 0
821 1 0.189267 0.92241 0
822 1 0.204463 0.939411 0
824 1 0.21821 0.90878 0
853 1 0.225818 0.933743 0
855 1 0.241313 0.916663 0
854 1 0.247455 0.940792 0
856 1 0.262974 0.923819 0
857 1 0.284218 0.930544 0
885 1 0.269042 0.947984 0
828 1 0.30055 0.913951 0
859 1 0.305466 0.938218 0
830 1 0.321535 0.920656 0
860 1 0.327524 0.94556 0
832 1 0.343091 0.927175 0
863 1 0.364236 0.933454 0
861 1 0.348744 0.952537 0
834 1 0.380677 0.914924 0
865 1 0.386667 0.939695 0
835 1 0.403154 0.923109 0
836 1 0.408372 0.947208 0
839 1 0.43892 0.909998 0
838 1 0.423911 0.929296 0
869 1 0.44533 0.934773 0
867 1 0.429818 0.952497 0
1712 1 0.481846 0.923199 0
1741 1 0.466824 0.941088 0
840 1 0.460465 0.917072 0
1742 1 0.487907 0.947703 0
1770 1 0.0219744 0.956343 0
871 1 0.0371815 0.973798 0
1800 1 0.0154577 0.979994 0
1 1 0.03201 0.997909 0
872 1 0.0539084 0.990663 0
873 1 0.0592194 0.966332 0
874 1 0.0753729 0.984577 0
875 1 0.0803364 0.959077 0
876 1 0.0967337 0.976656 0
877 1 0.118573 0.969034 0
7 1 0.11304 0.993321 0
849 1 0.161334 0.954217 0
878 1 0.134757 0.985554 0
848 1 0.139341 0.961658 0
879 1 0.156633 0.977969 0
881 1 0.172217 0.99623 0
850 1 0.177342 0.971392 0
11 1 0.193471 0.988423 0
852 1 0.198109 0.964199 0
883 1 0.220789 0.957359 0
882 1 0.213702 0.981426 0
884 1 0.235258 0.974991 0
1771 1 0.473246 0.967485 0
886 1 0.254787 0.965253 0
17 1 0.275489 0.974973 0
16 1 0.257659 0.991456 0
887 1 0.289527 0.956436 0
888 1 0.296141 0.982257 0
858 1 0.311332 0.962963 0
889 1 0.317487 0.987978 0
891 1 0.33307 0.968964 0
890 1 0.339128 0.993941 0
862 1 0.355726 0.976511 0
864 1 0.370367 0.957859 0
893 1 0.376979 0.982966 0
895 1 0.392481 0.964366 0
896 1 0.397979 0.98964 0
866 1 0.413916 0.970802 0
870 1 0.451064 0.959976 0
897 1 0.419232 0.996016 0
868 1 0.435164 0.977884 0
1620 1 0.000677556 0.780702 0
1799 1 -0.000678511 0.962967 0
13 1 0.229917 0.997931 0
472 1 0.362961 0.50207 0
902 1 0.507549 0.0232844 0
904 1 0.529753 0.0278681 0
905 1 0.522864 0.00466113 0
906 1 0.544505 0.00987521 0
935 1 0.551965 0.0345262 0
908 1 0.566329 0.0158066 0
937 1 0.573232 0.0412702 0
939 1 0.58794 0.0222767 0
940 1 0.609976 0.0271446 0
941 1 0.601806 0.00326243 0
942 1 0.746917 0.0244559 0
971 1 0.741941 0.0483418 0
944 1 0.763834 0.0414293 0
943 1 0.768426 0.0181116 0
914 1 0.789634 0.0103894 0
945 1 0.784988 0.0345366 0
947 1 0.806247 0.0271987 0
918 1 0.827602 0.019669 0
916 1 0.811075 0.00262149 0
948 1 0.822398 0.0450993 0
949 1 0.844067 0.0381011 0
919 1 0.848875 0.0116424 0
920 1 0.86548 0.0295915 0
1790 1 0.870842 0.00398991 0
951 1 0.887253 0.0222622 0
922 1 0.909402 0.0167671 0
952 1 0.903871 0.0409476 0
953 1 0.924966 0.0340583 0
924 1 0.930929 0.00957426 0
955 1 0.946882 0.0274704 0
925 1 0.952314 0.00185402 0
926 1 0.967461 0.0201503 0
957 1 0.984304 0.0388124 0
928 1 0.98902 0.0141572 0
956 1 0.963174 0.045711 0
933 1 0.514148 0.0458874 0
963 1 0.519804 0.0695168 0
934 1 0.536314 0.0520213 0
962 1 0.503221 0.0888995 0
965 1 0.540686 0.0769298 0
936 1 0.557848 0.0599582 0
966 1 0.56349 0.0846546 0
967 1 0.579463 0.065454 0
968 1 0.584775 0.0899598 0
938 1 0.594979 0.0464701 0
969 1 0.60179 0.0712558 0
970 1 0.738025 0.0737197 0
972 1 0.754418 0.0906534 0
973 1 0.75838 0.0657492 0
975 1 0.779666 0.0583894 0
1003 1 0.775417 0.0823115 0
974 1 0.796004 0.0763699 0
946 1 0.801385 0.0514405 0
976 1 0.817559 0.0695069 0
1007 1 0.833885 0.0867367 0
977 1 0.839005 0.0622653 0
979 1 0.860702 0.0543777 0
978 1 0.855041 0.0787434 0
980 1 0.875959 0.0730822 0
950 1 0.882503 0.0470169 0
981 1 0.898156 0.0659617 0
982 1 0.915358 0.0834419 0
1011 1 0.893098 0.0903306 0
983 1 0.919566 0.0587303 0
984 1 0.936104 0.0749787 0
954 1 0.941315 0.0510169 0
985 1 0.95728 0.0695053 0
987 1 0.978435 0.0629042 0
988 1 0.995308 0.0795011 0
986 1 0.973573 0.0875522 0
964 1 0.524814 0.0958618 0
993 1 0.508806 0.113736 0
994 1 0.530998 0.120185 0
995 1 0.546472 0.101852 0
996 1 0.552214 0.125504 0
997 1 0.569461 0.108543 0
1027 1 0.573622 0.132608 0
998 1 0.590728 0.115105 0
1000 1 0.612356 0.122641 0
1030 1 0.633864 0.129593 0
999 1 0.647684 0.111307 0
1032 1 0.655363 0.13567 0
1001 1 0.671275 0.117615 0
1002 1 0.692444 0.123722 0
1033 1 0.769689 0.107857 0
1004 1 0.790863 0.100831 0
1065 1 0.786387 0.12497 0
1005 1 0.81239 0.0935451 0
1035 1 0.807687 0.117832 0
1006 1 0.828567 0.112077 0
1036 1 0.823452 0.136345 0
1037 1 0.845212 0.128837 0
1008 1 0.849956 0.103975 0
1039 1 0.8663 0.12242 0
1009 1 0.871313 0.0973907 0
1010 1 0.888035 0.114506 0
1012 1 0.909366 0.108224 0
1041 1 0.904715 0.13296 0
1015 1 0.952113 0.0936993 0
1043 1 0.92579 0.126802 0
1013 1 0.9309 0.101455 0
1014 1 0.947233 0.118941 0
1017 1 0.96809 0.111973 0
1018 1 0.990198 0.104013 0
1047 1 0.985342 0.128507 0
1016 1 0.963927 0.136459 0
1023 1 0.515196 0.138318 0
1024 1 0.521421 0.161882 0
1025 1 0.537101 0.144967 0
1053 1 0.505768 0.179533 0
1055 1 0.543399 0.169113 0
1026 1 0.558991 0.150631 0
1057 1 0.564037 0.174861 0
1028 1 0.581218 0.155591 0
1029 1 0.596686 0.139211 0
1058 1 0.602149 0.163704 0
1059 1 0.617503 0.146543 0
1060 1 0.62384 0.170526 0
1061 1 0.639742 0.153751 0
1062 1 0.661077 0.160552 0
1091 1 0.645788 0.178107 0
1031 1 0.677315 0.14215 0
1064 1 0.683507 0.166716 0
1063 1 0.699042 0.149338 0
1095 1 0.704912 0.173817 0
1034 1 0.721073 0.156614 0
1066 1 0.726171 0.179889 0