ITEM: TIMESTEP
46000
ITEM: NUMBER OF ATOMS
1800
ITEM: BOX BOUNDS pp pp pp
-6.6983368978846913e-01 1.6566983368979038e+02
1.1826529217466231e+00 1.6381734707825530e+02
0.0000000000000000e+00 5.5000000000000000e+00
ITEM: ATOMS id type xs ys zs
2 1 0.0168344 0.0117869 0
3 1 0.0398252 0.00409953 0
31 1 0.0110299 0.0368534 0
33 1 0.033695 0.0295304 0
4 1 0.0578153 0.0227308 0
6 1 0.0817695 0.015987 0
35 1 0.0757271 0.0412778 0
8 1 0.105765 0.00946967 0
37 1 0.0991076 0.0337041 0
39 1 0.122427 0.0278069 0
880 1 0.130208 0.00356852 0
9 1 0.147175 0.0214619 0
10 1 0.170004 0.0147542 0
40 1 0.163891 0.0387412 0
41 1 0.187742 0.0321845 0
12 1 0.194615 0.0087131 0
14 1 0.212496 0.0265878 0
13 1 0.219189 0.00151934 0
15 1 0.236128 0.0195373 0
16 1 0.259735 0.0139938 0
46 1 0.253811 0.038375 0
47 1 0.277853 0.0344226 0
18 1 0.283719 0.0109512 0
49 1 0.314337 0.034929 0
19 1 0.306993 0.0108276 0
20 1 0.329735 0.0162275 0
21 1 0.355165 0.0208199 0
51 1 0.338452 0.0398929 0
23 1 0.380637 0.0268789 0
894 1 0.396596 0.00803764 0
24 1 0.405223 0.0328321 0
892 1 0.371111 0.00292655 0
25 1 0.421297 0.0141947 0
27 1 0.44628 0.0206853 0
26 1 0.429964 0.0392969 0
28 1 0.454138 0.0445733 0
29 1 0.470438 0.0258699 0
900 1 0.487982 0.00772594 0
30 1 0.495462 0.0316536 0
898 1 0.463742 0.00243892 0
32 1 0.0272679 0.0554468 0
62 1 0.0211536 0.0803005 0
63 1 0.0451646 0.0720197 0
61 1 0.00412615 0.0618995 0
34 1 0.0508478 0.0465478 0
65 1 0.0692145 0.0656653 0
66 1 0.085595 0.0834518 0
64 1 0.0622232 0.0908879 0
36 1 0.093218 0.0590561 0
38 1 0.116849 0.0515044 0
67 1 0.110507 0.0769739 0
68 1 0.134081 0.0695046 0
69 1 0.140146 0.0458207 0
71 1 0.157397 0.0628088 0
72 1 0.175295 0.0812266 0
70 1 0.151548 0.0870912 0
42 1 0.181436 0.0568159 0
43 1 0.205572 0.0506271 0
73 1 0.198307 0.0745421 0
44 1 0.222591 0.0687142 0
45 1 0.229604 0.0440615 0
75 1 0.247544 0.063555 0
76 1 0.265881 0.0831177 0
74 1 0.240552 0.0872211 0
77 1 0.271576 0.0581919 0
48 1 0.296161 0.052543 0
79 1 0.305326 0.0753488 0
50 1 0.321508 0.0584798 0
81 1 0.32864 0.0814149 0
52 1 0.346265 0.0631669 0
82 1 0.353079 0.0875694 0
22 1 0.362805 0.0448373 0
53 1 0.386798 0.0507523 0
83 1 0.370365 0.0694456 0
54 1 0.395305 0.074726 0
55 1 0.412182 0.0569819 0
57 1 0.436471 0.0620709 0
56 1 0.420074 0.0798612 0
87 1 0.444337 0.0868138 0
59 1 0.478735 0.050725 0
58 1 0.460942 0.0688297 0
89 1 0.486189 0.0733661 0
92 1 0.0308491 0.12147 0
93 1 0.038966 0.0976458 0
91 1 0.0143566 0.10429 0
121 1 0.00693818 0.12737 0
94 1 0.0549908 0.115709 0
95 1 0.0793595 0.108451 0
125 1 0.0730053 0.133491 0
96 1 0.0963548 0.125949 0
97 1 0.102765 0.101517 0
98 1 0.120158 0.119183 0
99 1 0.12851 0.0949013 0
100 1 0.145941 0.11179 0
101 1 0.169761 0.104711 0
130 1 0.162401 0.130912 0
129 1 0.138759 0.136086 0
103 1 0.193604 0.0996087 0
102 1 0.186551 0.123189 0
105 1 0.217298 0.0935474 0
104 1 0.211468 0.117696 0
135 1 0.229386 0.135664 0
106 1 0.235463 0.112045 0
137 1 0.253982 0.129246 0
107 1 0.272176 0.110721 0
78 1 0.288361 0.0928142 0
109 1 0.29655 0.117446 0
108 1 0.279644 0.134752 0
80 1 0.312693 0.0990712 0
110 1 0.319617 0.124185 0
111 1 0.337195 0.105943 0
141 1 0.344249 0.129511 0
113 1 0.361358 0.111857 0
84 1 0.378458 0.0930713 0
112 1 0.386349 0.117579 0
85 1 0.403403 0.0991634 0
143 1 0.369078 0.13515 0
115 1 0.410827 0.123913 0
86 1 0.427069 0.104806 0
116 1 0.43424 0.129227 0
117 1 0.452272 0.109826 0
88 1 0.468992 0.0916792 0
119 1 0.475609 0.115822 0
90 1 0.493783 0.097227 0
118 1 0.458917 0.134386 0
122 1 0.0253071 0.144846 0
152 1 0.0208024 0.169638 0
153 1 0.0443682 0.165055 0
151 1 0.00269728 0.152257 0
123 1 0.0497163 0.140979 0
124 1 0.0677808 0.158673 0
155 1 0.0781547 0.180778 0
126 1 0.0906438 0.150843 0
127 1 0.11452 0.142678 0
157 1 0.109124 0.167731 0
128 1 0.132779 0.159687 0
159 1 0.157747 0.164341 0
131 1 0.180092 0.147951 0
132 1 0.181763 0.172467 0
133 1 0.205346 0.142427 0
134 1 0.22261 0.161165 0
163 1 0.20463 0.179744 0
136 1 0.262416 0.152137 0
165 1 0.24658 0.169823 0
167 1 0.269444 0.176743 0
139 1 0.302657 0.142104 0
138 1 0.286723 0.159867 0
169 1 0.310485 0.165728 0
168 1 0.293984 0.184005 0
140 1 0.327306 0.148546 0
142 1 0.351694 0.153822 0
171 1 0.334219 0.1724 0
172 1 0.358504 0.178273 0
114 1 0.393626 0.141986 0
144 1 0.400914 0.16583 0
173 1 0.376134 0.15988 0
145 1 0.417224 0.147746 0
146 1 0.424683 0.171292 0
147 1 0.44113 0.152716 0
177 1 0.448485 0.176075 0
149 1 0.483485 0.140467 0
148 1 0.466625 0.158101 0
150 1 0.490714 0.16454 0
183 1 0.0359315 0.190608 0
182 1 0.0403757 0.215777 0
181 1 0.0157095 0.205918 0
154 1 0.0598079 0.198722 0
184 1 0.0641613 0.22329 0
185 1 0.0829058 0.207065 0
186 1 0.105904 0.215476 0
156 1 0.100113 0.190615 0
158 1 0.122826 0.19954 0
187 1 0.128302 0.223905 0
160 1 0.140537 0.183255 0
161 1 0.164264 0.190558 0
189 1 0.146671 0.207463 0
191 1 0.170917 0.214945 0
162 1 0.188661 0.197524 0
193 1 0.211896 0.204391 0
192 1 0.194548 0.222561 0
164 1 0.227666 0.186098 0
195 1 0.235392 0.212812 0
166 1 0.252019 0.194644 0
196 1 0.259219 0.218843 0
197 1 0.276814 0.201302 0
199 1 0.300449 0.20801 0
198 1 0.283129 0.224872 0
170 1 0.317019 0.190258 0
201 1 0.341757 0.196347 0
200 1 0.324639 0.214029 0
202 1 0.349198 0.220512 0
174 1 0.382291 0.183626 0
203 1 0.366516 0.201773 0
204 1 0.39009 0.208317 0
175 1 0.408212 0.189621 0
233 1 0.373189 0.226996 0
205 1 0.415491 0.214321 0
176 1 0.432209 0.194984 0
207 1 0.439283 0.219236 0
179 1 0.471794 0.182514 0
178 1 0.455826 0.201804 0
209 1 0.480909 0.206035 0
208 1 0.464593 0.224309 0
180 1 0.497957 0.187889 0
212 1 0.0267825 0.256721 0
211 1 0.0213987 0.231936 0
213 1 0.0459182 0.240168 0
1140 1 0.00311724 0.24882 0
243 1 0.0502798 0.265197 0
215 1 0.0870433 0.2324 0
214 1 0.0687499 0.248793 0
245 1 0.0750541 0.273187 0
216 1 0.0918062 0.256258 0
217 1 0.110277 0.24049 0
218 1 0.1164 0.265794 0
188 1 0.133747 0.248055 0
190 1 0.152457 0.23126 0
221 1 0.17698 0.239667 0
220 1 0.158143 0.254919 0
222 1 0.183664 0.264286 0
194 1 0.2186 0.230006 0
223 1 0.201021 0.246702 0
224 1 0.22489 0.253984 0
253 1 0.20775 0.271652 0
225 1 0.242574 0.23722 0
227 1 0.266082 0.243159 0
226 1 0.249604 0.261004 0
257 1 0.273286 0.266863 0
229 1 0.306784 0.23148 0
228 1 0.290206 0.248796 0
230 1 0.314518 0.254705 0
231 1 0.331697 0.23779 0
232 1 0.356387 0.244522 0
261 1 0.337596 0.261999 0
263 1 0.362784 0.267665 0
235 1 0.397549 0.23255 0
234 1 0.380056 0.25028 0
265 1 0.403781 0.255844 0
206 1 0.422187 0.237788 0
237 1 0.446944 0.243034 0
236 1 0.428755 0.261685 0
238 1 0.453206 0.266584 0
210 1 0.490408 0.230703 0
239 1 0.470832 0.248927 0
240 1 0.494551 0.255198 0
241 1 0.00764472 0.272599 0
242 1 0.0322376 0.28186 0
271 1 0.0136966 0.29874 0
273 1 0.0372789 0.307119 0
244 1 0.0552976 0.289469 0
246 1 0.0806089 0.298133 0
275 1 0.062039 0.314548 0
247 1 0.0986752 0.281967 0
249 1 0.123583 0.290411 0
248 1 0.104642 0.306589 0
279 1 0.129482 0.313927 0
219 1 0.140556 0.272045 0
251 1 0.164108 0.280228 0
250 1 0.147741 0.298166 0
281 1 0.170978 0.304342 0
252 1 0.189071 0.288379 0
254 1 0.213769 0.295068 0
283 1 0.195637 0.312234 0
255 1 0.230559 0.27708 0
256 1 0.255473 0.285532 0
285 1 0.237868 0.302105 0
287 1 0.261487 0.309401 0
259 1 0.297059 0.2731 0
258 1 0.280438 0.291368 0
288 1 0.28706 0.315494 0
289 1 0.30402 0.297711 0
260 1 0.320523 0.279817 0
262 1 0.34385 0.285673 0
291 1 0.327197 0.304239 0
292 1 0.350711 0.310294 0
264 1 0.386603 0.274569 0
293 1 0.369433 0.29299 0
295 1 0.3941 0.298029 0
294 1 0.376765 0.316181 0
266 1 0.411134 0.278722 0
267 1 0.436221 0.285511 0
297 1 0.417704 0.302621 0
298 1 0.442753 0.309039 0
269 1 0.478301 0.273574 0
268 1 0.46041 0.291018 0
270 1 0.485169 0.296824 0
299 1 0.467241 0.314977 0
1229 1 0.00163541 0.341489 0
1200 1 0.0189954 0.323541 0
272 1 0.0430355 0.331253 0
301 1 0.0246292 0.348412 0
303 1 0.0498282 0.355877 0
276 1 0.086227 0.322503 0
274 1 0.067754 0.3391 0
304 1 0.0741667 0.364608 0
305 1 0.0916136 0.347225 0
277 1 0.110396 0.330894 0
307 1 0.117326 0.355217 0
278 1 0.134997 0.33951 0
280 1 0.152889 0.322667 0
282 1 0.176946 0.329508 0
311 1 0.159714 0.347499 0
309 1 0.141607 0.363288 0
284 1 0.220093 0.319687 0
312 1 0.183439 0.353801 0
313 1 0.200695 0.33661 0
315 1 0.227519 0.344913 0
314 1 0.208995 0.361985 0
286 1 0.244188 0.327431 0
317 1 0.268588 0.33368 0
316 1 0.250838 0.351641 0
290 1 0.311387 0.323319 0
318 1 0.275114 0.358096 0
319 1 0.292269 0.339853 0
320 1 0.317143 0.347279 0
321 1 0.334849 0.329065 0
323 1 0.359071 0.334435 0
322 1 0.341779 0.353195 0
296 1 0.400996 0.321764 0
324 1 0.365875 0.358396 0
325 1 0.383113 0.340608 0
326 1 0.406625 0.346705 0
327 1 0.426281 0.326549 0
328 1 0.43259 0.351049 0
329 1 0.450257 0.332695 0
300 1 0.492255 0.320907 0
359 1 0.457468 0.357523 0
330 1 0.473549 0.339133 0
360 1 0.482075 0.363736 0
1201 1 0.497072 0.344599 0
1230 1 0.00706976 0.366628 0
302 1 0.0320586 0.371333 0
332 1 0.0373026 0.398571 0
331 1 0.0138403 0.390181 0
333 1 0.0540757 0.380084 0
335 1 0.0788684 0.388387 0
334 1 0.0617708 0.406606 0
306 1 0.0974471 0.372056 0
308 1 0.121848 0.379209 0
337 1 0.103809 0.396754 0
338 1 0.127836 0.404713 0
310 1 0.165441 0.371906 0
339 1 0.146466 0.388126 0
341 1 0.172485 0.395813 0
343 1 0.190087 0.379001 0
342 1 0.195749 0.403713 0
344 1 0.214684 0.386908 0
345 1 0.233043 0.369434 0
347 1 0.257275 0.37587 0
346 1 0.240467 0.394199 0
377 1 0.264137 0.400571 0
349 1 0.299517 0.365359 0
348 1 0.281318 0.383295 0
350 1 0.305815 0.389564 0
351 1 0.3236 0.371342 0
381 1 0.329717 0.395276 0
353 1 0.348444 0.37738 0
352 1 0.355135 0.400857 0
355 1 0.390592 0.364293 0
354 1 0.373149 0.381624 0
385 1 0.38133 0.405651 0
356 1 0.398283 0.387716 0
387 1 0.422716 0.393035 0
357 1 0.415464 0.37016 0
358 1 0.440466 0.375073 0
389 1 0.448097 0.398914 0
1232 1 0.465578 0.380756 0
1262 1 0.490129 0.386876 0
1261 1 0.471953 0.404165 0
361 1 0.0199696 0.413929 0
362 1 0.0254594 0.438959 0
363 1 0.044179 0.422711 0
392 1 0.00665002 0.45495 0
391 1 0.000404879 0.429737 0
336 1 0.085568 0.412896 0
364 1 0.0489925 0.446682 0
365 1 0.067674 0.430122 0
366 1 0.0909165 0.437593 0
395 1 0.0725596 0.456 0
367 1 0.109315 0.421539 0
368 1 0.115183 0.44538 0
369 1 0.134235 0.429203 0
340 1 0.153124 0.411878 0
371 1 0.177731 0.41975 0
370 1 0.158173 0.437007 0
399 1 0.138925 0.453337 0
373 1 0.220547 0.411353 0
401 1 0.182317 0.443952 0
372 1 0.201338 0.428209 0
374 1 0.225398 0.435464 0
403 1 0.206002 0.452051 0
375 1 0.245222 0.419046 0
376 1 0.269567 0.426769 0
405 1 0.250268 0.443635 0
378 1 0.288603 0.407972 0
379 1 0.313032 0.415087 0
407 1 0.274403 0.452196 0
409 1 0.295395 0.433369 0
380 1 0.31901 0.439275 0
382 1 0.33757 0.419917 0
413 1 0.346239 0.442067 0
383 1 0.364276 0.423662 0
386 1 0.407049 0.411321 0
414 1 0.37033 0.447656 0
384 1 0.389174 0.429782 0
415 1 0.3949 0.4542 0
417 1 0.414796 0.435417 0
388 1 0.432008 0.416807 0
418 1 0.438131 0.441148 0
419 1 0.456651 0.423382 0
1293 1 0.498067 0.411063 0
390 1 0.463197 0.44807 0
1291 1 0.480604 0.428197 0
1321 1 0.48683 0.453319 0
393 1 0.0302262 0.46363 0
422 1 0.011278 0.479494 0
423 1 0.0349343 0.488426 0
394 1 0.0532887 0.471846 0
396 1 0.0789662 0.47907 0
425 1 0.0593766 0.495449 0
397 1 0.0971073 0.462803 0
398 1 0.119932 0.470443 0
427 1 0.101891 0.487794 0
428 1 0.12628 0.49546 0
400 1 0.162365 0.461871 0
429 1 0.143114 0.478437 0
431 1 0.168683 0.486047 0
402 1 0.18685 0.468745 0
432 1 0.192579 0.495834 0
433 1 0.210763 0.477105 0
404 1 0.230906 0.460272 0
406 1 0.254625 0.469325 0
435 1 0.233455 0.484959 0
436 1 0.259667 0.493732 0
410 1 0.299693 0.458886 0
408 1 0.279523 0.477182 0
441 1 0.30232 0.487904 0
411 1 0.327614 0.462097 0
412 1 0.353919 0.466346 0
442 1 0.338158 0.484248 0
473 1 0.361815 0.491259 0
443 1 0.378993 0.473076 0
444 1 0.386175 0.49671 0
445 1 0.404204 0.478476 0
448 1 0.451672 0.489254 0
416 1 0.41972 0.460164 0
447 1 0.445653 0.465283 0
446 1 0.428024 0.483327 0
449 1 0.476384 0.494999 0
450 1 0.494179 0.477041 0
420 1 0.47056 0.471819 0
454 1 0.0213839 0.528603 0
453 1 0.0167774 0.504157 0
424 1 0.0403487 0.512801 0
483 1 0.00292437 0.545515 0
485 1 0.0448183 0.537739 0
455 1 0.0639138 0.519668 0
426 1 0.0831696 0.504014 0
456 1 0.0874937 0.528238 0
486 1 0.0687285 0.544653 0
457 1 0.106919 0.511781 0
458 1 0.111805 0.536318 0
459 1 0.130707 0.520191 0
489 1 0.135492 0.544741 0
460 1 0.153752 0.527781 0
461 1 0.171574 0.510912 0
462 1 0.177104 0.536025 0
430 1 0.149067 0.503559 0
463 1 0.196086 0.519562 0
434 1 0.215085 0.503931 0
464 1 0.220201 0.528334 0
493 1 0.200997 0.544097 0
466 1 0.244431 0.536659 0
465 1 0.240037 0.510164 0
437 1 0.262079 0.519092 0
467 1 0.284101 0.531321 0
438 1 0.303354 0.516113 0
468 1 0.308937 0.542255 0
439 1 0.2822 0.503577 0
440 1 0.323352 0.503461 0
469 1 0.328287 0.527944 0
470 1 0.351857 0.5345 0
471 1 0.346462 0.510159 0
472 1 0.370149 0.516322 0
503 1 0.377739 0.539594 0
474 1 0.394281 0.520364 0
476 1 0.417856 0.526322 0
477 1 0.435256 0.507185 0
507 1 0.443742 0.53117 0
475 1 0.410656 0.50151 0
478 1 0.460035 0.513793 0
480 1 0.467353 0.537247 0
479 1 0.483317 0.519166 0
510 1 0.49091 0.542388 0
513 1 0.0266562 0.553015 0
514 1 0.0316677 0.578682 0
482 1 0.00763582 0.569145 0
484 1 0.0498486 0.562767 0
515 1 0.072744 0.569833 0
545 1 0.0549299 0.588369 0
487 1 0.0918812 0.553496 0
488 1 0.116531 0.561723 0
517 1 0.0951079 0.579085 0
519 1 0.119346 0.586121 0
491 1 0.15824 0.552765 0
490 1 0.138746 0.568916 0
521 1 0.162062 0.576962 0
492 1 0.182097 0.56077 0
523 1 0.187189 0.58509 0
494 1 0.205219 0.568201 0
495 1 0.224991 0.55258 0
496 1 0.248743 0.562308 0
525 1 0.22984 0.577532 0
497 1 0.266897 0.547133 0
527 1 0.271123 0.572246 0
526 1 0.252735 0.588014 0
498 1 0.28961 0.556623 0
529 1 0.294171 0.582876 0
500 1 0.31367 0.567747 0
499 1 0.334518 0.553274 0
501 1 0.3597 0.557982 0
531 1 0.343299 0.576552 0
505 1 0.401868 0.544757 0
533 1 0.368437 0.581304 0
502 1 0.384822 0.563809 0
534 1 0.393689 0.586199 0
504 1 0.410765 0.568411 0
506 1 0.426429 0.549767 0
508 1 0.434065 0.574577 0
509 1 0.450794 0.555281 0
539 1 0.45822 0.580167 0
540 1 0.474487 0.561031 0
569 1 0.481368 0.585393 0
1441 1 0.497829 0.566542 0
512 1 0.0109657 0.594672 0
542 1 0.0170054 0.620115 0
543 1 0.0346634 0.602851 0
544 1 0.041177 0.629392 0
516 1 0.0778473 0.595883 0
546 1 0.0593817 0.613217 0
547 1 0.0835874 0.621922 0
518 1 0.101642 0.603981 0
548 1 0.123859 0.611075 0
577 1 0.107693 0.630801 0
520 1 0.143818 0.59301 0
522 1 0.167849 0.600238 0
549 1 0.147872 0.616375 0
551 1 0.169988 0.625635 0
524 1 0.209856 0.593535 0
553 1 0.190848 0.61053 0
554 1 0.213324 0.619523 0
552 1 0.192602 0.636104 0
555 1 0.23166 0.603311 0
556 1 0.235509 0.630137 0
557 1 0.254382 0.612898 0
528 1 0.274798 0.599118 0
559 1 0.297786 0.609703 0
558 1 0.276508 0.624582 0
560 1 0.298626 0.634675 0
530 1 0.31746 0.59348 0
561 1 0.319381 0.620179 0
532 1 0.351237 0.600986 0
562 1 0.361142 0.6235 0
563 1 0.377157 0.605337 0
565 1 0.385395 0.630811 0
536 1 0.400638 0.611908 0
535 1 0.417029 0.592842 0
537 1 0.440639 0.598664 0
567 1 0.424703 0.616325 0
568 1 0.448974 0.622118 0
538 1 0.465655 0.603853 0
570 1 0.489565 0.608578 0
600 1 0.474399 0.627446 0
1501 1 0.498699 0.632612 0
573 1 0.0212556 0.644592 0
603 1 0.024323 0.669115 0
572 1 0.00226426 0.659465 0
574 1 0.0451845 0.654381 0
604 1 0.0499953 0.679224 0
575 1 0.0654712 0.638635 0
605 1 0.0704968 0.663698 0
607 1 0.0885912 0.680242 0
576 1 0.0888075 0.648779 0
578 1 0.108114 0.665215 0
579 1 0.127787 0.651312 0
609 1 0.130123 0.676761 0
550 1 0.149348 0.639957 0
581 1 0.172068 0.64998 0
580 1 0.151609 0.664152 0
611 1 0.173568 0.6748 0
583 1 0.214747 0.644129 0
582 1 0.194349 0.66076 0
584 1 0.217247 0.669866 0
587 1 0.257017 0.639792 0
585 1 0.236702 0.655561 0
586 1 0.258584 0.664778 0
589 1 0.279157 0.650864 0
588 1 0.280434 0.676256 0
590 1 0.301041 0.661308 0
591 1 0.320439 0.646445 0
593 1 0.351065 0.669611 0
621 1 0.32345 0.672493 0
564 1 0.367108 0.648996 0
594 1 0.37678 0.673115 0
595 1 0.392024 0.654708 0
625 1 0.4 0.679284 0
566 1 0.409603 0.636507 0
596 1 0.417293 0.660053 0
597 1 0.433653 0.64095 0
598 1 0.440654 0.665635 0
599 1 0.458045 0.64606 0
629 1 0.481628 0.65128 0
628 1 0.4656 0.670137 0
630 1 0.489454 0.676511 0
602 1 0.00622234 0.698099 0
633 1 0.0293077 0.691991 0
634 1 0.0247626 0.716473 0
632 1 0.00109777 0.72193 0
635 1 0.048591 0.707934 0
606 1 0.0683134 0.694832 0
636 1 0.0700757 0.720478 0
637 1 0.0907725 0.707151 0
608 1 0.110389 0.691008 0
638 1 0.1128 0.717696 0
639 1 0.132668 0.703518 0
640 1 0.134691 0.728951 0
610 1 0.15335 0.689221 0
641 1 0.154387 0.714521 0
612 1 0.174891 0.699544 0
642 1 0.177516 0.725678 0
613 1 0.196842 0.684495 0
614 1 0.218717 0.695486 0
643 1 0.196974 0.710289 0
645 1 0.22018 0.719748 0
615 1 0.239218 0.681635 0
617 1 0.260835 0.691544 0
616 1 0.241125 0.705353 0
647 1 0.262445 0.715678 0
619 1 0.302501 0.68628 0
618 1 0.283047 0.701946 0
620 1 0.30564 0.712634 0
592 1 0.360608 0.692518 0
622 1 0.325088 0.697224 0
653 1 0.345619 0.710986 0
651 1 0.326468 0.725977 0
623 1 0.384027 0.698579 0
624 1 0.368289 0.718287 0
655 1 0.391701 0.722543 0
626 1 0.408312 0.702943 0
627 1 0.424114 0.684928 0
657 1 0.449796 0.689649 0
656 1 0.43298 0.708217 0
686 1 0.416642 0.727286 0
658 1 0.457683 0.713805 0
659 1 0.47357 0.694769 0
660 1 0.48152 0.718787 0
1531 1 0.498073 0.699986 0
662 1 0.0120415 0.764361 0
664 1 0.01883 0.739837 0
695 1 0.0382219 0.75675 0
665 1 0.0432202 0.73263 0
666 1 0.0649775 0.745994 0
697 1 0.0745496 0.769049 0
667 1 0.0932505 0.730825 0
668 1 0.0942181 0.755643 0
669 1 0.114437 0.743068 0
699 1 0.114823 0.768542 0
670 1 0.135552 0.755001 0
671 1 0.157122 0.739266 0
672 1 0.158089 0.764254 0
673 1 0.178486 0.750096 0
644 1 0.19958 0.734881 0
674 1 0.201402 0.76016 0
675 1 0.222463 0.745583 0
705 1 0.224128 0.77102 0
646 1 0.242559 0.730698 0
677 1 0.244976 0.756718 0
648 1 0.264566 0.74169 0
678 1 0.266264 0.767975 0
649 1 0.284174 0.726859 0
650 1 0.306158 0.73811 0
679 1 0.286743 0.753092 0
681 1 0.310008 0.7626 0
652 1 0.33085 0.75052 0
683 1 0.358247 0.760447 0
654 1 0.350521 0.736443 0
685 1 0.3762 0.742207 0
715 1 0.401039 0.745528 0
684 1 0.385123 0.764936 0
714 1 0.409277 0.769692 0
687 1 0.441207 0.732393 0
717 1 0.425585 0.751259 0
688 1 0.449397 0.756915 0
689 1 0.465676 0.738413 0
690 1 0.49002 0.742954 0
719 1 0.473622 0.761976 0
1591 1 0.497617 0.768001 0
694 1 0.0290127 0.782233 0
693 1 0.00578548 0.789405 0
723 1 0.0217109 0.806714 0
899 1 0.479507 0.983736 0
696 1 0.0521462 0.776894 0
725 1 0.0456875 0.800692 0
727 1 0.0719657 0.793478 0
726 1 0.064531 0.81688 0
728 1 0.0920272 0.809559 0
698 1 0.0952967 0.783298 0
700 1 0.118029 0.793321 0
701 1 0.137822 0.779401 0
731 1 0.140893 0.804055 0
702 1 0.161229 0.789514 0
732 1 0.163752 0.815834 0
703 1 0.180967 0.774699 0
733 1 0.182792 0.801349 0
704 1 0.202975 0.786471 0
735 1 0.205815 0.811643 0
706 1 0.22586 0.796939 0
676 1 0.247078 0.782525 0
737 1 0.248327 0.807154 0
707 1 0.269132 0.793603 0
709 1 0.288325 0.778174 0
708 1 0.292364 0.801711 0
710 1 0.313963 0.81114 0
680 1 0.311878 0.786736 0
682 1 0.337589 0.775565 0
711 1 0.35004 0.798074 0
713 1 0.368401 0.782304 0
712 1 0.375066 0.805619 0
743 1 0.391963 0.788695 0
745 1 0.39858 0.811673 0
716 1 0.4326 0.775474 0
747 1 0.440048 0.799452 0
746 1 0.415244 0.793987 0
775 1 0.423343 0.817232 0
718 1 0.457356 0.780485 0
720 1 0.48152 0.786218 0
749 1 0.464223 0.804016 0
1621 1 0.488876 0.809789 0
751 1 0.0159822 0.831573 0
752 1 0.00944734 0.855494 0
753 1 0.0338673 0.848658 0
722 1 0.0393507 0.825035 0
724 1 0.0583379 0.841376 0
755 1 0.0758919 0.858592 0
757 1 0.0828203 0.833881 0
729 1 0.120515 0.818059 0
756 1 0.0994418 0.852002 0
759 1 0.122364 0.843262 0
730 1 0.143064 0.829789 0
761 1 0.165979 0.841735 0
760 1 0.143479 0.860681 0
763 1 0.185945 0.825624 0
762 1 0.188468 0.849387 0
734 1 0.208771 0.836843 0
738 1 0.271943 0.818162 0
736 1 0.228886 0.822094 0
765 1 0.231795 0.848596 0
767 1 0.251341 0.832325 0
766 1 0.256824 0.855586 0
768 1 0.276317 0.843449 0
739 1 0.294597 0.827948 0
769 1 0.298857 0.854492 0
740 1 0.316781 0.836248 0
741 1 0.336504 0.819221 0
742 1 0.359316 0.824288 0
771 1 0.342771 0.843136 0
770 1 0.324409 0.860761 0
773 1 0.366604 0.848514 0
744 1 0.382696 0.830598 0
803 1 0.390851 0.853857 0
774 1 0.407075 0.835574 0
748 1 0.446769 0.822362 0
777 1 0.430477 0.841021 0
776 1 0.414887 0.859722 0
779 1 0.456469 0.846758 0
1651 1 0.497761 0.832886 0
750 1 0.471863 0.827681 0
780 1 0.481536 0.851658 0
783 1 0.0276375 0.872729 0
782 1 0.00367069 0.880135 0
813 1 0.0214851 0.896885 0
784 1 0.0455473 0.89015 0
754 1 0.0513074 0.86537 0
785 1 0.0684141 0.882777 0
786 1 0.0871503 0.901593 0
815 1 0.0629531 0.907164 0
758 1 0.116769 0.869188 0
787 1 0.0938733 0.877313 0
788 1 0.113093 0.8949 0
789 1 0.135622 0.885588 0
791 1 0.15971 0.880329 0
790 1 0.154368 0.904692 0
823 1 0.177719 0.899174 0
764 1 0.207656 0.866969 0
792 1 0.184351 0.87403 0
793 1 0.20123 0.892789 0
795 1 0.225285 0.884672 0
796 1 0.249591 0.879195 0
827 1 0.267845 0.895727 0
825 1 0.244173 0.903374 0
797 1 0.278285 0.869876 0
799 1 0.308198 0.878875 0
798 1 0.292065 0.897568 0
829 1 0.315944 0.903276 0
800 1 0.332628 0.885154 0
801 1 0.349428 0.866091 0
802 1 0.356624 0.890531 0
831 1 0.340065 0.909674 0
772 1 0.374499 0.872465 0
805 1 0.398052 0.877879 0
804 1 0.381363 0.896455 0
806 1 0.406687 0.900718 0
778 1 0.440306 0.864997 0
807 1 0.423788 0.882676 0
808 1 0.448714 0.888837 0
837 1 0.431325 0.906554 0
809 1 0.465198 0.87078 0
1681 1 0.489338 0.875787 0
810 1 0.472662 0.894351 0
1711 1 0.497579 0.899636 0
842 1 0.00923212 0.94637 0
843 1 0.0156804 0.922155 0
844 1 0.0339973 0.939043 0
814 1 0.0390948 0.9145 0
816 1 0.0815138 0.925832 0
845 1 0.0569891 0.931327 0
846 1 0.0768885 0.94948 0
819 1 0.130902 0.911986 0
817 1 0.105801 0.918863 0
818 1 0.124872 0.935639 0
847 1 0.101728 0.94345 0
821 1 0.1732 0.9242 0
820 1 0.148924 0.929454 0
851 1 0.167239 0.947957 0
849 1 0.142662 0.953804 0
794 1 0.219592 0.909331 0
824 1 0.197202 0.917174 0
822 1 0.190526 0.941227 0
853 1 0.2163 0.934386 0
855 1 0.239168 0.928267 0
826 1 0.263129 0.921584 0
856 1 0.256742 0.945634 0
854 1 0.233512 0.953624 0
828 1 0.29804 0.921208 0
857 1 0.282053 0.939572 0
859 1 0.305334 0.94692 0
830 1 0.322274 0.927188 0
832 1 0.348621 0.932643 0
860 1 0.331433 0.951115 0
833 1 0.364871 0.914242 0
863 1 0.37341 0.938129 0
834 1 0.389449 0.919678 0
865 1 0.398065 0.942919 0
835 1 0.415022 0.925521 0
838 1 0.438626 0.931264 0
836 1 0.42242 0.948791 0
867 1 0.447325 0.955103 0
839 1 0.455905 0.91412 0
1741 1 0.488676 0.941394 0
840 1 0.480326 0.918614 0
869 1 0.463238 0.936621 0
872 1 0.021785 0.986949 0
873 1 0.0277746 0.963259 0
871 1 0.00378444 0.971224 0
874 1 0.045682 0.980734 0
875 1 0.0517345 0.956443 0
876 1 0.0689486 0.973851 0
7 1 0.0875361 0.991263 0
5 1 0.0637736 0.997883 0
877 1 0.0936762 0.967144 0
848 1 0.118929 0.960548 0
878 1 0.112391 0.985546 0
879 1 0.136728 0.977878 0
850 1 0.160502 0.971413 0
11 1 0.178089 0.991068 0
881 1 0.154154 0.996382 0
852 1 0.185514 0.965203 0
882 1 0.201751 0.984077 0
883 1 0.20891 0.95952 0
884 1 0.226365 0.977492 0
885 1 0.250697 0.971479 0
17 1 0.268315 0.990811 0
886 1 0.243867 0.995428 0
887 1 0.274504 0.965555 0
858 1 0.313911 0.969792 0
888 1 0.296709 0.98835 0
861 1 0.356167 0.956511 0
889 1 0.323042 0.992425 0
891 1 0.339019 0.973977 0
890 1 0.347524 0.997691 0
862 1 0.364554 0.979473 0
864 1 0.381247 0.961174 0
893 1 0.388735 0.985461 0
895 1 0.40602 0.966007 0
897 1 0.438097 0.995701 0
896 1 0.413667 0.990227 0
866 1 0.430679 0.972404 0
868 1 0.455303 0.978692 0
1771 1 0.495383 0.965563 0
870 1 0.472122 0.960034 0
902 1 0.535735 0.0180863 0
931 1 0.519612 0.0370821 0
901 1 0.512263 0.0132863 0
933 1 0.543333 0.0420296 0
904 1 0.560276 0.024765 0
906 1 0.576212 0.00559134 0
935 1 0.584618 0.0294879 0
1350 1 0.968719 0.487626 0
908 1 0.601707 0.0110368 0
937 1 0.60966 0.0358903 0
939 1 0.626197 0.0183417 0
938 1 0.634924 0.0423258 0
940 1 0.652791 0.02464 0
971 1 0.672951 0.0378578 0
942 1 0.679794 0.0136919 0
944 1 0.697227 0.0323017 0
945 1 0.721181 0.0248065 0
943 1 0.703809 0.00754099 0
947 1 0.744331 0.0181634 0
948 1 0.763136 0.035646 0
918 1 0.770033 0.0112279 0
946 1 0.739111 0.0432661 0
919 1 0.793258 0.00560043 0
949 1 0.78723 0.0297454 0
920 1 0.810786 0.0240596 0
951 1 0.835629 0.0167818 0
952 1 0.853959 0.0360153 0
922 1 0.860127 0.0107665 0
950 1 0.829229 0.0416529 0
953 1 0.877164 0.0291197 0
955 1 0.901026 0.0218617 0
924 1 0.883127 0.0037893 0
954 1 0.895634 0.0452169 0
926 1 0.925123 0.0146745 0
928 1 0.950686 0.0071361 0
957 1 0.944849 0.0321039 0
956 1 0.919041 0.0389824 0
930 1 0.993677 0.0202513 0
959 1 0.968497 0.0267062 0
929 1 0.975596 0.00217717 0
960 1 0.986978 0.0445448 0
932 1 0.527422 0.0604682 0
962 1 0.533785 0.0856592 0
961 1 0.510806 0.0787831 0
60 1 0.503966 0.0555926 0
934 1 0.568539 0.0479687 0
963 1 0.55094 0.0657813 0
965 1 0.574536 0.0718238 0
936 1 0.592196 0.0541332 0
966 1 0.59992 0.0777217 0
967 1 0.61681 0.0590004 0
968 1 0.624714 0.0832683 0
969 1 0.642906 0.0658408 0
970 1 0.667303 0.0627214 0
999 1 0.659544 0.0874842 0
972 1 0.685615 0.0795765 0
975 1 0.715124 0.050161 0
973 1 0.690894 0.0557586 0
1003 1 0.709212 0.0738423 0
1004 1 0.726108 0.0925568 0
974 1 0.731939 0.0683592 0
976 1 0.756509 0.0612261 0
1005 1 0.749816 0.0850696 0
1007 1 0.774877 0.0791994 0
979 1 0.805121 0.0482738 0
977 1 0.779714 0.0537516 0
978 1 0.798687 0.0718466 0
1009 1 0.815603 0.0895615 0
980 1 0.823055 0.0653748 0
981 1 0.847322 0.0602825 0
1011 1 0.840114 0.0840063 0
982 1 0.863579 0.0779931 0
983 1 0.871548 0.0546088 0
984 1 0.889251 0.0700924 0
1015 1 0.906342 0.0877634 0
985 1 0.912429 0.0639857 0
986 1 0.930055 0.0817131 0
987 1 0.937553 0.0566544 0
988 1 0.955315 0.0748297 0
958 1 0.961875 0.0507912 0
989 1 0.979674 0.0682711 0
990 1 0.997003 0.0857445 0
991 1 0.517589 0.103057 0
992 1 0.524669 0.128199 0
993 1 0.542141 0.109524 0
120 1 0.50049 0.12112 0
964 1 0.558035 0.0905058 0
994 1 0.565561 0.115794 0
995 1 0.582389 0.0975406 0
1023 1 0.548796 0.133761 0
996 1 0.591168 0.120333 0
997 1 0.607246 0.1022 0
1027 1 0.615157 0.12557 0
998 1 0.631045 0.106772 0
1000 1 0.654514 0.112598 0
1001 1 0.677992 0.103469 0
1029 1 0.638911 0.130875 0
1031 1 0.696562 0.121873 0
1002 1 0.702471 0.097384 0
1033 1 0.72005 0.116112 0
1035 1 0.743751 0.109777 0
1006 1 0.767271 0.102805 0
1036 1 0.761056 0.127786 0
1034 1 0.736204 0.13558 0
1008 1 0.791998 0.0962675 0
1037 1 0.785364 0.120996 0
1039 1 0.809439 0.113571 0
1040 1 0.827268 0.131758 0
1010 1 0.833712 0.108219 0
1012 1 0.857442 0.101492 0
1041 1 0.851448 0.125205 0
1043 1 0.875183 0.117603 0
1013 1 0.882201 0.0944842 0
1014 1 0.899641 0.112016 0
1016 1 0.917827 0.130441 0
1017 1 0.924133 0.10579 0
1018 1 0.947925 0.0983082 0
1047 1 0.942131 0.122553 0
1019 1 0.972013 0.0922288 0
1020 1 0.989157 0.109838 0
1049 1 0.965438 0.117067 0
1050 1 0.983877 0.134647 0
1021 1 0.507878 0.145505 0
1022 1 0.532301 0.152215 0
1053 1 0.539483 0.175682 0
1051 1 0.514795 0.169911 0
1025 1 0.573827 0.138525 0
1024 1 0.556105 0.157238 0
1055 1 0.580419 0.162067 0
1054 1 0.564199 0.181592 0
1026 1 0.598435 0.144054 0
1028 1 0.622616 0.150043 0
1057 1 0.604776 0.168424 0
1058 1 0.629739 0.173708 0
1030 1 0.662451 0.136832 0
1059 1 0.645743 0.155066 0
1061 1 0.669599 0.16083 0
1060 1 0.653697 0.178789 0
1032 1 0.686568 0.144112 0
1063 1 0.712251 0.141757 0
1062 1 0.700882 0.163467 0
1064 1 0.730926 0.16055 0
1065 1 0.755577 0.153439 0
1095 1 0.747141 0.177565 0
1066 1 0.773131 0.170576 0
1038 1 0.802621 0.138593 0
1067 1 0.778376 0.145737 0
1068 1 0.796863 0.163002 0
1099 1 0.815419 0.180583 0
1069 1 0.820375 0.156554 0
1071 1 0.845413 0.150756 0
1070 1 0.839195 0.174234 0
1072 1 0.863096 0.167565 0
1044 1 0.892954 0.136879 0
1042 1 0.869795 0.142314 0
1073 1 0.888385 0.16047 0
1074 1 0.907393 0.177888 0
1045 1 0.912227 0.154007 0
1075 1 0.930927 0.170881 0
1046 1 0.93695 0.146614 0
1077 1 0.955004 0.164669 0
1048 1 0.960961 0.141058 0
1079 1 0.977666 0.158643 0
1080 1 0.996972 0.175969 0
1052 1 0.523225 0.194535 0
1082 1 0.530302 0.218224 0
1081 1 0.506069 0.212262 0
1083 1 0.546979 0.199047 0
1085 1 0.571177 0.204578 0
1084 1 0.55507 0.223752 0
1056 1 0.588208 0.185785 0
1086 1 0.595699 0.20937 0
1087 1 0.612962 0.191582 0
1088 1 0.621374 0.214783 0
1089 1 0.638166 0.196912 0
1091 1 0.679675 0.183514 0
1090 1 0.662394 0.202128 0
1119 1 0.644385 0.221071 0
1121 1 0.668976 0.226246 0
1092 1 0.686694 0.207263 0
1093 1 0.703387 0.188247 0
1123 1 0.710569 0.212866 0
1094 1 0.726935 0.193786 0
1096 1 0.750767 0.2016 0
1125 1 0.733584 0.219702 0
1126 1 0.758666 0.2261 0
1097 1 0.791827 0.187832 0
1127 1 0.776499 0.207961 0
1098 1 0.801666 0.21241 0
1129 1 0.827284 0.22162 0
1100 1 0.8331 0.197601 0
1101 1 0.858137 0.190656 0
1131 1 0.851532 0.215317 0
1102 1 0.875595 0.207518 0
1103 1 0.883015 0.184311 0
1104 1 0.899718 0.202422 0
1135 1 0.91842 0.220688 0
1105 1 0.924743 0.195707 0
1076 1 0.948658 0.189305 0
1107 1 0.974346 0.2174 0
1078 1 0.972936 0.182851 0
1109 1 0.991326 0.19998 0
1110 1 0.997795 0.224692 0
1111 1 0.513323 0.236557 0
1113 1 0.537311 0.241946 0
1112 1 0.520576 0.260027 0
1143 1 0.545067 0.265857 0
1115 1 0.57842 0.228239 0
1114 1 0.562013 0.247366 0
1116 1 0.586227 0.251882 0
1145 1 0.569495 0.270988 0
1117 1 0.603134 0.2328 0
1118 1 0.627217 0.239297 0
1147 1 0.610887 0.258097 0
1149 1 0.634857 0.263562 0
1120 1 0.651935 0.24473 0
1151 1 0.676451 0.250761 0
1150 1 0.660643 0.269697 0
1122 1 0.694042 0.231989 0
1124 1 0.71763 0.2391 0
1153 1 0.700426 0.255845 0
1154 1 0.724812 0.262933 0
1155 1 0.742254 0.244667 0
1156 1 0.750721 0.268568 0
1157 1 0.766933 0.249846 0
1128 1 0.78467 0.231056 0
1159 1 0.809105 0.237916 0
1158 1 0.791356 0.255987 0
1160 1 0.816071 0.262729 0
1130 1 0.833984 0.244476 0
1191 1 0.84182 0.269397 0
1161 1 0.858516 0.25222 0
1133 1 0.894128 0.226897 0
1132 1 0.870549 0.231358 0
1163 1 0.885756 0.251705 0
1134 1 0.911123 0.246417 0