ITEM: TIMESTEP
23000
ITEM: NUMBER OF ATOMS
1800
ITEM: BOX BOUNDS pp pp pp
2.5640961597907697e-01 1.6474359038402284e+02
1.1826529217466231e+00 1.6381734707825530e+02
0.0000000000000000e+00 5.5000000000000000e+00
ITEM: ATOMS id type xs ys zs
2 1 0.0139646 0.0144032 0
3 1 0.0381842 0.00840978 0
31 1 0.0072964 0.0387816 0
33 1 0.0318395 0.0320697 0
4 1 0.0556849 0.0248792 0
6 1 0.080528 0.0183062 0
35 1 0.0733157 0.0428948 0
447 1 0.442503 0.464864 0
8 1 0.105726 0.0120992 0
37 1 0.0984532 0.0359721 0
39 1 0.122138 0.0297755 0
880 1 0.13101 0.00522418 0
9 1 0.14766 0.0229081 0
10 1 0.170488 0.0153911 0
40 1 0.164159 0.0406083 0
41 1 0.188368 0.0342829 0
12 1 0.194568 0.00933362 0
14 1 0.2124 0.0279441 0
13 1 0.219668 0.00247267 0
15 1 0.236058 0.0228382 0
16 1 0.259251 0.0163189 0
46 1 0.255143 0.0402272 0
420 1 0.467313 0.470215 0
47 1 0.27838 0.033745 0
18 1 0.282938 0.00960165 0
49 1 0.314611 0.0340033 0
19 1 0.307158 0.010971 0
20 1 0.332425 0.0172122 0
21 1 0.357093 0.022427 0
51 1 0.340882 0.0401698 0
22 1 0.36509 0.0460096 0
23 1 0.381332 0.0278184 0
894 1 0.398392 0.00946443 0
24 1 0.404864 0.0325296 0
892 1 0.372947 0.00344904 0
25 1 0.421989 0.0142235 0
27 1 0.446114 0.0193128 0
26 1 0.430336 0.038531 0
28 1 0.454984 0.0441886 0
29 1 0.470065 0.026053 0
900 1 0.487362 0.00717529 0
30 1 0.49461 0.0317434 0
898 1 0.462663 0.000983804 0
32 1 0.0255893 0.0572399 0
62 1 0.0176664 0.080667 0
61 1 0.00110351 0.0620352 0
63 1 0.0421558 0.0755197 0
34 1 0.0488531 0.0498855 0
65 1 0.0660932 0.0677115 0
66 1 0.0844977 0.084654 0
36 1 0.0914588 0.0609676 0
38 1 0.114731 0.0535034 0
67 1 0.108474 0.0787155 0
68 1 0.133384 0.070627 0
69 1 0.139349 0.0473328 0
71 1 0.157565 0.0649404 0
72 1 0.17491 0.0820778 0
70 1 0.150059 0.0886661 0
42 1 0.181229 0.0578694 0
43 1 0.205484 0.0521205 0
73 1 0.199338 0.0764655 0
44 1 0.223113 0.0709782 0
45 1 0.230178 0.0462964 0
75 1 0.24792 0.0646764 0
76 1 0.264981 0.0829522 0
77 1 0.271766 0.0588665 0
48 1 0.297198 0.0511219 0
79 1 0.307539 0.0745586 0
50 1 0.323919 0.0569532 0
81 1 0.331561 0.0810672 0
52 1 0.348192 0.0639045 0
82 1 0.356067 0.087769 0
53 1 0.389103 0.0511041 0
83 1 0.371497 0.069776 0
54 1 0.396407 0.074707 0
55 1 0.413451 0.0566508 0
57 1 0.436744 0.0633234 0
56 1 0.420251 0.0819799 0
87 1 0.444506 0.087177 0
59 1 0.478482 0.0505307 0
58 1 0.461749 0.068295 0
89 1 0.486472 0.073536 0
92 1 0.0293285 0.12313 0
93 1 0.0354044 0.0991831 0
91 1 0.0113517 0.104716 0
121 1 0.00523716 0.129044 0
64 1 0.0598105 0.0924956 0
94 1 0.0531227 0.115508 0
95 1 0.0783545 0.108939 0
125 1 0.0702856 0.133508 0
96 1 0.0952455 0.12672 0
97 1 0.102903 0.103559 0
98 1 0.119915 0.120515 0
99 1 0.126891 0.0958962 0
100 1 0.143738 0.114608 0
101 1 0.167211 0.106316 0
130 1 0.160785 0.131538 0
103 1 0.192405 0.100726 0
102 1 0.18496 0.123885 0
105 1 0.216643 0.095691 0
104 1 0.209491 0.120021 0
74 1 0.241346 0.0894056 0
106 1 0.23334 0.115331 0
137 1 0.256174 0.126449 0
107 1 0.271996 0.107728 0
78 1 0.288877 0.09115 0
109 1 0.296288 0.115437 0
108 1 0.278606 0.132292 0
80 1 0.313962 0.0984734 0
110 1 0.320168 0.121918 0
111 1 0.338608 0.104993 0
141 1 0.345312 0.129397 0
113 1 0.363523 0.112476 0
84 1 0.380083 0.0939136 0
112 1 0.387478 0.118785 0
85 1 0.403637 0.0991974 0
143 1 0.3701 0.136069 0
115 1 0.41164 0.12361 0
86 1 0.42723 0.10508 0
116 1 0.435709 0.129218 0
117 1 0.45141 0.110757 0
88 1 0.469197 0.0922006 0
119 1 0.476258 0.115781 0
90 1 0.493143 0.097037 0
118 1 0.45971 0.134246 0
122 1 0.0234614 0.148571 0
152 1 0.0166698 0.17366 0
153 1 0.0399785 0.166029 0
123 1 0.0463073 0.140783 0
124 1 0.0632954 0.158287 0
155 1 0.081753 0.174154 0
126 1 0.0880424 0.150603 0
127 1 0.112215 0.144333 0
128 1 0.129155 0.161669 0
157 1 0.104951 0.168292 0
129 1 0.136932 0.138907 0
159 1 0.154957 0.16035 0
131 1 0.177 0.148105 0
132 1 0.181727 0.171533 0
133 1 0.202008 0.145091 0
134 1 0.222207 0.161306 0
163 1 0.205384 0.180018 0
135 1 0.23701 0.141092 0
136 1 0.261204 0.150141 0
165 1 0.245992 0.168896 0
167 1 0.269337 0.175491 0
139 1 0.30323 0.139034 0
138 1 0.285839 0.15678 0
169 1 0.310218 0.162902 0
168 1 0.292727 0.180708 0
140 1 0.328039 0.146599 0
142 1 0.353574 0.153455 0
171 1 0.334897 0.1698 0
172 1 0.359919 0.17698 0
114 1 0.394863 0.141975 0
144 1 0.402076 0.165929 0
173 1 0.378588 0.159378 0
145 1 0.419119 0.147437 0
146 1 0.426382 0.171212 0
147 1 0.442381 0.152622 0
177 1 0.450064 0.176158 0
149 1 0.483582 0.139079 0
148 1 0.466395 0.157746 0
150 1 0.491304 0.162897 0
179 1 0.473581 0.180988 0
183 1 0.0340525 0.190835 0
182 1 0.0386802 0.215672 0
181 1 0.0135922 0.20842 0
154 1 0.0588727 0.183802 0
184 1 0.0631805 0.224722 0
185 1 0.0807411 0.206653 0
186 1 0.105104 0.216775 0
156 1 0.100394 0.192077 0
158 1 0.123616 0.200045 0
187 1 0.1279 0.225022 0
160 1 0.142059 0.182015 0
161 1 0.164787 0.190876 0
189 1 0.146098 0.207822 0
191 1 0.169794 0.215375 0
162 1 0.187834 0.197432 0
193 1 0.211017 0.204833 0
192 1 0.193764 0.2223 0
164 1 0.228728 0.186433 0
195 1 0.234987 0.212107 0
166 1 0.252192 0.193501 0
196 1 0.259493 0.217658 0
197 1 0.276558 0.199309 0
199 1 0.299762 0.206288 0
198 1 0.282677 0.223395 0
170 1 0.316901 0.187619 0
201 1 0.341444 0.193939 0
200 1 0.324363 0.212239 0
202 1 0.349083 0.218648 0
174 1 0.384222 0.183559 0
203 1 0.366732 0.201045 0
233 1 0.37347 0.224641 0
204 1 0.391198 0.207096 0
175 1 0.408585 0.189666 0
205 1 0.416945 0.213413 0
176 1 0.433764 0.194745 0
207 1 0.440361 0.218662 0
178 1 0.457456 0.199895 0
209 1 0.480233 0.204401 0
208 1 0.464798 0.223562 0
180 1 0.498037 0.186947 0
212 1 0.0265743 0.257567 0
211 1 0.0194207 0.233771 0
213 1 0.0448356 0.240333 0
1140 1 0.00127503 0.250423 0
243 1 0.0505678 0.265457 0
215 1 0.086932 0.233016 0
214 1 0.0684749 0.249515 0
216 1 0.0928722 0.258397 0
217 1 0.110681 0.242651 0
218 1 0.116834 0.266864 0
188 1 0.134204 0.249363 0
190 1 0.152954 0.232645 0
221 1 0.176562 0.239771 0
220 1 0.158513 0.25707 0
222 1 0.1824 0.263201 0
194 1 0.21821 0.229092 0
223 1 0.200745 0.24622 0
253 1 0.206396 0.270121 0
224 1 0.223873 0.254025 0
225 1 0.2414 0.236941 0
227 1 0.265749 0.242042 0
226 1 0.247932 0.260411 0
257 1 0.273664 0.265794 0
229 1 0.307619 0.230209 0
228 1 0.291066 0.247934 0
230 1 0.315377 0.254544 0
231 1 0.331756 0.235865 0
232 1 0.356111 0.24246 0
261 1 0.338873 0.260284 0
263 1 0.363103 0.266452 0
235 1 0.398749 0.230816 0
234 1 0.380631 0.248815 0
265 1 0.405709 0.254761 0
206 1 0.42272 0.236844 0
237 1 0.447014 0.241927 0
236 1 0.43054 0.260405 0
238 1 0.453171 0.265503 0
210 1 0.488817 0.229276 0
239 1 0.471964 0.248389 0
240 1 0.495862 0.25414 0
269 1 0.478885 0.272078 0
241 1 0.00731367 0.275637 0
242 1 0.0310538 0.282682 0
271 1 0.0121303 0.299788 0
273 1 0.0364666 0.306832 0
245 1 0.0739675 0.27529 0
244 1 0.0547931 0.290194 0
246 1 0.0806559 0.299997 0
275 1 0.0611699 0.314743 0
247 1 0.0997367 0.284184 0
249 1 0.12336 0.29157 0
248 1 0.10614 0.307978 0
279 1 0.129688 0.3147 0
219 1 0.14006 0.274017 0
251 1 0.165313 0.280919 0
250 1 0.148175 0.298001 0
281 1 0.17223 0.304777 0
252 1 0.189388 0.288009 0
254 1 0.213137 0.294715 0
283 1 0.195046 0.31236 0
284 1 0.219792 0.319779 0
255 1 0.23126 0.27756 0
256 1 0.25653 0.283947 0
285 1 0.238075 0.302043 0
287 1 0.262712 0.308628 0
259 1 0.297242 0.272632 0
258 1 0.280966 0.291085 0
288 1 0.286338 0.31578 0
289 1 0.304768 0.297748 0
260 1 0.320779 0.278718 0
262 1 0.345017 0.284593 0
291 1 0.328886 0.302707 0
292 1 0.352686 0.308506 0
264 1 0.388124 0.272246 0
293 1 0.370836 0.291283 0
295 1 0.39532 0.296559 0
294 1 0.377942 0.315212 0
266 1 0.411573 0.278592 0
267 1 0.436642 0.284044 0
297 1 0.419683 0.30248 0
298 1 0.443569 0.308129 0
268 1 0.461448 0.290255 0
270 1 0.48605 0.29603 0
299 1 0.469225 0.313553 0
1229 1 0.000294073 0.340667 0
1200 1 0.0186852 0.323688 0
272 1 0.0438933 0.33145 0
301 1 0.0245232 0.347541 0
303 1 0.0501831 0.355807 0
276 1 0.0873774 0.323287 0
274 1 0.0682409 0.339118 0
305 1 0.0920842 0.347636 0
277 1 0.11193 0.331397 0
307 1 0.117505 0.355639 0
278 1 0.136403 0.338993 0
280 1 0.154052 0.322022 0
282 1 0.177824 0.329467 0
311 1 0.160727 0.347406 0
309 1 0.142023 0.36301 0
312 1 0.18438 0.353962 0
313 1 0.201765 0.336407 0
314 1 0.20897 0.360634 0
315 1 0.227186 0.343429 0
286 1 0.244107 0.325763 0
317 1 0.269365 0.33285 0
316 1 0.250712 0.349799 0
290 1 0.311147 0.32128 0
318 1 0.275259 0.356947 0
319 1 0.292504 0.339407 0
320 1 0.318079 0.345155 0
321 1 0.336025 0.327237 0
323 1 0.361177 0.332206 0
322 1 0.343064 0.351734 0
296 1 0.401875 0.320252 0
324 1 0.366349 0.357986 0
325 1 0.385753 0.339948 0
326 1 0.409275 0.344071 0
355 1 0.390318 0.363298 0
327 1 0.427384 0.326972 0
328 1 0.433193 0.351038 0
329 1 0.450936 0.332282 0
450 1 0.492221 0.475808 0
300 1 0.493498 0.319641 0
359 1 0.457883 0.355659 0
330 1 0.475468 0.337556 0
360 1 0.482083 0.361848 0
1230 1 0.00718317 0.364303 0
302 1 0.0313016 0.372353 0
332 1 0.036956 0.395812 0
331 1 0.013019 0.389854 0
304 1 0.0738783 0.363085 0
333 1 0.0561967 0.38028 0
335 1 0.0802352 0.388153 0
334 1 0.0610922 0.403921 0
306 1 0.099033 0.371926 0
308 1 0.123224 0.38014 0
337 1 0.104337 0.395948 0
338 1 0.130805 0.404422 0
310 1 0.167377 0.371697 0
339 1 0.148546 0.387487 0
341 1 0.173681 0.39657 0
343 1 0.19241 0.37931 0
342 1 0.197575 0.403575 0
344 1 0.215742 0.385393 0
345 1 0.233362 0.368988 0
347 1 0.258646 0.375356 0
346 1 0.240433 0.392855 0
377 1 0.26516 0.399153 0
349 1 0.30085 0.363349 0
348 1 0.283094 0.380845 0
350 1 0.30755 0.387462 0
378 1 0.290237 0.405259 0
351 1 0.324947 0.368798 0
381 1 0.331317 0.393988 0
353 1 0.348374 0.376191 0
352 1 0.35593 0.400235 0
354 1 0.372703 0.381584 0
385 1 0.379746 0.405007 0
356 1 0.397068 0.387155 0
387 1 0.422286 0.393414 0
357 1 0.414236 0.36877 0
358 1 0.439428 0.375349 0
389 1 0.447354 0.398199 0
1232 1 0.464607 0.379576 0
1262 1 0.489161 0.385964 0
1261 1 0.472058 0.404309 0
391 1 0.00253965 0.430502 0
361 1 0.0199268 0.413529 0
362 1 0.0256051 0.438082 0
363 1 0.0441273 0.421674 0
336 1 0.0862793 0.413075 0
364 1 0.0492513 0.445783 0
365 1 0.0683746 0.428742 0
366 1 0.0918741 0.437519 0
367 1 0.111923 0.420023 0
368 1 0.117729 0.444287 0
369 1 0.136339 0.428118 0
340 1 0.155552 0.41251 0
371 1 0.179572 0.420961 0
370 1 0.161124 0.436444 0
399 1 0.142694 0.453035 0
373 1 0.222084 0.410412 0
401 1 0.185972 0.444885 0
372 1 0.203986 0.427801 0
403 1 0.210217 0.452413 0
374 1 0.229755 0.434294 0
375 1 0.246474 0.416118 0
376 1 0.271461 0.424039 0
405 1 0.253578 0.443266 0
379 1 0.314237 0.412116 0
407 1 0.277977 0.448874 0
409 1 0.296078 0.428999 0
410 1 0.303657 0.453765 0
380 1 0.321317 0.436515 0
382 1 0.338246 0.417559 0
413 1 0.345361 0.442032 0
383 1 0.362098 0.424142 0
386 1 0.404832 0.411451 0
414 1 0.370058 0.448321 0
384 1 0.386389 0.429518 0
415 1 0.394005 0.453603 0
417 1 0.411445 0.436426 0
388 1 0.429071 0.417109 0
418 1 0.436113 0.440595 0
419 1 0.453752 0.422176 0
1293 1 0.496413 0.409943 0
390 1 0.46034 0.445568 0
1291 1 0.479111 0.427817 0
1321 1 0.48656 0.451296 0
392 1 0.00850203 0.454872 0
393 1 0.0317363 0.463007 0
422 1 0.0137625 0.479636 0
423 1 0.0366173 0.486754 0
395 1 0.0736266 0.453901 0
394 1 0.0557401 0.471542 0
396 1 0.0799686 0.47744 0
425 1 0.0630958 0.495498 0
397 1 0.0990249 0.462138 0
398 1 0.124213 0.469091 0
427 1 0.105479 0.486903 0
428 1 0.129903 0.494502 0
400 1 0.166958 0.461608 0
429 1 0.148455 0.478261 0
431 1 0.172834 0.485564 0
402 1 0.19177 0.470094 0
432 1 0.198014 0.49411 0
433 1 0.217105 0.477492 0
449 1 0.474375 0.493266 0
404 1 0.23404 0.458806 0
406 1 0.260772 0.467105 0
435 1 0.24275 0.484422 0
436 1 0.267683 0.491717 0
408 1 0.285567 0.473233 0
441 1 0.311155 0.479129 0
439 1 0.2923 0.496831 0
411 1 0.327863 0.460014 0
412 1 0.351974 0.466044 0
442 1 0.33565 0.484448 0
473 1 0.359054 0.489725 0
443 1 0.376209 0.472009 0
444 1 0.383073 0.49532 0
445 1 0.400781 0.478395 0
446 1 0.426157 0.483847 0
448 1 0.450063 0.488224 0
416 1 0.417648 0.4605 0
5 1 0.0620392 0.0012135 0
454 1 0.0243369 0.528067 0
453 1 0.0196768 0.50399 0
424 1 0.0435365 0.511009 0
452 1 0.000208033 0.519367 0
485 1 0.0496118 0.535399 0
455 1 0.0671659 0.519145 0
426 1 0.0863105 0.503421 0
456 1 0.0915661 0.527612 0
457 1 0.109978 0.511588 0
458 1 0.113899 0.537373 0
459 1 0.135407 0.518416 0
489 1 0.13927 0.542617 0
460 1 0.159316 0.52592 0
461 1 0.179811 0.510838 0
899 1 0.479266 0.983023 0
462 1 0.183405 0.535461 0
493 1 0.206907 0.544937 0
463 1 0.20359 0.520013 0
464 1 0.228004 0.527719 0
466 1 0.251843 0.534325 0
465 1 0.248684 0.509307 0
437 1 0.275287 0.516391 0
467 1 0.286745 0.538252 0
468 1 0.309354 0.544657 0
438 1 0.301149 0.519764 0
469 1 0.325603 0.526263 0
470 1 0.350123 0.532373 0
471 1 0.342353 0.508291 0
440 1 0.318196 0.502413 0
472 1 0.367286 0.513651 0
503 1 0.37465 0.538262 0
474 1 0.392218 0.520247 0
505 1 0.398781 0.543602 0
475 1 0.409121 0.502213 0
476 1 0.416987 0.526114 0
477 1 0.433617 0.50809 0
507 1 0.440673 0.531432 0
478 1 0.458078 0.512658 0
480 1 0.465495 0.536466 0
479 1 0.483098 0.518383 0
510 1 0.49081 0.541612 0
483 1 0.00545157 0.544162 0
513 1 0.0300743 0.552553 0
514 1 0.0336682 0.578007 0
482 1 0.0103421 0.569212 0
486 1 0.0715778 0.546108 0
484 1 0.0532494 0.56166 0
515 1 0.07668 0.571905 0
545 1 0.0573467 0.588339 0
487 1 0.0947619 0.554071 0
488 1 0.119278 0.561721 0
517 1 0.10191 0.582876 0
491 1 0.16284 0.549867 0
490 1 0.143149 0.566196 0
520 1 0.146968 0.590078 0
521 1 0.167304 0.574344 0
492 1 0.186932 0.560444 0
523 1 0.190822 0.585005 0
494 1 0.210315 0.569971 0
495 1 0.229796 0.55303 0
496 1 0.250412 0.567433 0
525 1 0.231327 0.582546 0
497 1 0.268575 0.554015 0
526 1 0.254189 0.593 0
527 1 0.273266 0.578432 0
498 1 0.291458 0.562948 0
529 1 0.298509 0.588399 0
500 1 0.315682 0.568791 0
499 1 0.333135 0.551333 0
501 1 0.357265 0.557849 0
531 1 0.338716 0.576433 0
533 1 0.36379 0.581693 0
502 1 0.382471 0.562599 0
504 1 0.407151 0.568979 0
534 1 0.388772 0.586946 0
506 1 0.423099 0.550201 0
508 1 0.431411 0.57355 0
509 1 0.448006 0.555073 0
539 1 0.456199 0.579035 0
540 1 0.472921 0.560254 0
569 1 0.480018 0.584514 0
1441 1 0.497441 0.564844 0
512 1 0.0149192 0.5938 0
542 1 0.0166106 0.618999 0
543 1 0.0374228 0.604762 0
544 1 0.0406515 0.629548 0
516 1 0.0797542 0.597816 0
546 1 0.0605227 0.613689 0
547 1 0.082526 0.625453 0
519 1 0.12426 0.598203 0
518 1 0.102951 0.610694 0
548 1 0.124864 0.623693 0
522 1 0.169478 0.59959 0
549 1 0.148264 0.614153 0
551 1 0.170366 0.625498 0
524 1 0.211568 0.597174 0
553 1 0.190291 0.610882 0
554 1 0.213517 0.621548 0
552 1 0.193808 0.634921 0
555 1 0.23497 0.607942 0
556 1 0.236666 0.631977 0
557 1 0.256829 0.618027 0
528 1 0.277963 0.602395 0
559 1 0.301749 0.614081 0
558 1 0.28038 0.62813 0
560 1 0.303135 0.639061 0
530 1 0.322541 0.595312 0
561 1 0.328675 0.620788 0
532 1 0.347598 0.60189 0
562 1 0.354624 0.626116 0
563 1 0.371693 0.605485 0
565 1 0.379829 0.629198 0
536 1 0.396953 0.61114 0
566 1 0.404813 0.634609 0
535 1 0.414404 0.592061 0
537 1 0.438846 0.597139 0
567 1 0.42199 0.615854 0
568 1 0.446306 0.620653 0
538 1 0.463277 0.603039 0
570 1 0.488306 0.608721 0
600 1 0.470634 0.625975 0
1501 1 0.495213 0.63357 0
434 1 0.222441 0.50169 0
573 1 0.020106 0.644866 0
603 1 0.0230714 0.669283 0
574 1 0.042472 0.655211 0
604 1 0.0445107 0.681782 0
575 1 0.0624701 0.64012 0
605 1 0.0642608 0.666855 0
576 1 0.0831777 0.651856 0
607 1 0.0864246 0.677252 0
577 1 0.104101 0.63802 0
578 1 0.105867 0.662931 0
579 1 0.127401 0.649522 0
609 1 0.128473 0.675118 0
550 1 0.148859 0.63798 0
581 1 0.17139 0.649209 0
580 1 0.150617 0.663695 0
611 1 0.171942 0.673486 0
583 1 0.2146 0.646636 0
582 1 0.19344 0.660554 0
584 1 0.215835 0.671558 0
587 1 0.259033 0.642624 0
585 1 0.237412 0.656226 0
586 1 0.259456 0.667828 0
615 1 0.237039 0.682927 0
589 1 0.281695 0.653743 0
588 1 0.281283 0.679161 0
590 1 0.302418 0.665572 0
591 1 0.324143 0.652055 0
593 1 0.347074 0.667699 0
621 1 0.323832 0.677722 0
564 1 0.364675 0.649356 0
594 1 0.37363 0.672353 0
595 1 0.389269 0.653683 0
625 1 0.397423 0.678324 0
596 1 0.414063 0.658948 0
597 1 0.430276 0.639521 0
598 1 0.438481 0.664359 0
599 1 0.454844 0.644582 0
629 1 0.478522 0.65081 0
628 1 0.462595 0.669157 0
630 1 0.48751 0.674579 0
602 1 0.00235681 0.683882 0
632 1 0.00214263 0.71016 0
633 1 0.0239424 0.694704 0
634 1 0.0246753 0.72014 0
635 1 0.0459874 0.706354 0
606 1 0.0663529 0.691241 0
636 1 0.0684004 0.717426 0
637 1 0.0886208 0.702654 0
608 1 0.108923 0.688639 0
638 1 0.111443 0.714916 0
639 1 0.131995 0.700252 0
640 1 0.133402 0.725849 0
610 1 0.151457 0.687123 0
641 1 0.153725 0.712276 0
612 1 0.174173 0.699278 0
642 1 0.176083 0.724403 0
613 1 0.195631 0.684773 0
614 1 0.21722 0.697296 0
643 1 0.19638 0.710294 0
645 1 0.217952 0.722826 0
617 1 0.258887 0.693889 0
616 1 0.239183 0.707933 0
647 1 0.261544 0.719302 0
619 1 0.301423 0.690782 0
618 1 0.281632 0.705424 0
620 1 0.302497 0.717912 0
592 1 0.358365 0.691439 0
622 1 0.322219 0.701656 0
653 1 0.343664 0.711682 0
651 1 0.32503 0.728013 0
623 1 0.381754 0.697111 0
624 1 0.366688 0.716556 0
626 1 0.406603 0.702207 0
655 1 0.390459 0.720859 0
627 1 0.422583 0.682992 0
657 1 0.446957 0.688681 0
656 1 0.430723 0.707766 0
686 1 0.414141 0.726595 0
658 1 0.454405 0.71221 0
659 1 0.470929 0.692686 0
660 1 0.478456 0.717234 0
1531 1 0.49516 0.698637 0
663 1 0.004176 0.734972 0
662 1 0.00765182 0.759238 0
664 1 0.0272188 0.744918 0
694 1 0.0289749 0.77046 0
665 1 0.0478115 0.731312 0
666 1 0.0700517 0.743061 0
695 1 0.0498782 0.756445 0
697 1 0.0718867 0.768122 0
667 1 0.0907659 0.72854 0
668 1 0.0931821 0.754308 0
669 1 0.113017 0.739759 0
699 1 0.113964 0.765545 0
670 1 0.134686 0.751818 0
671 1 0.155147 0.737927 0
672 1 0.156555 0.762951 0
673 1 0.177299 0.748558 0
644 1 0.19843 0.736409 0
674 1 0.199419 0.76153 0
675 1 0.220059 0.748164 0
705 1 0.221312 0.772919 0
646 1 0.240627 0.733526 0
677 1 0.242146 0.759113 0
648 1 0.26241 0.744901 0
678 1 0.265349 0.769625 0
649 1 0.282834 0.731263 0
650 1 0.305539 0.742467 0
679 1 0.285734 0.755915 0
681 1 0.309364 0.766999 0
652 1 0.329888 0.752749 0
683 1 0.354227 0.759701 0
654 1 0.349389 0.735952 0
685 1 0.373306 0.740976 0
715 1 0.398198 0.744741 0
684 1 0.382513 0.763833 0
714 1 0.406968 0.769063 0
687 1 0.438893 0.731649 0
717 1 0.422329 0.749812 0
688 1 0.446222 0.754818 0
689 1 0.463065 0.735597 0
690 1 0.487295 0.742463 0
719 1 0.470433 0.761028 0
1591 1 0.496033 0.767198 0
693 1 0.00850626 0.788515 0
723 1 0.0254959 0.8086 0
868 1 0.455007 0.977207 0
696 1 0.0512438 0.780074 0
725 1 0.0512039 0.803931 0
727 1 0.0727678 0.792529 0
728 1 0.095098 0.808483 0
726 1 0.0694496 0.81895 0
698 1 0.0933293 0.779698 0
700 1 0.114663 0.791793 0
701 1 0.13574 0.77821 0
731 1 0.136598 0.80293 0
703 1 0.178317 0.775439 0
702 1 0.158066 0.788727 0
732 1 0.15924 0.813755 0
733 1 0.179483 0.800466 0
704 1 0.200788 0.786507 0
735 1 0.202175 0.81133 0
706 1 0.223343 0.798454 0
676 1 0.244648 0.783632 0
737 1 0.246593 0.808818 0
707 1 0.266073 0.794621 0
709 1 0.288767 0.781619 0
708 1 0.287017 0.806984 0
710 1 0.309647 0.815651 0
680 1 0.314227 0.791501 0
682 1 0.337702 0.776973 0
711 1 0.348718 0.800556 0
713 1 0.364289 0.782167 0
712 1 0.372991 0.805099 0
743 1 0.390631 0.787447 0
745 1 0.396993 0.810978 0
716 1 0.430116 0.774728 0
747 1 0.438353 0.798729 0
746 1 0.414565 0.79313 0
775 1 0.422339 0.81694 0
718 1 0.453574 0.779613 0
720 1 0.478399 0.784834 0
749 1 0.462544 0.803547 0
1621 1 0.487405 0.807826 0
751 1 0.0188747 0.832197 0
752 1 0.0129311 0.855795 0
753 1 0.0376358 0.850459 0
722 1 0.0436191 0.82669 0
724 1 0.0618592 0.843817 0
755 1 0.0786406 0.860568 0
757 1 0.0855245 0.836057 0
729 1 0.112339 0.826994 0
756 1 0.102376 0.853238 0
759 1 0.126131 0.84873 0
730 1 0.137422 0.826795 0
761 1 0.159695 0.839209 0
763 1 0.181926 0.825357 0
762 1 0.183046 0.850851 0
734 1 0.203339 0.836607 0
736 1 0.223968 0.824066 0
764 1 0.205851 0.862237 0
765 1 0.225125 0.848315 0
738 1 0.267649 0.820917 0
767 1 0.247214 0.834409 0
766 1 0.246833 0.859505 0
768 1 0.268901 0.846722 0
739 1 0.290652 0.833329 0
769 1 0.295622 0.857784 0
740 1 0.314158 0.839736 0
741 1 0.333537 0.819946 0
742 1 0.356974 0.824445 0
771 1 0.339398 0.843729 0
770 1 0.323113 0.86217 0
773 1 0.36408 0.848471 0
744 1 0.381072 0.828933 0
803 1 0.389314 0.852716 0
774 1 0.405264 0.835029 0
748 1 0.446207 0.821713 0
777 1 0.4298 0.840149 0
776 1 0.414591 0.859162 0
779 1 0.455594 0.845949 0
1651 1 0.49511 0.831639 0
750 1 0.471298 0.826018 0
780 1 0.479555 0.850455 0
783 1 0.0301532 0.873267 0
782 1 0.00646251 0.880554 0
813 1 0.0232696 0.897863 0
784 1 0.0480018 0.891094 0
754 1 0.0545919 0.867578 0
785 1 0.0717464 0.885083 0
815 1 0.0653758 0.90996 0
786 1 0.0894236 0.903596 0
758 1 0.119403 0.872734 0
787 1 0.0959794 0.879449 0
788 1 0.11373 0.896469 0
760 1 0.14468 0.865847 0
789 1 0.138082 0.890254 0
791 1 0.160563 0.883654 0
790 1 0.155889 0.908373 0
823 1 0.179447 0.900014 0
792 1 0.185 0.875412 0
793 1 0.203957 0.891443 0
795 1 0.225736 0.877089 0
796 1 0.248969 0.884937 0
827 1 0.2675 0.900187 0
825 1 0.245113 0.908571 0
797 1 0.271519 0.872144 0
799 1 0.306549 0.88026 0
798 1 0.290866 0.898191 0
829 1 0.31523 0.903245 0
800 1 0.331124 0.884827 0
801 1 0.347623 0.867109 0
802 1 0.356017 0.890409 0
772 1 0.372479 0.872079 0
805 1 0.396814 0.876545 0
804 1 0.381249 0.897141 0
806 1 0.405082 0.901147 0
778 1 0.438519 0.864588 0
807 1 0.422129 0.882629 0
808 1 0.446337 0.888977 0
837 1 0.429513 0.906874 0
809 1 0.463654 0.86937 0
1681 1 0.488326 0.874417 0
810 1 0.472776 0.893619 0
1711 1 0.496502 0.899759 0
842 1 0.0101361 0.947472 0
843 1 0.0168132 0.922373 0
844 1 0.0355521 0.940565 0
814 1 0.0407635 0.916048 0
816 1 0.0826027 0.928346 0
845 1 0.0593618 0.935122 0
846 1 0.0764714 0.95272 0
819 1 0.13128 0.914599 0
817 1 0.106705 0.92142 0
818 1 0.125053 0.938261 0
847 1 0.100472 0.944931 0
821 1 0.173344 0.924993 0
820 1 0.14918 0.932299 0
851 1 0.167697 0.949086 0
794 1 0.221181 0.909335 0
824 1 0.197371 0.91693 0
822 1 0.191209 0.94254 0
853 1 0.21572 0.935719 0
855 1 0.240071 0.931753 0
826 1 0.264894 0.925465 0
856 1 0.258047 0.949258 0
828 1 0.298479 0.922429 0
857 1 0.282571 0.943568 0
859 1 0.306165 0.945908 0
831 1 0.338294 0.907993 0
830 1 0.323251 0.927352 0
832 1 0.346907 0.932325 0
860 1 0.330591 0.951024 0
833 1 0.363324 0.914773 0
863 1 0.371498 0.938122 0
834 1 0.387774 0.920196 0
865 1 0.396624 0.942846 0
835 1 0.411968 0.923922 0
838 1 0.439574 0.929032 0
836 1 0.421174 0.947263 0
839 1 0.456286 0.911098 0
1741 1 0.48822 0.941837 0
840 1 0.480267 0.918096 0
869 1 0.463661 0.934482 0
872 1 0.0213768 0.990815 0
873 1 0.0274276 0.965746 0
871 1 0.00290418 0.971874 0
874 1 0.0449641 0.983485 0
875 1 0.0515749 0.959029 0
876 1 0.0688302 0.976816 0
7 1 0.0873256 0.993917 0
877 1 0.093582 0.969886 0
848 1 0.117565 0.962784 0
878 1 0.111448 0.987243 0
879 1 0.135174 0.979943 0
849 1 0.14281 0.955782 0
850 1 0.159769 0.973417 0
11 1 0.177551 0.991198 0
881 1 0.153516 0.997154 0
852 1 0.183948 0.967559 0
882 1 0.200985 0.983902 0
883 1 0.208978 0.96059 0
884 1 0.226149 0.978096 0
854 1 0.233099 0.954638 0
885 1 0.250528 0.973232 0
17 1 0.267471 0.991561 0
887 1 0.276037 0.968425 0
858 1 0.314504 0.970387 0
888 1 0.293714 0.986934 0
861 1 0.3553 0.956544 0
889 1 0.324535 0.994362 0
891 1 0.339605 0.974564 0
890 1 0.348197 0.998403 0
862 1 0.364201 0.980026 0
864 1 0.380252 0.961541 0
893 1 0.38867 0.984444 0
895 1 0.405373 0.966053 0
867 1 0.445953 0.952653 0
897 1 0.438067 0.994973 0
896 1 0.414088 0.989987 0
866 1 0.430848 0.970641 0
1771 1 0.495927 0.964884 0
870 1 0.470296 0.958201 0
692 1 0.000991767 0.813847 0
886 1 0.24348 0.996523 0
430 1 0.154421 0.502233 0
902 1 0.536923 0.0173281 0
931 1 0.520214 0.0362351 0
901 1 0.510894 0.0128882 0
933 1 0.544135 0.0409225 0
904 1 0.561466 0.0233397 0
906 1 0.577931 0.00545327 0
935 1 0.586148 0.0281662 0
908 1 0.603251 0.0106921 0
937 1 0.610741 0.0344177 0
939 1 0.627096 0.0156176 0
938 1 0.636275 0.0392389 0
940 1 0.652839 0.0195757 0
971 1 0.670442 0.0377864 0
942 1 0.677759 0.0135915 0
944 1 0.694737 0.0317366 0
945 1 0.718492 0.0252171 0
943 1 0.702143 0.00656267 0
947 1 0.744389 0.0187736 0
948 1 0.76159 0.036692 0
918 1 0.768761 0.0125488 0
946 1 0.736343 0.0424467 0
919 1 0.791996 0.00456398 0
949 1 0.78651 0.0300359 0
920 1 0.809806 0.0228893 0
951 1 0.833938 0.0163542 0
952 1 0.851254 0.0346605 0
922 1 0.858317 0.00983295 0
950 1 0.827307 0.0417671 0
953 1 0.875786 0.0283187 0
955 1 0.899828 0.0210081 0
924 1 0.88224 0.003994 0
926 1 0.923639 0.0160409 0
928 1 0.948851 0.00834284 0
957 1 0.941564 0.0330455 0
956 1 0.91793 0.0403957 0
930 1 0.989909 0.0197357 0
959 1 0.966294 0.02717 0
929 1 0.972549 0.00125784 0
960 1 0.984128 0.0445007 0
932 1 0.528175 0.059571 0
962 1 0.535674 0.0826421 0
961 1 0.510614 0.0785719 0
60 1 0.503254 0.0545471 0
934 1 0.570129 0.0466301 0
963 1 0.55245 0.0641342 0
965 1 0.576658 0.0707364 0
964 1 0.559193 0.0889172 0
936 1 0.593886 0.0531035 0
966 1 0.601202 0.0774247 0
967 1 0.618238 0.058117 0
968 1 0.625828 0.0828097 0
969 1 0.641317 0.0640024 0
970 1 0.664974 0.0621084 0
999 1 0.657446 0.0867303 0
972 1 0.682532 0.0796444 0
975 1 0.712376 0.0500092 0
973 1 0.688972 0.055879 0
1003 1 0.706033 0.0742634 0
974 1 0.730737 0.0665029 0
976 1 0.755127 0.0597299 0
1005 1 0.749046 0.0859304 0
1007 1 0.772496 0.0781095 0
979 1 0.80369 0.0482667 0
977 1 0.779147 0.0543188 0
978 1 0.796549 0.0715926 0
1009 1 0.814719 0.0891169 0
980 1 0.821424 0.0654381 0
981 1 0.845359 0.0582317 0
1011 1 0.838893 0.0824399 0
982 1 0.86303 0.0762141 0
954 1 0.893852 0.0450523 0
983 1 0.869738 0.0523187 0
984 1 0.887104 0.0697568 0
1015 1 0.904689 0.0886777 0
985 1 0.910763 0.0635879 0
986 1 0.92806 0.0817911 0
987 1 0.936004 0.0571464 0
988 1 0.952295 0.0754525 0
958 1 0.959956 0.0512651 0
989 1 0.976304 0.0685481 0
990 1 0.994125 0.0859837 0
991 1 0.518233 0.101757 0
992 1 0.526518 0.126998 0
993 1 0.542363 0.108226 0
120 1 0.501413 0.120249 0
994 1 0.566785 0.114503 0
995 1 0.583819 0.0951359 0
1023 1 0.550172 0.132408 0
996 1 0.591164 0.120451 0
997 1 0.60752 0.1013 0
1027 1 0.615032 0.125086 0
998 1 0.632597 0.106797 0
1000 1 0.655355 0.114088 0
1001 1 0.676493 0.102967 0
1029 1 0.639639 0.132601 0
1030 1 0.663971 0.137202 0
1004 1 0.72439 0.092547 0
1031 1 0.694451 0.121217 0
1002 1 0.70045 0.0980046 0
1033 1 0.717761 0.116426 0
1035 1 0.742013 0.110364 0
1006 1 0.765559 0.103109 0
1036 1 0.76061 0.127616 0
1034 1 0.735586 0.135167 0
1008 1 0.789498 0.0962202 0
1037 1 0.784033 0.120643 0
1039 1 0.807421 0.113122 0
1040 1 0.826325 0.130391 0
1010 1 0.832854 0.106287 0
1012 1 0.856982 0.101209 0
1041 1 0.850751 0.125288 0
1043 1 0.875381 0.118269 0
1013 1 0.881001 0.0947223 0
1014 1 0.898564 0.112811 0
1016 1 0.916479 0.129911 0
1017 1 0.921908 0.105495 0
1018 1 0.944984 0.0996362 0
1047 1 0.939812 0.123835 0
1019 1 0.969738 0.093535 0
1020 1 0.987342 0.111277 0
1049 1 0.962968 0.118677 0
1050 1 0.981534 0.135834 0
1021 1 0.507769 0.143899 0
1022 1 0.533513 0.150474 0
1053 1 0.539053 0.173705 0
1051 1 0.515221 0.16854 0
1025 1 0.574442 0.137935 0
1024 1 0.557091 0.155798 0
1055 1 0.582109 0.160972 0
1054 1 0.564506 0.178064 0
1026 1 0.59817 0.143921 0
1028 1 0.621986 0.150161 0
1057 1 0.605495 0.16829 0
1058 1 0.630437 0.173246 0
1059 1 0.646709 0.155928 0
1061 1 0.671482 0.162151 0
1060 1 0.65632 0.181485 0
1032 1 0.686833 0.144076 0
1063 1 0.710953 0.142385 0
1062 1 0.700736 0.164771 0
1091 1 0.683535 0.183339 0
1064 1 0.725417 0.161912 0
1065 1 0.753462 0.151997 0
1095 1 0.745166 0.177222 0
1066 1 0.770334 0.171082 0
1038 1 0.802027 0.137748 0
1067 1 0.777261 0.145924 0
1068 1 0.794979 0.162082 0
1099 1 0.813752 0.179721 0
1069 1 0.820047 0.154822 0
1071 1 0.844357 0.149085 0
1070 1 0.838062 0.173377 0
1072 1 0.862692 0.166727 0
1044 1 0.892748 0.136106 0
1042 1 0.867954 0.141977 0
1073 1 0.885592 0.159669 0
1074 1 0.904666 0.1777 0
1045 1 0.910575 0.15399 0
1075 1 0.928248 0.172472 0
1046 1 0.934015 0.148827 0
1077 1 0.951513 0.166725 0
421 1 0.989754 0.47265 0
1048 1 0.958129 0.142877 0
1079 1 0.975629 0.160697 0
1080 1 0.993239 0.176942 0
1052 1 0.522305 0.19234 0
1082 1 0.529491 0.216685 0
1081 1 0.504131 0.210053 0
1083 1 0.54652 0.197312 0
1085 1 0.570395 0.203293 0
1084 1 0.554596 0.222137 0
1056 1 0.588194 0.187125 0
1086 1 0.597112 0.21059 0
1087 1 0.614372 0.191867 0
1088 1 0.622615 0.215245 0
1089 1 0.638288 0.197168 0
1090 1 0.664871 0.20434 0
1119 1 0.646481 0.221157 0
1121 1 0.671143 0.227475 0
1092 1 0.688884 0.208471 0
1093 1 0.70615 0.190704 0
1123 1 0.712516 0.215257 0
1094 1 0.730024 0.19641 0
1096 1 0.758306 0.200495 0
1125 1 0.740078 0.219755 0
1097 1 0.788565 0.187266 0
1127 1 0.782998 0.210435 0
1098 1 0.806977 0.204058 0
1129 1 0.826049 0.220499 0
1100 1 0.831724 0.196688 0
1101 1 0.85645 0.189874 0
1131 1 0.849669 0.215344 0
1102 1 0.873984 0.207826 0
1103 1 0.880453 0.184132 0
1104 1 0.898549 0.202049 0
1135 1 0.91513 0.220184 0
1105 1 0.921602 0.196688 0
1076 1 0.945733 0.191202 0
1107 1 0.970943 0.216941 0
1078 1 0.969867 0.184582 0
1109 1 0.99009 0.201207 0
1110 1 0.995122 0.225577 0
1111 1 0.513106 0.23519 0
1113 1 0.537279 0.239233 0
1112 1 0.521009 0.259012 0
1143 1 0.545547 0.263252 0
1115 1 0.579091 0.227637 0
1114 1 0.561778 0.245289 0
1116 1 0.58727 0.250235 0
1145 1 0.570705 0.267594 0
1117 1 0.606103 0.232988 0
1118 1 0.629896 0.240674 0
1147 1 0.611431 0.256789 0
1149 1 0.636504 0.264687 0
1120 1 0.653908 0.24565 0
1151 1 0.678646 0.251287 0
1150 1 0.660311 0.269653 0
1122 1 0.696278 0.233403 0
1124 1 0.72116 0.237292 0
1153 1 0.704564 0.256937 0
1126 1 0.764624 0.225922 0
1154 1 0.730444 0.261492 0
1155 1 0.747921 0.243803 0
1156 1 0.75426 0.268106 0
1157 1 0.77191 0.250667 0
1128 1 0.791941 0.233248 0
1159 1 0.814763 0.241769 0
1158 1 0.796769 0.257932 0
1160 1 0.821173 0.265397 0
1130 1 0.842191 0.241431 0
1132 1 0.866856 0.231723 0
1133 1 0.890778 0.226864 0
1161 1 0.869251 0.255857 0
1163 1 0.893033 0.261671 0
1134 1 0.91051 0.244368 0
1165 1 0.916625 0.270724 0
1136 1 0.934061 0.252993 0