ITEM: TIMESTEP
444000
ITEM: NUMBER OF ATOMS
1800
ITEM: BOX BOUNDS pp pp pp
-1.6697870024374701e+01 1.8169787002437661e+02
1.1826529217466231e+00 1.6381734707825530e+02
0.0000000000000000e+00 5.5000000000000000e+00
ITEM: ATOMS id type xs ys zs
929 1 0.0340793 0.00664682 0
959 1 0.0291716 0.0319986 0
928 1 0.014605 0.0134505 0
957 1 0.00969401 0.0376827 0
930 1 0.0489566 0.0246716 0
31 1 0.0639496 0.0418658 0
2 1 0.069709 0.0172854 0
33 1 0.0843735 0.0338013 0
3 1 0.0893896 0.00957851 0
4 1 0.104227 0.0274379 0
5 1 0.108591 0.00287284 0
6 1 0.123488 0.019892 0
37 1 0.137596 0.0369438 0
8 1 0.142371 0.0125541 0
35 1 0.118597 0.0453825 0
39 1 0.156481 0.0297895 0
880 1 0.161642 0.0044865 0
9 1 0.176015 0.0223777 0
40 1 0.190964 0.0395725 0
10 1 0.196067 0.0153916 0
41 1 0.210451 0.0325522 0
12 1 0.216569 0.00896911 0
14 1 0.230872 0.0257875 0
13 1 0.236305 0.000820297 0
45 1 0.246044 0.0423854 0
15 1 0.249439 0.0189216 0
46 1 0.268358 0.0165391 0
77 1 0.272716 0.0405823 0
47 1 0.287896 0.0230119 0
19 1 0.300808 0.00307801 0
49 1 0.306581 0.0291853 0
20 1 0.321547 0.0114216 0
51 1 0.326879 0.0356663 0
21 1 0.341265 0.019249 0
22 1 0.347347 0.0427902 0
23 1 0.36083 0.0257521 0
894 1 0.374772 0.00792337 0
24 1 0.380598 0.0320538 0
25 1 0.394982 0.0147878 0
26 1 0.400664 0.0381972 0
27 1 0.414976 0.0206585 0
28 1 0.420633 0.0443131 0
29 1 0.435418 0.0253009 0
900 1 0.449881 0.00802203 0
30 1 0.45541 0.0324858 0
898 1 0.4294 0.00213568 0
902 1 0.489455 0.0211383 0
901 1 0.469509 0.0137701 0
931 1 0.474665 0.0385358 0
988 1 0.0207543 0.0799296 0
958 1 0.0248996 0.0564031 0
987 1 0.00514625 0.0622374 0
989 1 0.0397322 0.0736485 0
960 1 0.044092 0.0486905 0
61 1 0.0590055 0.0656806 0
990 1 0.0542829 0.090528 0
62 1 0.0737684 0.0827453 0
32 1 0.0790449 0.0580962 0
63 1 0.0934705 0.0762352 0
34 1 0.0988294 0.0516207 0
65 1 0.113841 0.0695033 0
66 1 0.12855 0.0869382 0
36 1 0.133467 0.0623504 0
67 1 0.147803 0.0793755 0
38 1 0.152192 0.0535372 0
69 1 0.172024 0.0466318 0
68 1 0.167052 0.0707735 0
71 1 0.186354 0.0638743 0
72 1 0.202337 0.0806053 0
42 1 0.206195 0.056778 0
70 1 0.181893 0.0880273 0
43 1 0.225771 0.0499121 0
73 1 0.22132 0.0728134 0
44 1 0.24154 0.0679953 0
105 1 0.235754 0.0904146 0
74 1 0.263904 0.0858993 0
75 1 0.260337 0.0599619 0
76 1 0.278564 0.0673348 0
48 1 0.291895 0.0493671 0
79 1 0.298021 0.0730275 0
50 1 0.311648 0.0542359 0
81 1 0.318359 0.078686 0
52 1 0.331883 0.0601694 0
82 1 0.337655 0.0849941 0
83 1 0.352561 0.0680777 0
53 1 0.366875 0.0494962 0
54 1 0.372395 0.0748921 0
55 1 0.385999 0.057003 0
56 1 0.39221 0.0810079 0
57 1 0.405757 0.0631689 0
87 1 0.412147 0.0876583 0
58 1 0.426 0.0684445 0
59 1 0.441001 0.0498853 0
89 1 0.445971 0.0746702 0
60 1 0.460241 0.055942 0
933 1 0.494398 0.0446697 0
932 1 0.479871 0.0616386 0
961 1 0.465677 0.0799559 0
962 1 0.48522 0.0871905 0
1047 1 0.010595 0.129384 0
1019 1 0.0343606 0.0981607 0
1049 1 0.0300248 0.121588 0
1018 1 0.0152211 0.104295 0
1020 1 0.0498971 0.115101 0
121 1 0.0641198 0.132443 0
91 1 0.0694706 0.107554 0
92 1 0.0839698 0.124655 0
93 1 0.0884084 0.100265 0
94 1 0.103161 0.117303 0
64 1 0.108744 0.0929794 0
95 1 0.122909 0.110387 0
96 1 0.137239 0.128133 0
97 1 0.142849 0.103469 0
125 1 0.11854 0.135791 0
98 1 0.157983 0.120036 0
99 1 0.162755 0.0953682 0
100 1 0.177674 0.112992 0
130 1 0.192189 0.130459 0
101 1 0.197291 0.104313 0
102 1 0.211628 0.121442 0
103 1 0.2171 0.0977255 0
104 1 0.232859 0.118352 0
106 1 0.251176 0.105163 0
78 1 0.283892 0.0917432 0
137 1 0.255923 0.128464 0
107 1 0.270337 0.110509 0
108 1 0.276013 0.133273 0
109 1 0.290672 0.116016 0
80 1 0.303553 0.096814 0
110 1 0.310102 0.122785 0
111 1 0.324541 0.103695 0
141 1 0.329502 0.128584 0
113 1 0.343639 0.11118 0
143 1 0.349279 0.135683 0
84 1 0.357457 0.0921712 0
112 1 0.364663 0.118172 0
85 1 0.378025 0.099072 0
115 1 0.384328 0.123914 0
86 1 0.397396 0.105149 0
116 1 0.404127 0.129952 0
117 1 0.417281 0.11218 0
118 1 0.422805 0.138035 0
88 1 0.432276 0.0928569 0
119 1 0.437001 0.118258 0
90 1 0.451165 0.0996193 0
120 1 0.456447 0.123848 0
991 1 0.470745 0.105853 0
992 1 0.476669 0.130138 0
993 1 0.490625 0.111918 0
1075 1 0.00031087 0.177995 0
1048 1 0.0248536 0.145992 0
1077 1 0.0202731 0.169569 0
1046 1 0.00480962 0.153578 0
1079 1 0.0403368 0.164454 0
1050 1 0.0442636 0.139771 0
151 1 0.0590677 0.156979 0
1080 1 0.0552211 0.181465 0
152 1 0.0746574 0.17441 0
122 1 0.0791783 0.149212 0
153 1 0.0939095 0.167765 0
123 1 0.0984513 0.141855 0
124 1 0.113133 0.159187 0
155 1 0.128244 0.176227 0
126 1 0.133368 0.152112 0
129 1 0.172204 0.137407 0
157 1 0.148313 0.168043 0
127 1 0.152827 0.144349 0
128 1 0.16852 0.163776 0
159 1 0.187108 0.154335 0
132 1 0.194265 0.176542 0
131 1 0.207515 0.158884 0
133 1 0.222098 0.141473 0
134 1 0.227883 0.165124 0
135 1 0.241909 0.14559 0
165 1 0.247724 0.170381 0
136 1 0.26221 0.151899 0
167 1 0.267244 0.17628 0
138 1 0.281993 0.158861 0
139 1 0.295927 0.140808 0
169 1 0.301625 0.165629 0
140 1 0.316502 0.146832 0
171 1 0.320666 0.171686 0
142 1 0.335692 0.153725 0
172 1 0.340716 0.178157 0
173 1 0.355758 0.159733 0
114 1 0.369358 0.142181 0
144 1 0.374958 0.167072 0
145 1 0.389198 0.148125 0
146 1 0.394599 0.173192 0
147 1 0.408808 0.155558 0
177 1 0.414538 0.179197 0
148 1 0.428557 0.16114 0
149 1 0.442461 0.142628 0
150 1 0.448088 0.166503 0
1021 1 0.462416 0.148375 0
1051 1 0.466802 0.172899 0
1022 1 0.481947 0.154344 0
1053 1 0.48644 0.180153 0
1023 1 0.496685 0.13701 0
1076 1 0.0152131 0.194447 0
1107 1 0.030149 0.212201 0
1078 1 0.0353216 0.187972 0
1106 1 0.0106691 0.219481 0
1109 1 0.0497405 0.2082 0
181 1 0.0694695 0.198923 0
182 1 0.0755363 0.224242 0
183 1 0.09004 0.204226 0
154 1 0.108655 0.185409 0
185 1 0.109932 0.215244 0
156 1 0.125468 0.199669 0
186 1 0.129826 0.223151 0
158 1 0.145495 0.20596 0
160 1 0.160074 0.187679 0
189 1 0.164923 0.212498 0
161 1 0.179233 0.195541 0
163 1 0.213784 0.182196 0
191 1 0.184359 0.219677 0
162 1 0.198809 0.200344 0
192 1 0.204124 0.225399 0
193 1 0.218473 0.206694 0
164 1 0.233465 0.189039 0
195 1 0.238375 0.213182 0
166 1 0.253004 0.195377 0
196 1 0.258636 0.219653 0
197 1 0.272489 0.201548 0
168 1 0.286624 0.18266 0
199 1 0.291645 0.207712 0
170 1 0.306091 0.190154 0
200 1 0.311746 0.214358 0
201 1 0.32511 0.196461 0
202 1 0.331228 0.220354 0
203 1 0.345939 0.203121 0
233 1 0.34993 0.228475 0
174 1 0.360311 0.185969 0
204 1 0.366328 0.209771 0
175 1 0.38043 0.191359 0
205 1 0.38569 0.215639 0
176 1 0.399787 0.197651 0
207 1 0.405082 0.222404 0
178 1 0.419562 0.203738 0
208 1 0.424342 0.228874 0
179 1 0.433901 0.185115 0
209 1 0.438915 0.209385 0
180 1 0.453653 0.192053 0
1081 1 0.458831 0.215862 0
1052 1 0.473157 0.198621 0
1082 1 0.478366 0.223125 0
1083 1 0.493058 0.204375 0
1108 1 0.0264772 0.253023 0
1137 1 0.0119483 0.27003 0
1136 1 0.00646544 0.244671 0
1110 1 0.0416303 0.233736 0
1140 1 0.0458648 0.25939 0
211 1 0.061923 0.241733 0
212 1 0.0661408 0.266881 0
213 1 0.0808969 0.249491 0
184 1 0.0952908 0.231963 0
214 1 0.100367 0.256366 0
215 1 0.115181 0.239293 0
216 1 0.119808 0.264747 0
217 1 0.134425 0.247492 0
218 1 0.138942 0.272464 0
187 1 0.150166 0.229693 0
188 1 0.153975 0.254276 0
190 1 0.169037 0.236371 0
220 1 0.174184 0.260855 0
221 1 0.189164 0.243455 0
222 1 0.194955 0.267335 0
223 1 0.209076 0.250127 0
194 1 0.224251 0.230598 0
224 1 0.229182 0.255023 0
225 1 0.243927 0.237585 0
226 1 0.249045 0.262086 0
198 1 0.277143 0.225943 0
227 1 0.263412 0.244878 0
257 1 0.268811 0.269775 0
228 1 0.283333 0.251487 0
229 1 0.296441 0.231851 0
230 1 0.302877 0.255835 0
231 1 0.315976 0.238239 0
261 1 0.322402 0.263208 0
232 1 0.336012 0.245334 0
263 1 0.342391 0.270114 0
234 1 0.355938 0.251418 0
235 1 0.370634 0.233142 0
265 1 0.375481 0.258008 0
206 1 0.38973 0.24037 0
236 1 0.39529 0.264817 0
237 1 0.410313 0.247315 0
238 1 0.416197 0.27075 0
239 1 0.43053 0.252857 0
210 1 0.443945 0.234347 0
240 1 0.44998 0.258831 0
1111 1 0.463796 0.24083 0
1112 1 0.469637 0.265549 0
1113 1 0.483518 0.246948 0
1084 1 0.497582 0.228953 0
1142 1 0.48908 0.271474 0
1138 1 0.0171488 0.296157 0
1139 1 0.0319845 0.277712 0
1197 1 0.00285777 0.313607 0
1168 1 0.0224032 0.320252 0
1169 1 0.0368272 0.302118 0
241 1 0.0514466 0.284793 0
271 1 0.0557787 0.309028 0
242 1 0.0708189 0.292203 0
243 1 0.0857522 0.274353 0
273 1 0.0757666 0.317401 0
244 1 0.0909254 0.299879 0
245 1 0.10518 0.28199 0
246 1 0.109676 0.306077 0
247 1 0.124477 0.288863 0
248 1 0.130267 0.31178 0
249 1 0.144683 0.295595 0
219 1 0.158359 0.278451 0
250 1 0.164357 0.302541 0
251 1 0.179082 0.284376 0
253 1 0.214533 0.273162 0
281 1 0.184226 0.308526 0
252 1 0.199301 0.291026 0
283 1 0.204105 0.314492 0
254 1 0.218834 0.296244 0
255 1 0.234314 0.279445 0
285 1 0.23847 0.303551 0
256 1 0.25359 0.285899 0
287 1 0.259161 0.311163 0
258 1 0.273411 0.293864 0
259 1 0.288959 0.274397 0
289 1 0.29348 0.300066 0
260 1 0.308582 0.281234 0
291 1 0.313313 0.305818 0
262 1 0.328429 0.287734 0
292 1 0.332825 0.311976 0
293 1 0.348185 0.293894 0
264 1 0.362151 0.275438 0
295 1 0.36736 0.300109 0
266 1 0.381908 0.282544 0
297 1 0.386866 0.307027 0
267 1 0.401329 0.288882 0
298 1 0.406151 0.313087 0
268 1 0.421011 0.294748 0
269 1 0.436032 0.278024 0
270 1 0.440451 0.302315 0
1141 1 0.454983 0.284283 0
300 1 0.460515 0.307828 0
1171 1 0.474875 0.289589 0
1172 1 0.479604 0.314211 0
1173 1 0.494265 0.29642 0
1199 1 0.0264173 0.344624 0
1198 1 0.00723065 0.338161 0
1228 1 0.0128733 0.362569 0
1170 1 0.0415311 0.326966 0
1229 1 0.0463823 0.351325 0
1200 1 0.0608005 0.334259 0
301 1 0.0665009 0.357819 0
272 1 0.0809849 0.341639 0
275 1 0.0963127 0.324354 0
274 1 0.100608 0.348273 0
276 1 0.116261 0.329335 0
305 1 0.120577 0.353984 0
277 1 0.135294 0.33708 0
307 1 0.140329 0.36146 0
279 1 0.149636 0.320008 0
278 1 0.15516 0.344357 0
280 1 0.16903 0.326962 0
311 1 0.174779 0.350694 0
282 1 0.189636 0.332617 0
312 1 0.194716 0.357424 0
313 1 0.209673 0.338778 0
284 1 0.223572 0.320557 0
315 1 0.229097 0.345956 0
286 1 0.24306 0.327816 0
316 1 0.249277 0.352729 0
288 1 0.279117 0.318035 0
317 1 0.263997 0.335816 0
318 1 0.268687 0.359635 0
319 1 0.283703 0.342394 0
290 1 0.298812 0.323736 0
320 1 0.303127 0.348448 0
321 1 0.318084 0.329444 0
294 1 0.352458 0.319009 0
322 1 0.323172 0.353868 0
323 1 0.33801 0.336182 0
324 1 0.343141 0.361632 0
325 1 0.357639 0.343998 0
296 1 0.37197 0.324818 0
326 1 0.377149 0.349287 0
327 1 0.39184 0.331407 0
299 1 0.425976 0.320476 0
328 1 0.397732 0.356186 0
329 1 0.411441 0.338088 0
358 1 0.417397 0.362599 0
359 1 0.431748 0.344769 0
330 1 0.446222 0.326219 0
360 1 0.450812 0.351362 0
1202 1 0.485122 0.339066 0
1201 1 0.466065 0.33291 0
1231 1 0.47028 0.358611 0
1233 1 0.490293 0.362646 0
1203 1 0.499319 0.319548 0
1287 1 0.00296791 0.403668 0
1259 1 0.0326135 0.369025 0
1258 1 0.0174351 0.386409 0
1260 1 0.0371104 0.392974 0
1230 1 0.0526933 0.375935 0
331 1 0.0575091 0.400105 0
302 1 0.0722045 0.381958 0
303 1 0.0870367 0.36507 0
332 1 0.0769199 0.4083 0
333 1 0.0913402 0.390139 0
304 1 0.105993 0.372661 0
335 1 0.111516 0.398119 0
306 1 0.12593 0.379281 0
337 1 0.131339 0.404655 0
308 1 0.145472 0.386677 0
309 1 0.160385 0.368552 0
339 1 0.165733 0.392441 0
310 1 0.180632 0.374959 0
341 1 0.185564 0.399317 0
343 1 0.200597 0.38231 0
342 1 0.205512 0.406553 0
314 1 0.214774 0.363667 0
344 1 0.219777 0.388861 0
345 1 0.234514 0.370493 0
346 1 0.239907 0.395175 0
347 1 0.253899 0.377569 0
377 1 0.259268 0.401684 0
348 1 0.273564 0.383856 0
378 1 0.278677 0.408607 0
349 1 0.287989 0.366538 0
350 1 0.293762 0.390488 0
351 1 0.309117 0.371976 0
381 1 0.313455 0.396374 0
353 1 0.328406 0.378915 0
352 1 0.333519 0.402925 0
354 1 0.348483 0.385092 0
355 1 0.363042 0.367871 0
356 1 0.368606 0.391504 0
357 1 0.382565 0.373662 0
386 1 0.387251 0.397928 0
387 1 0.40229 0.379904 0
388 1 0.406789 0.404081 0
389 1 0.422215 0.38753 0
1232 1 0.436984 0.370221 0
1261 1 0.442101 0.394187 0
1262 1 0.456306 0.375896 0
1293 1 0.461457 0.40015 0
1263 1 0.476112 0.381989 0
1294 1 0.480286 0.406458 0
1264 1 0.495553 0.387451 0
1289 1 0.0226027 0.410548 0
1319 1 0.0280204 0.435439 0
1288 1 0.00854569 0.427848 0
1290 1 0.0421396 0.417045 0
391 1 0.0473928 0.442876 0
361 1 0.0618381 0.425156 0
362 1 0.0666601 0.449989 0
363 1 0.081411 0.432218 0
334 1 0.0961828 0.415598 0
365 1 0.10147 0.440085 0
336 1 0.117029 0.422272 0
366 1 0.122043 0.445886 0
367 1 0.136582 0.428547 0
368 1 0.141932 0.45316 0
338 1 0.15107 0.411046 0
369 1 0.156471 0.435891 0
340 1 0.170941 0.416784 0
370 1 0.175703 0.441339 0
371 1 0.190437 0.423733 0
401 1 0.19539 0.448343 0
372 1 0.210189 0.430841 0
373 1 0.22511 0.412939 0
374 1 0.23009 0.438794 0
375 1 0.24449 0.4204 0
405 1 0.250677 0.444783 0
376 1 0.264543 0.427237 0
407 1 0.269887 0.451665 0
409 1 0.284262 0.433332 0
379 1 0.298716 0.414251 0
380 1 0.30409 0.438283 0
382 1 0.318563 0.420225 0
385 1 0.353305 0.409683 0
413 1 0.324837 0.445082 0
383 1 0.338759 0.427299 0
412 1 0.343968 0.452375 0
414 1 0.358198 0.434995 0
384 1 0.372202 0.417716 0
415 1 0.378543 0.441702 0
417 1 0.391807 0.422952 0
416 1 0.397737 0.448352 0
418 1 0.411364 0.428879 0
419 1 0.426826 0.412358 0
447 1 0.417255 0.454277 0
390 1 0.431499 0.435878 0
1291 1 0.44644 0.418359 0
1321 1 0.451584 0.442438 0
1323 1 0.48567 0.430711 0
1292 1 0.466372 0.424572 0
1322 1 0.471489 0.448873 0
1318 1 0.0135564 0.452903 0
1320 1 0.0330403 0.460798 0
1349 1 0.0185993 0.477781 0
1379 1 0.00364002 0.493765 0
421 1 0.037957 0.485863 0
392 1 0.0524083 0.468676 0
422 1 0.0583004 0.492457 0
393 1 0.0724592 0.47422 0
364 1 0.0863119 0.457167 0
394 1 0.0923352 0.481739 0
395 1 0.106478 0.463611 0
396 1 0.112161 0.487944 0
397 1 0.126472 0.470306 0
427 1 0.131998 0.494491 0
398 1 0.146393 0.477537 0
399 1 0.161522 0.460006 0
429 1 0.166389 0.48434 0
400 1 0.181734 0.465483 0
431 1 0.186425 0.492107 0
402 1 0.201189 0.474651 0
432 1 0.205657 0.498821 0
403 1 0.214713 0.455884 0
433 1 0.220928 0.479741 0
404 1 0.235447 0.462566 0
435 1 0.240206 0.487469 0
406 1 0.255472 0.469795 0
436 1 0.260636 0.49393 0
408 1 0.275248 0.47578 0
963 1 0.499817 0.0706316 0
410 1 0.289797 0.457163 0
441 1 0.294928 0.482077 0
411 1 0.309296 0.463165 0
440 1 0.314792 0.487476 0
442 1 0.32957 0.469768 0
471 1 0.33468 0.494078 0
473 1 0.349115 0.476541 0
443 1 0.364384 0.459751 0
444 1 0.367969 0.483947 0
445 1 0.383624 0.466777 0
475 1 0.388889 0.489827 0
446 1 0.403759 0.472015 0
477 1 0.409202 0.496173 0
448 1 0.423365 0.478332 0
420 1 0.436898 0.459991 0
1351 1 0.462569 0.490347 0
450 1 0.457368 0.466091 0
449 1 0.443248 0.483993 0
1354 1 0.496681 0.478973 0
1352 1 0.482332 0.49767 0
1324 1 0.491852 0.454558 0
1353 1 0.477212 0.473095 0
986 1 0.000469764 0.0865691 0
423 1 0.0779568 0.500186 0
892 1 0.354754 -1.09419e-05 0
1380 1 0.0277336 0.527711 0
1350 1 0.0230543 0.502953 0
451 1 0.0435729 0.510333 0
452 1 0.0493561 0.535322 0
453 1 0.0629408 0.518078 0
454 1 0.0690704 0.541682 0
424 1 0.0839305 0.523967 0
425 1 0.0980533 0.506601 0
455 1 0.102769 0.531371 0
903 1 0.484159 0.996689 0
426 1 0.117796 0.513384 0
456 1 0.122727 0.537959 0
457 1 0.137207 0.520005 0
458 1 0.142225 0.545178 0
459 1 0.156248 0.5266 0
430 1 0.171143 0.509178 0
460 1 0.177184 0.533626 0
428 1 0.151808 0.501964 0
461 1 0.191527 0.516157 0
462 1 0.1971 0.540502 0
463 1 0.210999 0.523122 0
434 1 0.225551 0.505001 0
464 1 0.231216 0.529256 0
465 1 0.245567 0.511459 0
466 1 0.251304 0.535354 0
437 1 0.265214 0.517648 0
497 1 0.270992 0.5412 0
467 1 0.286246 0.524231 0
438 1 0.300888 0.506513 0
468 1 0.30632 0.53163 0
469 1 0.320559 0.511376 0
472 1 0.353745 0.501626 0
499 1 0.325463 0.53759 0
470 1 0.339778 0.519729 0
501 1 0.344656 0.543845 0
503 1 0.35985 0.52647 0
474 1 0.37431 0.507422 0
505 1 0.379222 0.531383 0
476 1 0.394407 0.514747 0
506 1 0.399653 0.538212 0
507 1 0.414075 0.520791 0
509 1 0.418931 0.54543 0
478 1 0.428174 0.503075 0
480 1 0.433156 0.527442 0
479 1 0.448508 0.508431 0
510 1 0.45299 0.533427 0
1382 1 0.486757 0.521574 0
1381 1 0.467651 0.514703 0
1411 1 0.472283 0.539627 0
1409 1 0.0150511 0.54663 0
481 1 0.0346196 0.55224 0
1408 1 0.0202311 0.57011 0
1410 1 0.0406782 0.57799 0
483 1 0.0550024 0.560454 0
482 1 0.059578 0.584999 0
485 1 0.0887326 0.549353 0
513 1 0.0743623 0.567369 0
484 1 0.0937102 0.57447 0
514 1 0.0791001 0.592428 0
486 1 0.107782 0.556699 0
515 1 0.113641 0.580349 0
487 1 0.127775 0.562937 0
517 1 0.133761 0.587279 0
488 1 0.147622 0.569123 0
489 1 0.161955 0.550211 0
490 1 0.166837 0.574897 0
491 1 0.182206 0.558451 0
521 1 0.187345 0.581861 0
492 1 0.202428 0.565056 0
523 1 0.208209 0.588414 0
493 1 0.21682 0.547602 0
494 1 0.222546 0.571428 0
495 1 0.237136 0.553154 0
525 1 0.24197 0.577367 0
496 1 0.256185 0.55905 0
526 1 0.261847 0.584043 0
527 1 0.276073 0.56527 0
528 1 0.28098 0.590792 0
498 1 0.290949 0.548067 0
529 1 0.295594 0.573349 0
500 1 0.310814 0.555865 0
530 1 0.315369 0.579261 0
531 1 0.330524 0.562186 0
532 1 0.335294 0.586258 0
533 1 0.350288 0.567294 0
502 1 0.364804 0.550319 0
534 1 0.370758 0.57539 0
504 1 0.385012 0.555601 0
535 1 0.390511 0.581685 0
508 1 0.405141 0.563495 0
537 1 0.410045 0.588687 0
539 1 0.42416 0.570355 0
540 1 0.438838 0.551915 0
569 1 0.444334 0.576548 0
1441 1 0.457926 0.557314 0
1413 1 0.492997 0.546484 0
1443 1 0.483069 0.588418 0
1442 1 0.463733 0.582381 0
1412 1 0.478073 0.563919 0
1414 1 0.498013 0.571152 0
1439 1 0.0259832 0.594972 0
1440 1 0.0302652 0.620426 0
1438 1 0.00854571 0.607681 0
1469 1 0.00392308 0.632702 0
511 1 0.0456666 0.602663 0
541 1 0.0505101 0.626074 0
512 1 0.0655673 0.609687 0
542 1 0.0698168 0.633129 0
543 1 0.0852897 0.616149 0
545 1 0.0993398 0.597542 0
546 1 0.105156 0.622313 0
516 1 0.119348 0.604172 0
547 1 0.124862 0.628563 0
518 1 0.139617 0.611437 0
577 1 0.144917 0.635633 0
519 1 0.153155 0.593378 0
548 1 0.159405 0.617374 0
520 1 0.172823 0.599653 0
549 1 0.178695 0.624862 0
522 1 0.19315 0.606005 0
551 1 0.199261 0.630715 0
553 1 0.213205 0.613458 0
524 1 0.227557 0.595903 0
554 1 0.233989 0.619867 0
555 1 0.247233 0.60167 0
556 1 0.252835 0.626228 0
557 1 0.267583 0.608748 0
587 1 0.272335 0.632373 0
558 1 0.287356 0.615464 0
559 1 0.301328 0.598904 0
560 1 0.306903 0.62263 0
561 1 0.321329 0.603866 0
563 1 0.355041 0.592218 0
591 1 0.326771 0.627919 0
562 1 0.341815 0.610914 0
564 1 0.346547 0.634419 0
565 1 0.361732 0.617445 0
536 1 0.376118 0.599368 0
566 1 0.381219 0.623695 0
567 1 0.395909 0.606463 0
597 1 0.401307 0.63053 0
568 1 0.415067 0.612797 0
538 1 0.429848 0.595418 0
600 1 0.435304 0.619913 0
570 1 0.450379 0.60082 0
1501 1 0.45504 0.626213 0
1471 1 0.46954 0.606658 0
1472 1 0.474903 0.631073 0
1473 1 0.488694 0.613349 0
1529 1 0.012981 0.675189 0
1500 1 0.0322744 0.668617 0
1499 1 0.0178469 0.650607 0
1470 1 0.0371072 0.643953 0
571 1 0.0565162 0.65181 0
572 1 0.0632216 0.674817 0
573 1 0.0763016 0.656821 0
544 1 0.090634 0.639545 0
574 1 0.0958138 0.664973 0
575 1 0.110469 0.647294 0
605 1 0.115381 0.672176 0
576 1 0.130424 0.653396 0
607 1 0.135598 0.678304 0
578 1 0.15004 0.659837 0
579 1 0.164585 0.642904 0
609 1 0.169998 0.667638 0
550 1 0.18429 0.648526 0
580 1 0.189831 0.672659 0
581 1 0.204555 0.655239 0
611 1 0.209507 0.680993 0
552 1 0.219455 0.637821 0
582 1 0.22408 0.662215 0
583 1 0.23879 0.644111 0
584 1 0.244191 0.669003 0
585 1 0.25832 0.650737 0
615 1 0.263633 0.675584 0
586 1 0.277118 0.656833 0
617 1 0.283507 0.681439 0
589 1 0.292583 0.639651 0
588 1 0.297592 0.664712 0
590 1 0.312228 0.646413 0
621 1 0.317437 0.671423 0
593 1 0.332892 0.652613 0
592 1 0.336951 0.677037 0
594 1 0.352678 0.659909 0
595 1 0.366808 0.641463 0
625 1 0.371953 0.665755 0
596 1 0.387287 0.647904 0
627 1 0.391743 0.671979 0
599 1 0.420663 0.636562 0
598 1 0.406491 0.655407 0
657 1 0.411974 0.678896 0
628 1 0.426758 0.661038 0
629 1 0.440803 0.643503 0
630 1 0.4463 0.667316 0
1502 1 0.460339 0.649869 0
1474 1 0.494388 0.637224 0
1503 1 0.48026 0.655216 0
1533 1 0.466002 0.673576 0
1504 1 0.486212 0.680709 0
1774 1 0.497968 0.978091 0
1558 1 0.00310908 0.723572 0
1559 1 0.007755 0.699301 0
1530 1 0.0275636 0.693943 0
1560 1 0.0228993 0.717416 0
631 1 0.0426549 0.710562 0
601 1 0.0463901 0.687227 0
602 1 0.0639788 0.701005 0
632 1 0.0577524 0.725829 0
603 1 0.0810629 0.685918 0
633 1 0.0828998 0.711752 0
604 1 0.10085 0.689772 0
635 1 0.104134 0.715129 0
606 1 0.121682 0.695518 0
636 1 0.125567 0.720916 0
637 1 0.140653 0.702058 0
608 1 0.155523 0.684644 0
638 1 0.160734 0.709293 0
639 1 0.175028 0.691442 0
667 1 0.145555 0.726249 0
641 1 0.180733 0.716044 0
610 1 0.194606 0.698072 0
642 1 0.199964 0.722211 0
612 1 0.214567 0.704887 0
613 1 0.22972 0.687004 0
643 1 0.234799 0.710919 0
614 1 0.249377 0.693318 0
645 1 0.254745 0.716677 0
616 1 0.269779 0.699678 0
647 1 0.275043 0.724316 0
618 1 0.289204 0.706648 0
619 1 0.303361 0.689083 0
620 1 0.308904 0.713251 0
622 1 0.323311 0.695011 0
651 1 0.329092 0.720386 0
653 1 0.343165 0.702049 0
654 1 0.349261 0.726316 0
623 1 0.357868 0.684643 0
624 1 0.363502 0.708384 0
626 1 0.377373 0.690409 0
655 1 0.38295 0.71396 0
656 1 0.39662 0.69573 0
686 1 0.402871 0.721229 0
658 1 0.417179 0.702897 0
687 1 0.422266 0.726412 0
659 1 0.431267 0.684945 0
660 1 0.436514 0.708058 0
1531 1 0.451517 0.690824 0
1561 1 0.456884 0.714797 0
1532 1 0.471078 0.697945 0
1563 1 0.476586 0.72167 0
1534 1 0.491724 0.704519 0
1619 1 0.0130748 0.765345 0
1589 1 0.0183964 0.741175 0
1590 1 0.0329422 0.757934 0
661 1 0.0380243 0.734019 0
663 1 0.0520993 0.75065 0
662 1 0.0671712 0.767737 0
664 1 0.0724166 0.744095 0
695 1 0.08755 0.760522 0
634 1 0.0907365 0.734771 0
665 1 0.111359 0.7389 0
697 1 0.118473 0.763265 0
666 1 0.131864 0.745235 0
668 1 0.138011 0.768746 0
669 1 0.151724 0.751524 0
640 1 0.165408 0.733802 0
670 1 0.172113 0.757487 0
671 1 0.185957 0.740191 0
672 1 0.192752 0.765305 0
673 1 0.206517 0.746573 0
703 1 0.211802 0.772768 0
644 1 0.220637 0.729294 0
674 1 0.225903 0.754932 0
675 1 0.240832 0.735508 0
705 1 0.24639 0.760235 0
646 1 0.260496 0.741284 0
677 1 0.266963 0.765567 0
648 1 0.280871 0.747838 0
649 1 0.294898 0.730586 0
679 1 0.300199 0.755299 0
650 1 0.31415 0.737343 0
681 1 0.319479 0.762742 0
652 1 0.333732 0.744517 0
682 1 0.339237 0.768517 0
683 1 0.353548 0.750968 0
685 1 0.368747 0.733887 0
684 1 0.373259 0.757981 0
715 1 0.38835 0.739941 0
714 1 0.393619 0.763958 0
717 1 0.408263 0.74586 0
716 1 0.413923 0.770442 0
688 1 0.428269 0.751046 0
689 1 0.442398 0.731903 0
719 1 0.447953 0.757473 0
690 1 0.462683 0.7397 0
1565 1 0.49691 0.729042 0
1591 1 0.467845 0.764121 0
1562 1 0.482565 0.746469 0
1593 1 0.488698 0.770036 0
1620 1 0.0274222 0.782438 0
1649 1 0.021635 0.806429 0
1618 1 0.00699812 0.788953 0
1648 1 0.00244089 0.813741 0
691 1 0.0472456 0.774956 0
721 1 0.0424821 0.799384 0
693 1 0.0618324 0.792239 0
692 1 0.0565624 0.816989 0
723 1 0.0766093 0.809454 0
694 1 0.0819574 0.784935 0
725 1 0.096663 0.801245 0
696 1 0.101653 0.776746 0
727 1 0.116702 0.794414 0
728 1 0.12936 0.814953 0
698 1 0.138198 0.792244 0
699 1 0.157556 0.775614 0
700 1 0.149171 0.811891 0
731 1 0.164803 0.798353 0
701 1 0.178683 0.781655 0
702 1 0.198324 0.790298 0
763 1 0.202604 0.815537 0
732 1 0.183226 0.807329 0
733 1 0.217185 0.79737 0
704 1 0.231807 0.779393 0
706 1 0.237772 0.803139 0
676 1 0.251338 0.783989 0
737 1 0.257735 0.809203 0
707 1 0.271245 0.790343 0
738 1 0.276913 0.815664 0
678 1 0.286149 0.772818 0
708 1 0.290154 0.797175 0
709 1 0.304859 0.780231 0
710 1 0.310391 0.803848 0
680 1 0.324935 0.786881 0
741 1 0.331135 0.809783 0
711 1 0.344885 0.792119 0
742 1 0.350289 0.817632 0
713 1 0.359763 0.775449 0
712 1 0.364411 0.799283 0
743 1 0.37924 0.781636 0
745 1 0.384418 0.80587 0
746 1 0.399519 0.788738 0
775 1 0.404806 0.814238 0
747 1 0.41986 0.793954 0
718 1 0.43376 0.775479 0
749 1 0.439608 0.800189 0
720 1 0.453626 0.781686 0
1621 1 0.460157 0.807218 0
1623 1 0.49349 0.794497 0
1592 1 0.472956 0.788041 0
1622 1 0.479281 0.814093 0
1709 1 0.0324874 0.848692 0
1679 1 0.0170022 0.831727 0
1678 1 0.012376 0.855421 0
1650 1 0.0367725 0.824122 0
1680 1 0.0526301 0.841297 0
752 1 0.0665467 0.859118 0
751 1 0.0716131 0.834512 0
753 1 0.0859195 0.851521 0
722 1 0.0913681 0.826437 0
724 1 0.104879 0.844874 0
726 1 0.110195 0.819994 0
757 1 0.124221 0.838907 0
756 1 0.138359 0.85743 0
729 1 0.143894 0.834982 0
759 1 0.161542 0.848406 0
730 1 0.167149 0.824277 0
761 1 0.187526 0.832377 0
792 1 0.194145 0.857059 0
762 1 0.207978 0.839347 0
764 1 0.213541 0.863188 0
735 1 0.22236 0.822014 0
734 1 0.22794 0.845286 0
736 1 0.242359 0.827397 0
765 1 0.247828 0.85086 0
767 1 0.262181 0.833601 0
766 1 0.267833 0.857095 0
768 1 0.282706 0.839055 0
739 1 0.296878 0.821627 0
769 1 0.30269 0.846212 0
740 1 0.317105 0.828781 0
797 1 0.287271 0.863811 0
770 1 0.322506 0.852679 0
771 1 0.337277 0.835038 0
801 1 0.342302 0.858917 0
773 1 0.357247 0.842043 0
744 1 0.370599 0.823541 0
803 1 0.376285 0.848884 0
774 1 0.390476 0.83125 0
748 1 0.425639 0.818849 0
776 1 0.396869 0.856024 0
777 1 0.410842 0.837565 0
778 1 0.416898 0.862232 0
779 1 0.430773 0.843184 0
750 1 0.445017 0.82456 0
780 1 0.450043 0.848924 0
1651 1 0.464518 0.83139 0
1624 1 0.498467 0.820585 0
1652 1 0.470322 0.856083 0
1653 1 0.484446 0.838347 0
1683 1 0.489381 0.862422 0
1710 1 0.0256575 0.873398 0
1739 1 0.0208688 0.89732 0
1708 1 0.00621833 0.880267 0
1737 1 0.00114152 0.904631 0
781 1 0.046841 0.866161 0
811 1 0.0410066 0.890515 0
782 1 0.060977 0.884233 0
812 1 0.0552787 0.908708 0
813 1 0.0751033 0.901741 0
783 1 0.0809067 0.877764 0
784 1 0.0947268 0.895007 0
754 1 0.0999599 0.870068 0
755 1 0.119403 0.863637 0
785 1 0.114132 0.887294 0
786 1 0.128262 0.905155 0
787 1 0.133821 0.881144 0
788 1 0.147882 0.898419 0
758 1 0.154695 0.873098 0
760 1 0.174734 0.867294 0
789 1 0.168708 0.891477 0
791 1 0.191377 0.881422 0
823 1 0.203588 0.901171 0
790 1 0.18357 0.907075 0
793 1 0.219587 0.886895 0
795 1 0.234382 0.869733 0
794 1 0.239216 0.893234 0
796 1 0.253666 0.875237 0
825 1 0.258814 0.898969 0
827 1 0.273567 0.880865 0
826 1 0.280127 0.905653 0
798 1 0.294117 0.888052 0
799 1 0.307659 0.870087 0
829 1 0.314289 0.894232 0
800 1 0.328239 0.876472 0
831 1 0.333601 0.902347 0
802 1 0.347531 0.884297 0
833 1 0.353632 0.908185 0
772 1 0.361671 0.865954 0
804 1 0.366993 0.890609 0
805 1 0.381659 0.872875 0
806 1 0.38759 0.896818 0
807 1 0.402155 0.879675 0
837 1 0.407174 0.903491 0
808 1 0.421942 0.886389 0
839 1 0.427249 0.910115 0
809 1 0.436198 0.867945 0
810 1 0.44137 0.892454 0
1681 1 0.45625 0.873275 0
1711 1 0.461565 0.898279 0
1684 1 0.495662 0.887192 0
1682 1 0.475949 0.880812 0
1713 1 0.481057 0.905405 0
1769 1 0.0297895 0.939185 0
1738 1 0.0145361 0.921979 0
1768 1 0.0104393 0.946846 0
1740 1 0.0347008 0.914436 0
841 1 0.0498244 0.932909 0
842 1 0.0645829 0.951271 0
843 1 0.0698949 0.926444 0
844 1 0.0841371 0.943699 0
814 1 0.0896805 0.919727 0
845 1 0.103855 0.937373 0
815 1 0.108731 0.912025 0
816 1 0.122742 0.929755 0
847 1 0.137862 0.945697 0
846 1 0.118068 0.954459 0
817 1 0.143136 0.922603 0
818 1 0.158136 0.938579 0
819 1 0.162878 0.914977 0
820 1 0.178536 0.931246 0
851 1 0.192592 0.947879 0
821 1 0.197659 0.924646 0
822 1 0.211931 0.941515 0
824 1 0.222655 0.911182 0
853 1 0.230748 0.934254 0
855 1 0.244686 0.91692 0
854 1 0.249716 0.941379 0
856 1 0.265077 0.92262 0
885 1 0.270497 0.947576 0
857 1 0.285174 0.929914 0
828 1 0.30046 0.91173 0
859 1 0.304335 0.936474 0
830 1 0.319189 0.919687 0
860 1 0.32482 0.943963 0
832 1 0.339146 0.926389 0
861 1 0.344515 0.951389 0
863 1 0.359176 0.932851 0
834 1 0.37325 0.914663 0
865 1 0.378147 0.941068 0
835 1 0.392889 0.922339 0
836 1 0.398652 0.946865 0
838 1 0.412365 0.928049 0
867 1 0.418129 0.953351 0
869 1 0.432382 0.934941 0
840 1 0.447752 0.916155 0
1741 1 0.451996 0.941016 0
1743 1 0.486559 0.929899 0
1712 1 0.466773 0.923746 0
1742 1 0.471573 0.947528 0
1744 1 0.492128 0.953674 0
1799 1 0.0247947 0.964516 0
1798 1 0.0200737 0.989031 0
1797 1 0.00569533 0.9722 0
927 1 9.93146e-06 0.996301 0
1800 1 0.039583 0.981529 0
1770 1 0.0448659 0.956997 0
871 1 0.0592869 0.974649 0
1 1 0.0544699 0.999981 0
872 1 0.0734548 0.991883 0
873 1 0.0791311 0.968293 0
874 1 0.093702 0.985257 0
875 1 0.0985055 0.961429 0
876 1 0.11342 0.978806 0
7 1 0.128213 0.995164 0
877 1 0.13252 0.969846 0
878 1 0.147799 0.987214 0
848 1 0.152578 0.962691 0
849 1 0.172135 0.95665 0
879 1 0.166682 0.980046 0
850 1 0.186671 0.97322 0
11 1 0.201608 0.991358 0
852 1 0.206876 0.965573 0
881 1 0.181127 0.997628 0
883 1 0.226728 0.95888 0
882 1 0.220761 0.984054 0
884 1 0.239239 0.976933 0
886 1 0.256845 0.965456 0
16 1 0.257128 0.99251 0
17 1 0.275393 0.973841 0
18 1 0.281067 0.997546 0
887 1 0.29012 0.955187 0
888 1 0.295559 0.979223 0
858 1 0.3102 0.960941 0
889 1 0.316272 0.986711 0
891 1 0.330246 0.968384 0
890 1 0.335748 0.993118 0
862 1 0.350687 0.975432 0
1505 1 0.499568 0.662618 0
864 1 0.364478 0.958193 0
893 1 0.369843 0.983321 0
895 1 0.384644 0.96517 0
896 1 0.389853 0.990373 0
866 1 0.404216 0.973091 0
897 1 0.409732 0.996623 0
868 1 0.423752 0.97829 0
1772 1 0.464082 0.989938 0
899 1 0.443679 0.984501 0
1771 1 0.458148 0.966009 0
870 1 0.437427 0.959319 0
1773 1 0.477926 0.970737 0
1714 1 0.500548 0.912604 0
439 1 0.28058 0.500176 0
904 1 0.508438 0.0269191 0
905 1 0.503554 0.00253288 0
906 1 0.523066 0.00823392 0
935 1 0.528632 0.0335328 0
908 1 0.542673 0.0146992 0
937 1 0.54876 0.0403025 0
939 1 0.562076 0.020752 0
940 1 0.581649 0.0265804 0
941 1 0.576474 0.00212109 0
942 1 0.793119 0.0214944 0
944 1 0.808164 0.0403295 0
943 1 0.813591 0.0153385 0
945 1 0.827925 0.0327389 0
914 1 0.83284 0.00846704 0
947 1 0.848402 0.0268856 0
916 1 0.852551 0.00149935 0
918 1 0.86747 0.019064 0
949 1 0.882606 0.0362351 0
919 1 0.887134 0.011527 0
948 1 0.863085 0.0446838 0
920 1 0.901402 0.0287973 0
1790 1 0.906926 0.00590433 0
951 1 0.921208 0.0233051 0
952 1 0.935972 0.0406178 0
922 1 0.940768 0.0159671 0
953 1 0.955324 0.0341336 0
924 1 0.960637 0.0101351 0
955 1 0.975369 0.0270215 0
925 1 0.98081 0.0029954 0