ITEM: TIMESTEP
270000
ITEM: NUMBER OF ATOMS
1800
ITEM: BOX BOUNDS pp pp pp
-9.6906380590028309e+00 1.7469063805900475e+02
1.1826529217466231e+00 1.6381734707825530e+02
0.0000000000000000e+00 5.5000000000000000e+00
ITEM: ATOMS id type xs ys zs
930 1 0.0298604 0.022729 0
929 1 0.0149207 0.00484801 0
959 1 0.00889973 0.0298919 0
31 1 0.0459123 0.0401116 0
2 1 0.0509392 0.014802 0
33 1 0.0664826 0.0327156 0
3 1 0.0719215 0.0080044 0
4 1 0.0882001 0.0244199 0
6 1 0.10984 0.0175714 0
35 1 0.103944 0.0413937 0
5 1 0.0931712 0.000595383 0
37 1 0.124726 0.0348014 0
8 1 0.13067 0.010338 0
39 1 0.145735 0.027706 0
880 1 0.151986 0.00352481 0
9 1 0.167335 0.0202609 0
40 1 0.183416 0.0379843 0
10 1 0.188826 0.0135195 0
41 1 0.204433 0.0307717 0
12 1 0.209716 0.00696829 0
14 1 0.225207 0.0250797 0
15 1 0.245927 0.0190747 0
45 1 0.241923 0.0424097 0
46 1 0.266688 0.0180228 0
77 1 0.271687 0.0418911 0
47 1 0.287857 0.025723 0
19 1 0.302747 0.00712164 0
18 1 0.28124 -0.000287232 0
49 1 0.309591 0.0312452 0
20 1 0.32488 0.0127064 0
51 1 0.331031 0.0383023 0
21 1 0.3459 0.0198985 0
23 1 0.367227 0.0256808 0
22 1 0.351904 0.0444529 0
894 1 0.383299 0.0078876 0
892 1 0.361302 0.000977891 0
24 1 0.388693 0.0323643 0
25 1 0.404292 0.0130872 0
26 1 0.409364 0.0386729 0
27 1 0.424955 0.0208613 0
29 1 0.447244 0.0275418 0
28 1 0.430669 0.0447558 0
898 1 0.441056 0.00373935 0
900 1 0.4625 0.0076283 0
30 1 0.468559 0.0323458 0
901 1 0.483469 0.0147243 0
931 1 0.489589 0.0393112 0
960 1 0.0244144 0.0479028 0
989 1 0.0202254 0.0722353 0
958 1 0.00386924 0.0556499 0
990 1 0.0360909 0.0899428 0
61 1 0.0407879 0.0638151 0
62 1 0.0569164 0.0822681 0
32 1 0.0618231 0.0566264 0
63 1 0.0772033 0.0742615 0
34 1 0.0831535 0.0489677 0
65 1 0.0984784 0.0671991 0
66 1 0.114097 0.083882 0
36 1 0.119111 0.0592571 0
67 1 0.135737 0.0760299 0
38 1 0.140216 0.0521785 0
69 1 0.161334 0.0441567 0
68 1 0.156769 0.0680057 0
70 1 0.172631 0.0861884 0
71 1 0.177298 0.0614911 0
72 1 0.193812 0.0793444 0
42 1 0.199176 0.0556077 0
43 1 0.220256 0.0486779 0
73 1 0.214612 0.0725338 0
105 1 0.229171 0.0912048 0
44 1 0.23631 0.0680231 0
74 1 0.260472 0.0846914 0
75 1 0.256383 0.0596043 0
76 1 0.277159 0.0673778 0
48 1 0.292632 0.0487695 0
79 1 0.298081 0.0735007 0
78 1 0.282278 0.0922951 0
50 1 0.31413 0.0557485 0
81 1 0.319527 0.0801511 0
52 1 0.33572 0.0627576 0
82 1 0.341645 0.0863779 0
83 1 0.357701 0.0686947 0
53 1 0.372831 0.0502762 0
54 1 0.379134 0.0744164 0
55 1 0.394611 0.0569537 0
56 1 0.399986 0.0817416 0
57 1 0.415723 0.0629634 0
87 1 0.421694 0.086858 0
58 1 0.438085 0.0692217 0
59 1 0.452503 0.0508349 0
89 1 0.458337 0.0771696 0
932 1 0.495211 0.0637677 0
60 1 0.473987 0.0584485 0
961 1 0.480895 0.083329 0
1020 1 0.0318679 0.114505 0
1019 1 0.0151128 0.0967147 0
1049 1 0.0109158 0.121806 0
121 1 0.0479961 0.131742 0
91 1 0.0526584 0.106984 0
92 1 0.0681906 0.124344 0
93 1 0.0731538 0.0995364 0
64 1 0.0931601 0.0919447 0
94 1 0.0892166 0.116112 0
95 1 0.110118 0.108766 0
125 1 0.106003 0.133656 0
96 1 0.12582 0.124726 0
97 1 0.130537 0.0999463 0
98 1 0.146275 0.116032 0
99 1 0.151164 0.092674 0
100 1 0.166849 0.110278 0
130 1 0.184199 0.129117 0
101 1 0.188035 0.103796 0
129 1 0.163164 0.135306 0
102 1 0.204968 0.119905 0
103 1 0.208977 0.096625 0
104 1 0.228126 0.120183 0
106 1 0.246604 0.105245 0
137 1 0.250013 0.129082 0
107 1 0.26693 0.110636 0
109 1 0.288341 0.11591 0
108 1 0.272407 0.134501 0
80 1 0.303982 0.0979911 0
110 1 0.309844 0.123937 0
111 1 0.324329 0.104034 0
141 1 0.331974 0.128949 0
84 1 0.362973 0.0932091 0
113 1 0.346388 0.109818 0
112 1 0.368559 0.117708 0
143 1 0.353076 0.135432 0
85 1 0.38404 0.0988904 0
115 1 0.390015 0.123563 0
86 1 0.405886 0.105591 0
116 1 0.410742 0.130903 0
88 1 0.442896 0.0940603 0
117 1 0.426186 0.111622 0
119 1 0.447467 0.118102 0
90 1 0.464061 0.101933 0
120 1 0.469611 0.125882 0
991 1 0.485069 0.107375 0
992 1 0.491297 0.130921 0
962 1 0.501974 0.0886596 0
1077 1 -0.000454941 0.170874 0
1050 1 0.0274344 0.139494 0
1079 1 0.0217334 0.162835 0
1048 1 0.00487736 0.146158 0
1080 1 0.0373359 0.180661 0
151 1 0.0429801 0.156133 0
122 1 0.0643632 0.148557 0
152 1 0.0593743 0.175348 0
153 1 0.0798171 0.165141 0
123 1 0.0855733 0.140124 0
124 1 0.102079 0.170099 0
126 1 0.121833 0.151807 0
157 1 0.141239 0.16345 0
127 1 0.142277 0.140224 0
155 1 0.124381 0.179121 0
128 1 0.16257 0.169925 0
159 1 0.177884 0.153437 0
132 1 0.184611 0.177541 0
131 1 0.199323 0.158627 0
133 1 0.213296 0.142009 0
134 1 0.220165 0.165564 0
163 1 0.205204 0.183347 0
135 1 0.235566 0.146941 0
165 1 0.241604 0.171777 0
136 1 0.257362 0.152623 0
167 1 0.26332 0.17796 0
138 1 0.278422 0.159105 0
139 1 0.29452 0.141221 0
169 1 0.300087 0.166072 0
140 1 0.315603 0.147687 0
171 1 0.320844 0.172782 0
142 1 0.3362 0.153408 0
172 1 0.343001 0.17782 0
173 1 0.358887 0.159499 0
114 1 0.374254 0.142434 0
144 1 0.379271 0.166734 0
145 1 0.396009 0.148205 0
146 1 0.401129 0.173559 0
147 1 0.417405 0.153606 0
118 1 0.432956 0.135972 0
177 1 0.422608 0.17886 0
148 1 0.43814 0.160516 0
149 1 0.453842 0.143404 0
150 1 0.459749 0.166992 0
1051 1 0.481005 0.173693 0
1021 1 0.475044 0.14943 0
1022 1 0.496777 0.155248 0
1107 1 0.0127378 0.211921 0
1109 1 0.0350483 0.217838 0
1078 1 0.0163772 0.187247 0
181 1 0.0514371 0.199604 0
183 1 0.0722981 0.206231 0
182 1 0.0562662 0.223547 0
154 1 0.0875909 0.188423 0
185 1 0.0940841 0.214441 0
156 1 0.109002 0.196291 0
186 1 0.114589 0.221601 0
158 1 0.130396 0.204083 0
160 1 0.146714 0.187294 0
189 1 0.152511 0.210331 0
161 1 0.168986 0.19371 0
191 1 0.173272 0.218212 0
162 1 0.189748 0.201556 0
192 1 0.195815 0.224679 0
193 1 0.21119 0.206795 0
164 1 0.226548 0.189571 0
195 1 0.232273 0.21381 0
166 1 0.247295 0.195333 0
196 1 0.252962 0.219001 0
197 1 0.26823 0.201781 0
168 1 0.283877 0.18395 0
198 1 0.27366 0.22583 0
199 1 0.289691 0.208456 0
170 1 0.305445 0.190752 0
200 1 0.311263 0.214485 0
201 1 0.327421 0.196486 0
202 1 0.332322 0.220245 0
174 1 0.36361 0.183548 0
203 1 0.348637 0.201987 0
204 1 0.370031 0.208768 0
233 1 0.353552 0.226266 0
175 1 0.385744 0.191034 0
205 1 0.391361 0.215533 0
176 1 0.407129 0.197586 0
207 1 0.412829 0.221846 0
179 1 0.443842 0.185259 0
178 1 0.428375 0.202282 0
209 1 0.449063 0.211861 0
180 1 0.465505 0.192663 0
1081 1 0.470841 0.2164 0
1052 1 0.486847 0.198134 0
1082 1 0.492405 0.221824 0
1140 1 0.0255794 0.260913 0
1110 1 0.0195381 0.236535 0
1108 1 0.00481671 0.254649 0
211 1 0.0415564 0.242339 0
212 1 0.0472823 0.267107 0
213 1 0.0633987 0.249069 0
184 1 0.0781655 0.230153 0
214 1 0.0839851 0.256578 0
215 1 0.0987369 0.239189 0
216 1 0.104885 0.263219 0
187 1 0.13637 0.228493 0
217 1 0.119996 0.245462 0
218 1 0.125791 0.270577 0
188 1 0.141362 0.252249 0
190 1 0.156821 0.235143 0
220 1 0.162353 0.258619 0
221 1 0.178637 0.241775 0
222 1 0.184265 0.267129 0
223 1 0.20021 0.248713 0
194 1 0.216692 0.231289 0
224 1 0.221472 0.255533 0
253 1 0.205344 0.272848 0
225 1 0.237757 0.237801 0
226 1 0.242961 0.262053 0
227 1 0.258669 0.244868 0
257 1 0.263728 0.268364 0
228 1 0.280295 0.249923 0
229 1 0.295555 0.232457 0
230 1 0.301318 0.256434 0
231 1 0.317383 0.238382 0
261 1 0.323506 0.262789 0
232 1 0.338849 0.243929 0
263 1 0.344067 0.269182 0
234 1 0.360111 0.251573 0
235 1 0.375856 0.233096 0
265 1 0.381534 0.257814 0
206 1 0.396705 0.239043 0
236 1 0.402651 0.264123 0
237 1 0.417491 0.246379 0
208 1 0.433668 0.230042 0
239 1 0.438989 0.253968 0
238 1 0.423377 0.271614 0
210 1 0.45492 0.236761 0
240 1 0.459786 0.260521 0
1111 1 0.476417 0.241857 0
1112 1 0.481734 0.265689 0
1113 1 0.497486 0.249095 0
1139 1 0.00982991 0.278304 0
1169 1 0.0162413 0.302654 0
241 1 0.0308621 0.284934 0
271 1 0.0372636 0.308873 0
243 1 0.0686189 0.273708 0
242 1 0.0525465 0.290728 0
244 1 0.0743514 0.298298 0
273 1 0.0585176 0.31524 0
245 1 0.0895369 0.280799 0
246 1 0.0952271 0.305727 0
247 1 0.110254 0.288513 0
248 1 0.117164 0.312507 0
249 1 0.131887 0.294337 0
219 1 0.147785 0.276731 0
250 1 0.152817 0.301637 0
251 1 0.169141 0.284075 0
281 1 0.174879 0.309398 0
252 1 0.190605 0.290235 0
283 1 0.19636 0.314934 0
254 1 0.211467 0.296798 0
255 1 0.226735 0.279095 0
285 1 0.233691 0.304242 0
256 1 0.247673 0.286096 0
287 1 0.255248 0.310385 0
259 1 0.285596 0.27409 0
258 1 0.27021 0.292095 0
288 1 0.276 0.315691 0
289 1 0.291498 0.29776 0
260 1 0.307171 0.281705 0
291 1 0.31394 0.3053 0
262 1 0.329131 0.287659 0
292 1 0.334742 0.311248 0
293 1 0.350384 0.293964 0
264 1 0.365658 0.275391 0
295 1 0.37152 0.299565 0
294 1 0.355705 0.317815 0
266 1 0.387142 0.28186 0
297 1 0.393324 0.306908 0
267 1 0.408538 0.289647 0
298 1 0.414519 0.313979 0
268 1 0.429688 0.296451 0
269 1 0.444289 0.278334 0
270 1 0.450472 0.303669 0
1141 1 0.465276 0.283362 0
300 1 0.471222 0.309849 0
1171 1 0.487357 0.291446 0
1172 1 0.492646 0.315582 0
1229 1 0.0272199 0.351554 0
1170 1 0.0217006 0.327951 0
1199 1 0.00535863 0.345314 0
1200 1 0.0430944 0.33343 0
301 1 0.0487406 0.357892 0
272 1 0.0643556 0.340702 0
275 1 0.080064 0.323797 0
274 1 0.0854623 0.347909 0
276 1 0.102001 0.330482 0
305 1 0.107315 0.355725 0
279 1 0.138098 0.319047 0
277 1 0.122873 0.337541 0
278 1 0.14326 0.343906 0
307 1 0.128419 0.361358 0
280 1 0.158747 0.326745 0
311 1 0.164809 0.350017 0
282 1 0.180593 0.333381 0
312 1 0.186387 0.35699 0
313 1 0.202827 0.338957 0
284 1 0.21762 0.321009 0
315 1 0.223683 0.345368 0
314 1 0.208159 0.363137 0
286 1 0.238784 0.3281 0
316 1 0.245534 0.351965 0
317 1 0.260795 0.334407 0
318 1 0.267284 0.35826 0
319 1 0.282415 0.33925 0
290 1 0.297937 0.321277 0
320 1 0.303954 0.346662 0
321 1 0.318737 0.329571 0
322 1 0.324983 0.353055 0
323 1 0.340422 0.335272 0
324 1 0.345948 0.359765 0
325 1 0.362348 0.342143 0
296 1 0.377077 0.32331 0
326 1 0.383467 0.34923 0
327 1 0.397961 0.330731 0
328 1 0.40432 0.35677 0
329 1 0.419522 0.338534 0
299 1 0.43502 0.321795 0
359 1 0.441617 0.34616 0
330 1 0.457024 0.328389 0
358 1 0.425721 0.362929 0
360 1 0.462487 0.352555 0
1201 1 0.477553 0.334673 0
1231 1 0.483803 0.359035 0
1259 1 0.0122484 0.369748 0
1230 1 0.0339716 0.376908 0
1260 1 0.0181188 0.393873 0
331 1 0.0398764 0.401205 0
303 1 0.0702276 0.365572 0
302 1 0.0549458 0.383064 0
333 1 0.0764597 0.389889 0
332 1 0.0606542 0.40687 0
304 1 0.0916788 0.372979 0
335 1 0.09804 0.396833 0
306 1 0.113707 0.379362 0
337 1 0.119087 0.404083 0
308 1 0.134775 0.385925 0
309 1 0.149059 0.368816 0
339 1 0.155609 0.392194 0
310 1 0.171012 0.374338 0
341 1 0.176894 0.39964 0
343 1 0.192251 0.382275 0
342 1 0.198607 0.405493 0
344 1 0.213902 0.388104 0
345 1 0.229731 0.369375 0
346 1 0.234406 0.393918 0
347 1 0.250461 0.376852 0
377 1 0.255571 0.401559 0
348 1 0.272287 0.384072 0
349 1 0.288276 0.364736 0
350 1 0.294073 0.389034 0
351 1 0.309725 0.370719 0
381 1 0.314389 0.396089 0
353 1 0.330736 0.377789 0
352 1 0.336796 0.402385 0
354 1 0.352145 0.384336 0
355 1 0.367395 0.366367 0
356 1 0.373511 0.392868 0
357 1 0.388246 0.374514 0
386 1 0.394532 0.398859 0
387 1 0.410324 0.380134 0
388 1 0.415837 0.404811 0
389 1 0.431241 0.38822 0
1232 1 0.446795 0.37044 0
1261 1 0.452772 0.395494 0
1262 1 0.468637 0.377164 0
1293 1 0.474273 0.400687 0
1263 1 0.489805 0.382864 0
1294 1 0.495194 0.407351 0
1289 1 0.00346115 0.412464 0
1319 1 0.0091923 0.436505 0
391 1 0.0296025 0.442271 0
1290 1 0.0248347 0.417999 0
361 1 0.0455799 0.426172 0
362 1 0.051163 0.44949 0
363 1 0.0660818 0.431333 0
334 1 0.0819563 0.414422 0
365 1 0.0873976 0.438164 0
336 1 0.102577 0.421385 0
366 1 0.109041 0.446083 0
338 1 0.139972 0.410529 0
367 1 0.124707 0.428157 0
369 1 0.145385 0.436284 0
368 1 0.129716 0.453173 0
340 1 0.160718 0.4164 0
370 1 0.167153 0.441284 0
371 1 0.182313 0.422978 0
401 1 0.188597 0.447165 0
372 1 0.203949 0.430511 0
373 1 0.219117 0.412887 0
374 1 0.22539 0.436836 0
375 1 0.240602 0.418558 0
405 1 0.246403 0.442951 0
376 1 0.263342 0.424681 0
407 1 0.269086 0.450429 0
378 1 0.278529 0.407168 0
409 1 0.283934 0.43257 0
379 1 0.299023 0.413587 0
380 1 0.306453 0.438177 0
382 1 0.320789 0.419841 0
413 1 0.32706 0.444752 0
383 1 0.341784 0.427154 0
385 1 0.357507 0.409354 0
414 1 0.363523 0.434295 0
412 1 0.348097 0.452748 0
384 1 0.37917 0.416839 0
415 1 0.384211 0.441614 0
417 1 0.400605 0.423204 0
416 1 0.405709 0.447254 0
418 1 0.421288 0.430319 0
419 1 0.437311 0.412829 0
390 1 0.442599 0.436689 0
447 1 0.427171 0.45394 0
1291 1 0.459387 0.419112 0
1292 1 0.479927 0.425173 0
1321 1 0.463602 0.443075 0
1322 1 0.484664 0.449546 0
1320 1 0.0145827 0.46038 0
421 1 0.0196259 0.484218 0
392 1 0.0352269 0.467331 0
422 1 0.0411275 0.492302 0
364 1 0.0721711 0.455772 0
393 1 0.0560532 0.473888 0
394 1 0.0777426 0.480999 0
395 1 0.0925756 0.461863 0
396 1 0.0991783 0.487416 0
397 1 0.11376 0.470723 0
427 1 0.120606 0.495105 0
399 1 0.151532 0.460254 0
398 1 0.136078 0.477324 0
429 1 0.157168 0.483783 0
400 1 0.173343 0.465351 0
431 1 0.178006 0.491015 0
403 1 0.209546 0.454701 0
402 1 0.193958 0.472032 0
432 1 0.199234 0.496829 0
433 1 0.214736 0.478251 0
404 1 0.230489 0.461965 0
435 1 0.236969 0.485664 0
406 1 0.252379 0.467802 0
436 1 0.258864 0.491954 0
408 1 0.274467 0.474987 0
410 1 0.290131 0.456863 0
441 1 0.296086 0.481703 0
439 1 0.279743 0.499002 0
411 1 0.311643 0.463207 0
440 1 0.317328 0.488405 0
442 1 0.331754 0.470214 0
471 1 0.33841 0.493637 0
473 1 0.353434 0.476426 0
443 1 0.368688 0.458959 0
444 1 0.373931 0.483742 0
445 1 0.390366 0.465524 0
475 1 0.395996 0.489619 0
446 1 0.41203 0.471879 0
477 1 0.417661 0.496027 0
449 1 0.454736 0.484672 0
448 1 0.433425 0.478396 0
420 1 0.448797 0.460995 0
1353 1 0.491591 0.473087 0
450 1 0.470361 0.46752 0
1351 1 0.476238 0.491675 0
1352 1 0.497247 0.497118 0
452 1 0.0311941 0.53414 0
451 1 0.0252796 0.509899 0
1380 1 0.00909064 0.526753 0
1350 1 0.00492774 0.502213 0
453 1 0.0473242 0.516247 0
454 1 0.0525972 0.541786 0
424 1 0.067954 0.524158 0
423 1 0.062771 0.499311 0
425 1 0.0841727 0.506381 0
455 1 0.0892565 0.531035 0
426 1 0.104969 0.512423 0
456 1 0.110405 0.537258 0
457 1 0.126914 0.5196 0
459 1 0.147278 0.526772 0
428 1 0.141555 0.501482 0
458 1 0.131316 0.544032 0
430 1 0.162902 0.508728 0
460 1 0.168253 0.534206 0
461 1 0.183904 0.515885 0
462 1 0.189741 0.53971 0
463 1 0.205637 0.521597 0
434 1 0.22065 0.503634 0
464 1 0.228081 0.527387 0
465 1 0.244358 0.510404 0
466 1 0.249401 0.534945 0
437 1 0.265107 0.516587 0
497 1 0.269728 0.542149 0
467 1 0.285867 0.523173 0
438 1 0.301787 0.506337 0
468 1 0.3067 0.530652 0
469 1 0.323898 0.512844 0
499 1 0.327363 0.536842 0
470 1 0.344206 0.51954 0
503 1 0.365557 0.526273 0
501 1 0.349759 0.542995 0
474 1 0.380988 0.507115 0
472 1 0.358502 0.501431 0
505 1 0.387105 0.532781 0
476 1 0.401284 0.514079 0
506 1 0.408115 0.538743 0
507 1 0.423061 0.520108 0
480 1 0.445363 0.526747 0
478 1 0.439223 0.50265 0
509 1 0.428812 0.544528 0
479 1 0.460405 0.509083 0
510 1 0.466116 0.534108 0
1381 1 0.482257 0.515972 0
1411 1 0.487214 0.540695 0
481 1 0.0154978 0.550921 0
483 1 0.0369314 0.558629 0
1410 1 0.0220209 0.575703 0
482 1 0.0423059 0.583127 0
485 1 0.0739018 0.548854 0
513 1 0.0585913 0.566413 0
514 1 0.0630183 0.590605 0
484 1 0.079102 0.572734 0
486 1 0.0947178 0.55503 0
515 1 0.100239 0.579426 0
487 1 0.116006 0.560789 0
517 1 0.121442 0.586223 0
488 1 0.136918 0.568412 0
489 1 0.151841 0.551059 0
490 1 0.158738 0.575183 0
491 1 0.174897 0.558035 0
521 1 0.180723 0.582469 0
493 1 0.212232 0.546228 0
492 1 0.196537 0.563253 0
523 1 0.201811 0.587559 0
494 1 0.217543 0.570365 0
495 1 0.233097 0.552082 0
525 1 0.239414 0.577386 0
496 1 0.254503 0.560146 0
526 1 0.260417 0.584001 0
527 1 0.276397 0.565748 0
498 1 0.291043 0.547122 0
529 1 0.297559 0.573204 0
500 1 0.31233 0.554863 0
530 1 0.318132 0.578942 0
531 1 0.334128 0.561034 0
532 1 0.339653 0.586102 0
533 1 0.355292 0.567555 0
502 1 0.371179 0.550713 0
534 1 0.37688 0.575592 0
504 1 0.392943 0.557405 0
535 1 0.397567 0.581616 0
508 1 0.414512 0.563071 0
537 1 0.418725 0.587609 0
539 1 0.435721 0.569988 0
540 1 0.45098 0.552307 0
569 1 0.456782 0.576388 0
1443 1 0.499336 0.589866 0
1442 1 0.478138 0.582891 0
1441 1 0.472335 0.557784 0
1412 1 0.493113 0.565402 0
511 1 0.0257036 0.6009 0
541 1 0.0317397 0.624872 0
1440 1 0.00961344 0.62016 0
1439 1 0.00483703 0.593048 0
512 1 0.0475663 0.607357 0
542 1 0.0534554 0.632153 0
543 1 0.0689869 0.614496 0
545 1 0.0846079 0.597089 0
546 1 0.0907005 0.621266 0
516 1 0.105724 0.603442 0
547 1 0.112458 0.629078 0
518 1 0.12811 0.609399 0
519 1 0.143796 0.592481 0
548 1 0.149177 0.617882 0
520 1 0.164785 0.600036 0
549 1 0.169847 0.624487 0
522 1 0.18626 0.607288 0
551 1 0.190817 0.631543 0
553 1 0.207707 0.613463 0
524 1 0.222753 0.595384 0
554 1 0.229256 0.619682 0
555 1 0.245263 0.601305 0
556 1 0.250334 0.626923 0
557 1 0.266302 0.608495 0
528 1 0.282257 0.590868 0
558 1 0.28831 0.614861 0
587 1 0.272115 0.633554 0
559 1 0.30328 0.598351 0
560 1 0.309343 0.622352 0
561 1 0.324075 0.603954 0
591 1 0.330573 0.627878 0
562 1 0.345606 0.610008 0
563 1 0.361196 0.592611 0
565 1 0.366447 0.61722 0
564 1 0.351111 0.635272 0
536 1 0.38278 0.600236 0
566 1 0.388393 0.624184 0
567 1 0.404005 0.606666 0
597 1 0.409988 0.630116 0
568 1 0.425666 0.612136 0
538 1 0.440811 0.594436 0
600 1 0.446873 0.618761 0
570 1 0.46239 0.600868 0
1501 1 0.468165 0.625459 0
1471 1 0.483507 0.60733 0
1472 1 0.490028 0.631307 0
1470 1 0.0169528 0.643349 0
571 1 0.038405 0.649922 0
1500 1 0.0105067 0.666473 0
572 1 0.0450087 0.675635 0
544 1 0.0757504 0.640231 0
573 1 0.0601094 0.65687 0
574 1 0.081042 0.664532 0
575 1 0.0961323 0.647021 0
605 1 0.101718 0.670744 0
577 1 0.133476 0.634793 0
576 1 0.1175 0.653225 0
607 1 0.123795 0.677095 0
578 1 0.139209 0.659513 0
579 1 0.153984 0.642043 0
609 1 0.159878 0.666505 0
550 1 0.175338 0.648956 0
580 1 0.181437 0.673286 0
552 1 0.212683 0.638358 0
581 1 0.196988 0.655697 0
611 1 0.20322 0.67935 0
582 1 0.219124 0.662427 0
583 1 0.235158 0.644633 0
584 1 0.240571 0.668232 0
585 1 0.257246 0.650465 0
615 1 0.261688 0.675247 0
586 1 0.277889 0.65758 0
589 1 0.293646 0.639377 0
588 1 0.299459 0.663685 0
617 1 0.283355 0.680774 0
590 1 0.315155 0.646329 0
621 1 0.320797 0.671491 0
593 1 0.335793 0.653158 0
592 1 0.342074 0.677583 0
594 1 0.35728 0.660217 0
595 1 0.372324 0.642438 0
625 1 0.379238 0.665927 0
596 1 0.394333 0.647611 0
627 1 0.401355 0.671866 0
598 1 0.416499 0.654039 0
657 1 0.42226 0.680207 0
599 1 0.431826 0.636392 0
628 1 0.437073 0.661693 0
629 1 0.452302 0.64348 0
630 1 0.458685 0.666542 0
1503 1 0.496474 0.656799 0
1502 1 0.474774 0.650672 0
1533 1 0.479927 0.674517 0
601 1 0.0262193 0.684606 0
631 1 0.0208757 0.7087 0
1530 1 0.00544048 0.69126 0
632 1 0.0378354 0.724751 0
1560 1 9.49657e-05 0.71519 0
603 1 0.0650547 0.683299 0
602 1 0.0443619 0.699857 0
633 1 0.0694039 0.706994 0
604 1 0.0867357 0.689053 0
635 1 0.0907577 0.714222 0
606 1 0.108036 0.695991 0
636 1 0.112617 0.720122 0
637 1 0.129633 0.702009 0
608 1 0.145166 0.684689 0
638 1 0.150111 0.709071 0
639 1 0.165956 0.6918 0
641 1 0.1728 0.715162 0
610 1 0.187948 0.698165 0
642 1 0.194016 0.723055 0
612 1 0.208833 0.704966 0
613 1 0.225583 0.685664 0
643 1 0.230681 0.710572 0
614 1 0.246398 0.692979 0
645 1 0.252605 0.717493 0
616 1 0.268103 0.699826 0
647 1 0.274593 0.724329 0
618 1 0.289759 0.70724 0
619 1 0.304762 0.688389 0
620 1 0.311021 0.712291 0
622 1 0.326798 0.695589 0
651 1 0.332487 0.719146 0
653 1 0.347877 0.701885 0
623 1 0.36367 0.684034 0
624 1 0.36905 0.709102 0
654 1 0.35351 0.726 0
626 1 0.385276 0.690107 0
655 1 0.390702 0.714814 0
656 1 0.406116 0.696293 0
686 1 0.412099 0.720797 0
658 1 0.427685 0.703093 0
659 1 0.443638 0.684946 0
660 1 0.448433 0.709113 0
1531 1 0.46434 0.691292 0
1561 1 0.46955 0.717076 0
1532 1 0.485532 0.698294 0
1563 1 0.490682 0.721924 0
663 1 0.0331627 0.749307 0
661 1 0.0166317 0.732234 0
1590 1 0.0111548 0.756778 0
662 1 0.0485954 0.766182 0
634 1 0.0750349 0.732839 0
664 1 0.0542645 0.741984 0
695 1 0.0708773 0.75904 0
665 1 0.0962301 0.739468 0
697 1 0.104029 0.764311 0
667 1 0.134876 0.727551 0
666 1 0.119078 0.744251 0
668 1 0.125553 0.76767 0
669 1 0.141689 0.750879 0
640 1 0.156994 0.732344 0
670 1 0.162965 0.75696 0
671 1 0.178113 0.739765 0
672 1 0.184742 0.763055 0
644 1 0.215724 0.728954 0
673 1 0.200211 0.746778 0
703 1 0.205407 0.770494 0
674 1 0.221236 0.753874 0
675 1 0.236574 0.735384 0
705 1 0.242659 0.761317 0
646 1 0.258379 0.742695 0
677 1 0.263531 0.766012 0
648 1 0.280387 0.748308 0
649 1 0.295988 0.730458 0
679 1 0.301608 0.755136 0
650 1 0.316938 0.737434 0
681 1 0.32351 0.762276 0
652 1 0.338588 0.743434 0
682 1 0.344541 0.767154 0
683 1 0.359566 0.749688 0
685 1 0.375177 0.73245 0
684 1 0.38175 0.756485 0
715 1 0.396597 0.738414 0
714 1 0.402599 0.76318 0
717 1 0.418376 0.745091 0
716 1 0.424452 0.769984 0
687 1 0.433356 0.727656 0
688 1 0.43946 0.751821 0
689 1 0.454392 0.73374 0
719 1 0.460512 0.758981 0
690 1 0.476149 0.740456 0
1591 1 0.481504 0.764865 0
1562 1 0.497095 0.746954 0
691 1 0.0273677 0.773482 0
721 1 0.0213326 0.797201 0
1620 1 0.00595304 0.779972 0
692 1 0.036383 0.815664 0
693 1 0.0426079 0.790721 0
723 1 0.0569265 0.810143 0
694 1 0.0633992 0.783453 0
725 1 0.0778286 0.802196 0
696 1 0.0850594 0.778021 0
727 1 0.0998873 0.795948 0
728 1 0.115116 0.814412 0
698 1 0.121539 0.790987 0
699 1 0.146384 0.775455 0
700 1 0.136243 0.808302 0
731 1 0.154699 0.797805 0
701 1 0.169734 0.780927 0
702 1 0.190087 0.788486 0
732 1 0.17458 0.807476 0
763 1 0.195692 0.813132 0
733 1 0.211294 0.796127 0
704 1 0.225845 0.778849 0
706 1 0.233394 0.802701 0
676 1 0.248151 0.784547 0
737 1 0.254603 0.80811 0
707 1 0.269445 0.790297 0
678 1 0.285857 0.773547 0
738 1 0.27548 0.815296 0
708 1 0.291415 0.797708 0
709 1 0.30778 0.779041 0
710 1 0.31277 0.803758 0
680 1 0.328141 0.786339 0
741 1 0.334361 0.809884 0
713 1 0.365277 0.773443 0
711 1 0.349441 0.791051 0
712 1 0.371433 0.798018 0
742 1 0.355666 0.817037 0
743 1 0.387273 0.780432 0
745 1 0.393318 0.806632 0
746 1 0.408499 0.788015 0
775 1 0.414153 0.812337 0
718 1 0.445289 0.776931 0
747 1 0.429423 0.793934 0
749 1 0.450445 0.801124 0
720 1 0.466953 0.783295 0
1621 1 0.472659 0.80681 0
1592 1 0.488713 0.79061 0
1622 1 0.493404 0.814464 0
1680 1 0.0314814 0.840719 0
1650 1 0.0158968 0.82305 0
1709 1 0.010251 0.847142 0
752 1 0.0461719 0.857903 0
751 1 0.0521497 0.833235 0
753 1 0.0677894 0.850582 0
722 1 0.0733313 0.827156 0
726 1 0.0938988 0.819876 0
724 1 0.0890368 0.844875 0
757 1 0.109735 0.838122 0
755 1 0.104485 0.862428 0
756 1 0.125941 0.855142 0
729 1 0.131103 0.831948 0
759 1 0.148257 0.847662 0
730 1 0.154942 0.823323 0
761 1 0.178067 0.832594 0
792 1 0.185116 0.857502 0
762 1 0.199975 0.836728 0
735 1 0.216967 0.819996 0
734 1 0.222746 0.844672 0
736 1 0.238416 0.82678 0
765 1 0.244199 0.850586 0
767 1 0.260074 0.832799 0
766 1 0.26653 0.857496 0
768 1 0.281499 0.840172 0
739 1 0.296855 0.821355 0
769 1 0.303974 0.847403 0
740 1 0.318803 0.827976 0
770 1 0.32564 0.852232 0
771 1 0.340476 0.834665 0
801 1 0.346619 0.860237 0
773 1 0.362022 0.841627 0
744 1 0.377065 0.822554 0
803 1 0.383225 0.84869 0
774 1 0.398569 0.830803 0
776 1 0.404315 0.856334 0
777 1 0.419079 0.837329 0
748 1 0.435391 0.819539 0
779 1 0.441667 0.843009 0
778 1 0.42599 0.861303 0
750 1 0.456617 0.825132 0
780 1 0.463454 0.850222 0
1651 1 0.477827 0.831132 0
1652 1 0.484578 0.856107 0
1653 1 0.49956 0.838064 0
1710 1 0.00470361 0.870813 0
781 1 0.025594 0.864714 0
811 1 0.0198224 0.889751 0
812 1 0.034803 0.906237 0
782 1 0.0407208 0.881933 0
813 1 0.057031 0.899878 0
783 1 0.06194 0.874834 0
784 1 0.0778991 0.893352 0
754 1 0.0827942 0.868639 0
785 1 0.0991479 0.886098 0
786 1 0.114913 0.903879 0
787 1 0.121047 0.87826 0
788 1 0.136689 0.895496 0
758 1 0.142668 0.871035 0
760 1 0.164387 0.863713 0
789 1 0.158606 0.888836 0
790 1 0.17443 0.904718 0
791 1 0.17986 0.881293 0
764 1 0.207225 0.862362 0
823 1 0.195397 0.89797 0
793 1 0.215558 0.888238 0
795 1 0.229179 0.869207 0
794 1 0.235972 0.893649 0
796 1 0.251679 0.876052 0
825 1 0.25791 0.899724 0
797 1 0.287916 0.863943 0
827 1 0.273818 0.882033 0
826 1 0.279429 0.90704 0
798 1 0.294695 0.889537 0
799 1 0.310286 0.871551 0
829 1 0.317652 0.8959 0
800 1 0.331389 0.87676 0
831 1 0.338506 0.903039 0
802 1 0.352536 0.884292 0
772 1 0.36737 0.866805 0
804 1 0.374019 0.890945 0
805 1 0.389019 0.874126 0
806 1 0.396116 0.897563 0
807 1 0.411312 0.879395 0
837 1 0.417189 0.903431 0
809 1 0.446993 0.867562 0
808 1 0.432312 0.886127 0
810 1 0.453287 0.892467 0
1681 1 0.468201 0.87498 0
1711 1 0.47461 0.899287 0
1682 1 0.49041 0.880749 0
1713 1 0.495962 0.905385 0
841 1 0.0297673 0.930715 0
1740 1 0.0137397 0.912824 0
1769 1 0.00865251 0.937584 0
1770 1 0.0251306 0.955687 0
842 1 0.046002 0.9484 0
843 1 0.0510567 0.923491 0
844 1 0.0674129 0.940874 0
814 1 0.0728294 0.91719 0
815 1 0.094421 0.910679 0
845 1 0.0885839 0.934649 0
816 1 0.109932 0.928113 0
846 1 0.104493 0.951576 0
847 1 0.125935 0.944689 0
819 1 0.151951 0.912674 0
817 1 0.130715 0.920551 0
818 1 0.147978 0.937597 0
820 1 0.168397 0.929532 0
851 1 0.184907 0.946188 0
821 1 0.190895 0.921433 0
822 1 0.205298 0.939883 0
824 1 0.213169 0.913484 0
853 1 0.226826 0.934505 0
855 1 0.242156 0.917457 0
854 1 0.247734 0.943241 0
856 1 0.263998 0.923788 0
885 1 0.270197 0.949225 0
857 1 0.286061 0.932205 0
828 1 0.301383 0.913837 0
859 1 0.307215 0.939131 0
830 1 0.322571 0.920489 0
860 1 0.328387 0.945705 0
832 1 0.344301 0.928322 0
833 1 0.359326 0.909427 0
863 1 0.365421 0.934316 0
861 1 0.350172 0.95197 0
834 1 0.38095 0.915175 0
865 1 0.386475 0.940147 0
835 1 0.401867 0.922383 0
836 1 0.407689 0.94683 0
838 1 0.423166 0.928033 0
839 1 0.438271 0.91081 0
869 1 0.444379 0.934478 0
840 1 0.459443 0.917767 0
867 1 0.429442 0.952988 0
1712 1 0.480901 0.923449 0
1741 1 0.465786 0.941696 0
1742 1 0.486585 0.948763 0
1799 1 0.0040769 0.962947 0
1800 1 0.0202885 0.980519 0
1 1 0.035448 0.997767 0
871 1 0.0413693 0.972651 0
872 1 0.0567326 0.989756 0
873 1 0.0617755 0.965133 0
874 1 0.0774434 0.982912 0
875 1 0.0834786 0.958797 0
876 1 0.0990118 0.976181 0
7 1 0.115365 0.993139 0
877 1 0.12055 0.968341 0
878 1 0.136137 0.985457 0
848 1 0.142376 0.962258 0
849 1 0.163579 0.954115 0
879 1 0.158063 0.978326 0
881 1 0.172843 0.995358 0
850 1 0.179613 0.970856 0
11 1 0.194242 0.988986 0
852 1 0.201312 0.964663 0
883 1 0.221839 0.958544 0
882 1 0.215169 0.982603 0
13 1 0.231274 1.00146 0
884 1 0.236073 0.977096 0
886 1 0.255889 0.966572 0
16 1 0.256592 0.992612 0
887 1 0.291478 0.956432 0
17 1 0.275263 0.975675 0
888 1 0.297545 0.981373 0
858 1 0.312637 0.963825 0
889 1 0.318192 0.988293 0
891 1 0.334485 0.969006 0
890 1 0.339749 0.994368 0
862 1 0.356446 0.977234 0
864 1 0.371267 0.958319 0
893 1 0.37756 0.983116 0
895 1 0.392397 0.96542 0
896 1 0.398877 0.989029 0
866 1 0.413746 0.971235 0
897 1 0.420576 0.99561 0
868 1 0.435616 0.978589 0
899 1 0.456456 0.983672 0
870 1 0.450546 0.958767 0
1772 1 0.477495 0.990487 0
1771 1 0.471365 0.966528 0
1773 1 0.493735 0.972232 0
903 1 0.498657 0.996634 0
902 1 0.505096 0.0213042 0
904 1 0.526712 0.0285236 0
905 1 0.520217 0.00366249 0
906 1 0.541958 0.0104821 0
935 1 0.548579 0.0343706 0
908 1 0.563199 0.0173382 0
937 1 0.569351 0.0417225 0
939 1 0.585003 0.0227106 0
940 1 0.606442 0.0277983 0
941 1 0.599948 0.00416763 0
942 1 0.755732 0.0217957 0
944 1 0.772533 0.0383153 0
943 1 0.777533 0.0146111 0
945 1 0.79414 0.0315375 0
914 1 0.799083 0.00636137 0
947 1 0.815748 0.0248425 0
918 1 0.836941 0.0168952 0
916 1 0.820138 -0.000714331 0
948 1 0.83105 0.0429161 0
949 1 0.852008 0.0357661 0
919 1 0.85775 0.010252 0
920 1 0.872746 0.0286818 0
1790 1 0.878676 0.00525706 0
951 1 0.89465 0.0226558 0
922 1 0.91594 0.0153058 0
952 1 0.910373 0.0403666 0
953 1 0.931297 0.0335357 0
924 1 0.936922 0.00868225 0
955 1 0.952203 0.0263233 0
925 1 0.957209 0.00151205 0
926 1 0.972875 0.019976 0
957 1 0.988437 0.0377231 0
928 1 0.993726 0.0114086 0
956 1 0.967566 0.0451067 0
933 1 0.510525 0.0465407 0
963 1 0.51652 0.0702861 0
934 1 0.533009 0.0526861 0
965 1 0.537965 0.0770414 0
936 1 0.5537 0.0594973 0
966 1 0.560026 0.0833703 0
967 1 0.575575 0.0654611 0
938 1 0.59161 0.0474435 0
969 1 0.59779 0.07137 0
971 1 0.750858 0.0456381 0
970 1 0.743949 0.0692948 0
973 1 0.767479 0.0617821 0
972 1 0.760409 0.08661 0
975 1 0.789226 0.0553832 0
1003 1 0.782 0.0798125 0
974 1 0.804481 0.0742341 0
946 1 0.810171 0.0486825 0
976 1 0.825607 0.0669383 0
1007 1 0.840894 0.0833942 0
977 1 0.84655 0.0597463 0
979 1 0.867724 0.0542146 0
978 1 0.861924 0.0773058 0
980 1 0.883622 0.0713939 0
950 1 0.88945 0.0475082 0
981 1 0.905658 0.0645005 0
982 1 0.921174 0.0821284 0
1011 1 0.90065 0.0880387 0
983 1 0.926107 0.0583807 0
984 1 0.941919 0.0768835 0
954 1 0.946705 0.051658 0
985 1 0.962698 0.0694365 0
987 1 0.983504 0.0621748 0
986 1 0.978514 0.0867305 0
988 1 0.999344 0.08016 0
964 1 0.523113 0.0955451 0
993 1 0.506625 0.112695 0
994 1 0.528717 0.118709 0
995 1 0.545132 0.100634 0
996 1 0.550263 0.125304 0
997 1 0.565941 0.107681 0
1027 1 0.571419 0.132667 0
968 1 0.581831 0.0905744 0
998 1 0.588553 0.114066 0
1000 1 0.608882 0.123199 0
1030 1 0.630566 0.131203 0
999 1 0.645895 0.113217 0
1001 1 0.666795 0.119826 0
1002 1 0.688465 0.125782 0
1033 1 0.778039 0.103872 0
1065 1 0.793296 0.122186 0
1004 1 0.798477 0.0988296 0
1035 1 0.815318 0.115555 0
1005 1 0.819526 0.0917282 0
1006 1 0.835573 0.108077 0
1036 1 0.830468 0.1328 0
1037 1 0.852081 0.125865 0
1008 1 0.856264 0.102115 0
1039 1 0.873149 0.120287 0
1009 1 0.878855 0.0945437 0
1010 1 0.893787 0.113189 0
1012 1 0.914731 0.106672 0
1041 1 0.909751 0.130978 0
1040 1 0.889044 0.137901 0
1015 1 0.95809 0.093598 0
1043 1 0.930239 0.124542 0
1013 1 0.936327 0.100912 0
1014 1 0.952631 0.118027 0
1017 1 0.974265 0.111077 0
1018 1 0.994488 0.104752 0
1047 1 0.988665 0.129009 0
1016 1 0.968213 0.135632 0
1023 1 0.513418 0.136693 0
1024 1 0.519049 0.160985 0
1025 1 0.534086 0.14299 0
1053 1 0.502283 0.179012 0
1055 1 0.539045 0.16844 0
1026 1 0.555677 0.15008 0
1057 1 0.561742 0.176271 0
1028 1 0.576699 0.157556 0