ITEM: TIMESTEP
399000
ITEM: NUMBER OF ATOMS
1800
ITEM: BOX BOUNDS pp pp pp
-1.4885654860916461e+01 1.7988565486091838e+02
1.1826529217466231e+00 1.6381734707825530e+02
0.0000000000000000e+00 5.5000000000000000e+00
ITEM: ATOMS id type xs ys zs
929 1 0.0294697 0.00535921 0
959 1 0.0232149 0.0300677 0
928 1 0.00922587 0.0125766 0
957 1 0.0037777 0.0372347 0
930 1 0.0428726 0.0234569 0
31 1 0.0581489 0.0410302 0
2 1 0.0631564 0.0153412 0
33 1 0.0772895 0.0328229 0
3 1 0.083688 0.00928699 0
4 1 0.099 0.0262312 0
5 1 0.103368 0.00193098 0
35 1 0.113412 0.0432098 0
6 1 0.118516 0.019405 0
37 1 0.134189 0.0359862 0
8 1 0.139219 0.0122228 0
39 1 0.15465 0.0293127 0
880 1 0.159664 0.00477164 0
9 1 0.174046 0.0212553 0
40 1 0.189049 0.0388145 0
10 1 0.194374 0.0155066 0
41 1 0.208736 0.0330398 0
12 1 0.213582 0.00788272 0
14 1 0.228086 0.0259217 0
13 1 0.233167 0.00122283 0
15 1 0.248023 0.018873 0
46 1 0.267011 0.0141413 0
45 1 0.243739 0.0421491 0
77 1 0.271537 0.0398692 0
47 1 0.286565 0.0220925 0
19 1 0.301322 0.00398197 0
49 1 0.307253 0.0285566 0
20 1 0.321495 0.0114517 0
51 1 0.327539 0.0363459 0
21 1 0.34145 0.0181564 0
22 1 0.347304 0.0431862 0
23 1 0.361917 0.0244242 0
894 1 0.376921 0.00739148 0
24 1 0.38265 0.0319777 0
25 1 0.397475 0.013407 0
26 1 0.403065 0.0367276 0
27 1 0.417797 0.0194126 0
29 1 0.436802 0.0268921 0
900 1 0.452449 0.00884272 0
30 1 0.458121 0.0328248 0
898 1 0.43259 0.00231235 0
28 1 0.422462 0.0446521 0
902 1 0.493436 0.0216487 0
901 1 0.472766 0.0158401 0
931 1 0.478603 0.0395578 0
988 1 0.0137095 0.0799923 0
989 1 0.0339729 0.0731033 0
958 1 0.018542 0.0548837 0
960 1 0.0385049 0.048051 0
61 1 0.0544729 0.0658034 0
62 1 0.0678808 0.0834736 0
32 1 0.0735525 0.0572138 0
990 1 0.0481168 0.0908651 0
63 1 0.0878796 0.0758552 0
34 1 0.0931689 0.0499894 0
65 1 0.107797 0.0670813 0
66 1 0.123672 0.0845312 0
36 1 0.128246 0.0602332 0
67 1 0.143987 0.0777296 0
38 1 0.148926 0.0533129 0
69 1 0.169339 0.0464952 0
68 1 0.16429 0.0711229 0
71 1 0.183715 0.0636124 0
70 1 0.179499 0.0882126 0
72 1 0.199023 0.0802929 0
42 1 0.203068 0.056754 0
43 1 0.223483 0.0503143 0
73 1 0.218783 0.0739586 0
44 1 0.239071 0.0657965 0
74 1 0.262841 0.0832936 0
75 1 0.259097 0.0593413 0
76 1 0.27832 0.0657115 0
48 1 0.292636 0.0460822 0
79 1 0.298809 0.0698523 0
78 1 0.284828 0.0891118 0
50 1 0.31294 0.0535153 0
81 1 0.319084 0.0775562 0
52 1 0.333997 0.0613069 0
82 1 0.339255 0.0852943 0
83 1 0.353752 0.0676872 0
53 1 0.368177 0.049085 0
54 1 0.37423 0.0742706 0
55 1 0.387914 0.056293 0
56 1 0.394175 0.0812782 0
57 1 0.407627 0.0615547 0
87 1 0.41443 0.0871686 0
58 1 0.428926 0.0694322 0
59 1 0.442822 0.0505918 0
89 1 0.448883 0.0757343 0
933 1 0.498723 0.0464163 0
932 1 0.483476 0.0649556 0
60 1 0.463416 0.0585052 0
961 1 0.468664 0.0823885 0
962 1 0.488878 0.0896681 0
1047 1 0.00407516 0.129709 0
1019 1 0.0287423 0.0979426 0
1049 1 0.0239225 0.122214 0
1018 1 0.00829731 0.104804 0
1020 1 0.0441173 0.115279 0
121 1 0.0592482 0.133119 0
91 1 0.0632363 0.10836 0
92 1 0.0792558 0.12583 0
93 1 0.0825947 0.101053 0
64 1 0.103297 0.0915685 0
94 1 0.0989918 0.115904 0
125 1 0.113704 0.133446 0
95 1 0.11866 0.107587 0
96 1 0.133335 0.125143 0
97 1 0.13965 0.101368 0
98 1 0.154439 0.119226 0
99 1 0.159788 0.0952161 0
100 1 0.17395 0.113442 0
130 1 0.189683 0.12999 0
101 1 0.194074 0.105425 0
102 1 0.209633 0.122212 0
103 1 0.214087 0.0986271 0
104 1 0.230948 0.116224 0
105 1 0.233833 0.0899589 0
106 1 0.25014 0.104077 0
137 1 0.254957 0.127393 0
107 1 0.270077 0.10778 0
109 1 0.289897 0.115188 0
80 1 0.304664 0.0963596 0
108 1 0.274344 0.13191 0
110 1 0.309721 0.121951 0
111 1 0.324062 0.102224 0
141 1 0.32961 0.129137 0
113 1 0.343984 0.110357 0
84 1 0.359011 0.0921485 0
112 1 0.364739 0.116469 0
85 1 0.379009 0.0974285 0
115 1 0.384971 0.122414 0
86 1 0.399578 0.105568 0
116 1 0.405893 0.13017 0
117 1 0.419959 0.112137 0
88 1 0.434356 0.0942437 0
119 1 0.440825 0.11889 0
90 1 0.454741 0.10095 0
118 1 0.426062 0.136908 0
120 1 0.461026 0.126095 0
991 1 0.475073 0.107924 0
992 1 0.4814 0.131786 0
993 1 0.495353 0.114006 0
1079 1 0.0338647 0.165532 0
1048 1 0.0199384 0.146877 0
1077 1 0.014499 0.171431 0
1050 1 0.0398927 0.139483 0
151 1 0.0542899 0.157963 0
122 1 0.074943 0.150833 0
152 1 0.0689008 0.175419 0
1080 1 0.0489812 0.182767 0
153 1 0.0892666 0.168368 0
123 1 0.0942184 0.141602 0
124 1 0.109331 0.15813 0
155 1 0.124813 0.173358 0
126 1 0.129734 0.149388 0
157 1 0.145262 0.167055 0
127 1 0.149206 0.143634 0
129 1 0.169538 0.137154 0
128 1 0.16549 0.162624 0
159 1 0.184231 0.153531 0
132 1 0.192523 0.174896 0
131 1 0.20685 0.15581 0
133 1 0.222752 0.139546 0
134 1 0.226696 0.164805 0
163 1 0.212249 0.182004 0
135 1 0.241488 0.14642 0
165 1 0.247027 0.169867 0
136 1 0.2614 0.151443 0
167 1 0.266565 0.175317 0
138 1 0.28115 0.157652 0
139 1 0.295265 0.14011 0
169 1 0.300986 0.164379 0
140 1 0.315436 0.146608 0
171 1 0.32137 0.172035 0
142 1 0.335939 0.153387 0
172 1 0.340886 0.178258 0
143 1 0.349756 0.135497 0
173 1 0.355487 0.160016 0
114 1 0.370469 0.142784 0
144 1 0.376652 0.166457 0
145 1 0.390721 0.147958 0
146 1 0.396411 0.173422 0
147 1 0.410616 0.15551 0
177 1 0.416771 0.179106 0
148 1 0.43213 0.161791 0
149 1 0.446079 0.143871 0
150 1 0.452105 0.168098 0
1051 1 0.472875 0.174893 0
1021 1 0.466839 0.149891 0
1022 1 0.486678 0.156518 0
1053 1 0.492968 0.182079 0
1076 1 0.00923904 0.196391 0
1107 1 0.0249756 0.213684 0
1078 1 0.0292303 0.189542 0
1106 1 0.00545828 0.22171 0
1109 1 0.0448888 0.209002 0
181 1 0.0655857 0.199935 0
182 1 0.0714874 0.224167 0
183 1 0.0873277 0.20576 0
154 1 0.103321 0.187661 0
185 1 0.107037 0.213776 0
156 1 0.122729 0.197881 0
186 1 0.127626 0.221378 0
158 1 0.142368 0.203221 0
160 1 0.157691 0.186839 0
189 1 0.162687 0.210825 0
161 1 0.177476 0.193669 0
191 1 0.182588 0.217994 0
162 1 0.196899 0.199241 0
192 1 0.202183 0.223385 0
193 1 0.21685 0.206388 0
164 1 0.232072 0.188044 0
195 1 0.236999 0.212452 0
166 1 0.25265 0.193776 0
196 1 0.257244 0.219181 0
168 1 0.287162 0.182401 0
197 1 0.272567 0.199486 0
199 1 0.291732 0.206271 0
198 1 0.277308 0.224315 0
170 1 0.306686 0.189286 0
200 1 0.31191 0.214814 0
201 1 0.326456 0.196365 0
202 1 0.332525 0.220325 0
203 1 0.347153 0.201739 0
174 1 0.361595 0.183688 0
204 1 0.366792 0.207355 0
175 1 0.381791 0.190674 0
233 1 0.352355 0.225761 0
205 1 0.387624 0.214809 0
176 1 0.402715 0.196761 0
207 1 0.407867 0.220607 0
178 1 0.423122 0.203689 0
179 1 0.437051 0.185385 0
209 1 0.443415 0.211641 0
180 1 0.457536 0.192891 0
1081 1 0.462683 0.218299 0
1052 1 0.477763 0.200212 0
1082 1 0.482931 0.22486 0
1083 1 0.498328 0.206332 0
1110 1 0.0381346 0.233054 0
1108 1 0.0218836 0.251294 0
1137 1 0.00819693 0.270468 0
1136 1 0.000454668 0.247064 0
1140 1 0.0415198 0.258623 0
211 1 0.0574451 0.242918 0
212 1 0.0623832 0.266874 0
213 1 0.0774901 0.249052 0
184 1 0.0915143 0.230727 0
214 1 0.0976528 0.254081 0
215 1 0.11312 0.238288 0
216 1 0.116949 0.262985 0
187 1 0.14745 0.227498 0
217 1 0.133007 0.245927 0
218 1 0.137023 0.269388 0
188 1 0.152256 0.252214 0
190 1 0.167151 0.2355 0
220 1 0.172328 0.258226 0
221 1 0.187677 0.241026 0
222 1 0.192899 0.265701 0
223 1 0.206895 0.248088 0
194 1 0.222043 0.229703 0
224 1 0.22711 0.253986 0
225 1 0.242343 0.236507 0
226 1 0.247751 0.261239 0
227 1 0.2627 0.243191 0
257 1 0.268236 0.266779 0
228 1 0.283181 0.248363 0
229 1 0.296529 0.23142 0
230 1 0.302828 0.255855 0
231 1 0.317511 0.238585 0
261 1 0.32389 0.262521 0
232 1 0.338118 0.244107 0
263 1 0.343327 0.267978 0
234 1 0.358294 0.25044 0
235 1 0.372279 0.232737 0
265 1 0.378695 0.256276 0
206 1 0.394198 0.238954 0
236 1 0.398797 0.262635 0
237 1 0.413527 0.244951 0
238 1 0.418208 0.269691 0
208 1 0.428161 0.228109 0
239 1 0.433041 0.252721 0
210 1 0.448106 0.235641 0
240 1 0.452936 0.260142 0
1111 1 0.467388 0.242264 0
1112 1 0.472487 0.266405 0
1113 1 0.488161 0.248948 0
1142 1 0.49356 0.273323 0
1138 1 0.0133386 0.294713 0
1139 1 0.0282007 0.276929 0
1169 1 0.0330817 0.301771 0
241 1 0.0475219 0.284101 0
271 1 0.0524124 0.308483 0
242 1 0.0673164 0.291037 0
273 1 0.0727346 0.315725 0
243 1 0.0822117 0.272361 0
244 1 0.0873691 0.298481 0
245 1 0.102106 0.280455 0
246 1 0.107111 0.305152 0
247 1 0.122066 0.286862 0
248 1 0.126902 0.311029 0
249 1 0.142104 0.294214 0
219 1 0.157522 0.276252 0
250 1 0.163356 0.300104 0
251 1 0.177721 0.28278 0
281 1 0.183379 0.307603 0
253 1 0.212524 0.272237 0
252 1 0.197636 0.290244 0
283 1 0.203887 0.314521 0
254 1 0.218057 0.297025 0
255 1 0.232643 0.278418 0
285 1 0.23826 0.303319 0
256 1 0.253262 0.285485 0
287 1 0.258693 0.309506 0
259 1 0.288674 0.274455 0
258 1 0.273668 0.291235 0
289 1 0.293805 0.298395 0
288 1 0.27904 0.316262 0
260 1 0.308324 0.281058 0
291 1 0.313767 0.304867 0
262 1 0.328438 0.286947 0
292 1 0.333853 0.311494 0
293 1 0.34901 0.293343 0
264 1 0.363509 0.274713 0
295 1 0.36894 0.298769 0
266 1 0.383454 0.280713 0
297 1 0.388322 0.305839 0
267 1 0.403523 0.287529 0
298 1 0.408735 0.312453 0
268 1 0.423164 0.294176 0
269 1 0.438229 0.276966 0
270 1 0.442842 0.302056 0
1141 1 0.458084 0.284715 0
300 1 0.46448 0.308791 0
1171 1 0.478859 0.291015 0
1172 1 0.484213 0.315947 0
1173 1 0.499296 0.298307 0
1168 1 0.0185858 0.3189 0
1170 1 0.03734 0.325933 0
1199 1 0.0233102 0.344377 0
1228 1 0.0089856 0.362141 0
1198 1 0.00340795 0.33639 0
1229 1 0.0429251 0.350966 0
1200 1 0.0572345 0.334202 0
301 1 0.0624785 0.357818 0
272 1 0.076751 0.340939 0
275 1 0.0923861 0.323105 0
274 1 0.0973731 0.347809 0
276 1 0.112903 0.328947 0
279 1 0.147474 0.318078 0
305 1 0.117104 0.353504 0
277 1 0.132754 0.335479 0
278 1 0.152701 0.342611 0
307 1 0.137659 0.359908 0
280 1 0.16793 0.324997 0
311 1 0.173475 0.349406 0
282 1 0.187769 0.331831 0
312 1 0.192995 0.35661 0
313 1 0.207739 0.339097 0
284 1 0.223594 0.320839 0
315 1 0.228198 0.34483 0
286 1 0.243741 0.327001 0
316 1 0.248653 0.350241 0
317 1 0.264102 0.333098 0
318 1 0.268304 0.356832 0
319 1 0.283989 0.340898 0
290 1 0.298908 0.322197 0
320 1 0.303472 0.346451 0
321 1 0.319102 0.329442 0
322 1 0.324427 0.353627 0
323 1 0.339328 0.335394 0
324 1 0.344484 0.360205 0
294 1 0.353976 0.317978 0
325 1 0.359578 0.343352 0
296 1 0.374254 0.324205 0
326 1 0.379814 0.349159 0
327 1 0.394317 0.331455 0
328 1 0.399201 0.355943 0
329 1 0.414326 0.338397 0
358 1 0.419608 0.36189 0
299 1 0.428888 0.319939 0
359 1 0.434942 0.344173 0
330 1 0.449834 0.325971 0
360 1 0.455156 0.351302 0
1202 1 0.48986 0.339698 0
1201 1 0.469602 0.332357 0
1231 1 0.475369 0.356981 0
1233 1 0.494781 0.363588 0
1259 1 0.0279398 0.368641 0
1260 1 0.0331119 0.393623 0
1258 1 0.0133013 0.386517 0
1230 1 0.0482407 0.376404 0
331 1 0.0530779 0.400469 0
302 1 0.0677639 0.383693 0
332 1 0.0740568 0.408488 0
303 1 0.0824741 0.366144 0
333 1 0.0881753 0.389869 0
304 1 0.103619 0.372224 0
335 1 0.10901 0.395826 0
306 1 0.123332 0.378839 0
337 1 0.129386 0.402151 0
308 1 0.14379 0.38447 0
338 1 0.148445 0.409358 0
309 1 0.158257 0.366651 0
339 1 0.163546 0.391692 0
310 1 0.178461 0.375109 0
341 1 0.18301 0.39951 0
314 1 0.213583 0.362831 0
343 1 0.198729 0.380599 0
342 1 0.202952 0.40597 0
344 1 0.218715 0.38692 0
345 1 0.234201 0.368798 0
346 1 0.238482 0.393644 0
347 1 0.253687 0.375701 0
377 1 0.258425 0.39985 0
349 1 0.288084 0.364707 0
348 1 0.273844 0.38282 0
350 1 0.293776 0.389439 0
378 1 0.27896 0.407613 0
351 1 0.308475 0.371741 0
381 1 0.314611 0.395984 0
353 1 0.328965 0.377355 0
352 1 0.334328 0.401646 0
354 1 0.349865 0.384198 0
355 1 0.364925 0.367521 0
356 1 0.370518 0.391292 0
385 1 0.355334 0.408814 0
357 1 0.384741 0.372762 0
386 1 0.39 0.396835 0
387 1 0.404865 0.37932 0
388 1 0.410399 0.403842 0
389 1 0.424883 0.38559 0
1232 1 0.439749 0.36786 0
1261 1 0.44509 0.392368 0
1262 1 0.46054 0.374468 0
1353 1 0.480667 0.473655 0
1293 1 0.465922 0.399854 0
1263 1 0.479851 0.381952 0
1294 1 0.485261 0.405046 0
1289 1 0.0183603 0.411019 0
1319 1 0.0236536 0.435146 0
1290 1 0.0385316 0.417848 0
1318 1 0.00875483 0.45387 0
1288 1 0.00315671 0.428286 0
391 1 0.0438905 0.443197 0
361 1 0.059053 0.42575 0
362 1 0.0637533 0.450263 0
363 1 0.0787096 0.432703 0
334 1 0.0933242 0.413956 0
365 1 0.0993312 0.438649 0
336 1 0.113684 0.420681 0
366 1 0.119289 0.446375 0
367 1 0.133771 0.427505 0
368 1 0.138798 0.452089 0
369 1 0.153273 0.433629 0
340 1 0.168364 0.416247 0
370 1 0.173831 0.441684 0
371 1 0.188783 0.423716 0
401 1 0.194041 0.448465 0
372 1 0.208987 0.429702 0
373 1 0.223748 0.411734 0
374 1 0.229087 0.435358 0
375 1 0.243803 0.418698 0
405 1 0.24909 0.442326 0
376 1 0.264315 0.425123 0
407 1 0.268187 0.449625 0
409 1 0.283981 0.431613 0
379 1 0.29952 0.41364 0
380 1 0.304254 0.437882 0
382 1 0.319575 0.420173 0
413 1 0.325407 0.444174 0
383 1 0.340354 0.425557 0
412 1 0.344962 0.450307 0
414 1 0.360198 0.433427 0
384 1 0.375113 0.415514 0
415 1 0.380831 0.440118 0
417 1 0.396256 0.421895 0
416 1 0.4012 0.446721 0
418 1 0.416377 0.42879 0
419 1 0.43096 0.410285 0
390 1 0.43656 0.436389 0
1291 1 0.450888 0.417414 0
1321 1 0.456353 0.441853 0
1323 1 0.490106 0.431702 0
1292 1 0.471206 0.423357 0
1322 1 0.476381 0.449177 0
1320 1 0.0288108 0.459453 0
421 1 0.0339278 0.485777 0
1349 1 0.0150158 0.477588 0
392 1 0.0485382 0.467497 0
422 1 0.0545072 0.491546 0
393 1 0.0688644 0.473538 0
423 1 0.0743303 0.499022 0
364 1 0.0841841 0.456079 0
394 1 0.0888818 0.481895 0
395 1 0.103737 0.463024 0
396 1 0.109144 0.487818 0
397 1 0.123979 0.470441 0
427 1 0.129367 0.494293 0
398 1 0.14396 0.476446 0
399 1 0.158427 0.458313 0
429 1 0.163705 0.482518 0
400 1 0.179495 0.466046 0
431 1 0.184005 0.490627 0
403 1 0.213908 0.454696 0
402 1 0.199818 0.472663 0
432 1 0.204198 0.496761 0
433 1 0.219853 0.479555 0
404 1 0.234373 0.460375 0
435 1 0.240111 0.484787 0
406 1 0.254302 0.467085 0
436 1 0.259798 0.491312 0
408 1 0.27382 0.473669 0
410 1 0.288578 0.455652 0
441 1 0.294873 0.479224 0
439 1 0.27963 0.497767 0
411 1 0.310691 0.462417 0
440 1 0.315664 0.486401 0
442 1 0.330429 0.469491 0
471 1 0.335588 0.493498 0
473 1 0.350459 0.474888 0
443 1 0.365075 0.457483 0
444 1 0.370792 0.482242 0
447 1 0.421229 0.45369 0
445 1 0.385925 0.464114 0
475 1 0.391084 0.48882 0
446 1 0.405863 0.471049 0
477 1 0.411084 0.496966 0
450 1 0.460221 0.466393 0
448 1 0.426012 0.478057 0
420 1 0.441172 0.460498 0
449 1 0.445943 0.484661 0
1324 1 0.496164 0.456582 0
1351 1 0.466539 0.491384 0
1352 1 0.486888 0.497192 0
1046 1 -4.44207e-05 0.154323 0
892 1 0.356566 0.000919016 0
1380 1 0.0237437 0.527771 0
1350 1 0.018691 0.501849 0
451 1 0.0387593 0.509459 0
452 1 0.0440189 0.534665 0
453 1 0.0593055 0.515635 0
454 1 0.0647247 0.541073 0
424 1 0.0795808 0.524289 0
425 1 0.0945271 0.505939 0
455 1 0.0994872 0.531113 0
426 1 0.113901 0.513315 0
456 1 0.120277 0.53699 0
457 1 0.133974 0.52037 0
458 1 0.140663 0.544322 0
428 1 0.148998 0.501328 0
459 1 0.154228 0.52548 0
430 1 0.168651 0.507386 0
460 1 0.174528 0.531309 0
461 1 0.190099 0.514587 0
462 1 0.194808 0.539601 0
463 1 0.2097 0.521089 0
434 1 0.224836 0.503682 0
493 1 0.215326 0.545354 0
464 1 0.230337 0.527895 0
465 1 0.245041 0.509774 0
466 1 0.25078 0.534094 0
437 1 0.265526 0.516217 0
497 1 0.270965 0.539792 0
467 1 0.285896 0.521647 0
438 1 0.299786 0.50253 0
468 1 0.305986 0.529236 0
469 1 0.32073 0.510985 0
499 1 0.324913 0.535929 0
470 1 0.341256 0.51699 0
501 1 0.345841 0.543 0
503 1 0.360564 0.524208 0
474 1 0.376205 0.506437 0
505 1 0.381897 0.530867 0
472 1 0.356994 0.500161 0
476 1 0.396595 0.513776 0
506 1 0.401849 0.538784 0
507 1 0.416696 0.521169 0
509 1 0.421789 0.544784 0
480 1 0.437151 0.526362 0
479 1 0.450968 0.508694 0
510 1 0.456847 0.533027 0
478 1 0.430701 0.502439 0
1382 1 0.492368 0.521142 0
1381 1 0.471874 0.515974 0
1411 1 0.477407 0.540386 0
1409 1 0.00763682 0.544232 0
481 1 0.0279363 0.552378 0
1410 1 0.0345722 0.57613 0
1408 1 0.0141253 0.570907 0
483 1 0.0496995 0.558951 0
482 1 0.0547254 0.582667 0
513 1 0.0697833 0.56511 0
485 1 0.0845671 0.547974 0
484 1 0.0909878 0.571995 0
486 1 0.105304 0.554526 0
515 1 0.111111 0.57926 0
487 1 0.125207 0.561387 0
517 1 0.130903 0.585936 0
488 1 0.146358 0.568839 0
489 1 0.160489 0.549398 0
490 1 0.166639 0.575184 0
491 1 0.180411 0.556955 0
521 1 0.186656 0.581672 0
492 1 0.200721 0.563819 0
523 1 0.207424 0.588229 0
494 1 0.222003 0.570327 0
495 1 0.235638 0.552087 0
525 1 0.24161 0.57685 0
496 1 0.256541 0.558256 0
526 1 0.261499 0.583818 0
527 1 0.276129 0.564927 0
498 1 0.290712 0.546769 0
529 1 0.295702 0.571615 0
528 1 0.281365 0.590115 0
500 1 0.31085 0.553699 0
530 1 0.315681 0.578334 0
531 1 0.331275 0.560559 0
532 1 0.336867 0.58428 0
533 1 0.351492 0.566447 0
502 1 0.366369 0.548421 0
534 1 0.371271 0.573101 0
563 1 0.357142 0.591403 0
504 1 0.386402 0.555629 0
535 1 0.392133 0.579741 0
508 1 0.406973 0.562044 0
537 1 0.412277 0.585726 0
539 1 0.426734 0.568907 0
540 1 0.441557 0.550948 0
569 1 0.446523 0.5751 0
1441 1 0.460984 0.556762 0
1413 1 0.497004 0.546128 0
1443 1 0.487231 0.587749 0
1442 1 0.466297 0.581705 0
1412 1 0.481356 0.564367 0
1439 1 0.0199784 0.595453 0
1440 1 0.0198924 0.620771 0
1773 1 0.48132 0.971512 0
514 1 0.0756319 0.588819 0
511 1 0.0405202 0.601399 0
541 1 0.0470068 0.625017 0
512 1 0.0608745 0.607626 0
542 1 0.0662347 0.631612 0
543 1 0.0820555 0.614459 0
545 1 0.0962533 0.596842 0
546 1 0.1023 0.622087 0
516 1 0.116648 0.604023 0
519 1 0.151585 0.593037 0
547 1 0.122048 0.628139 0
518 1 0.136524 0.61003 0
577 1 0.141418 0.635226 0
548 1 0.156698 0.616288 0
520 1 0.171436 0.599615 0
549 1 0.176441 0.623499 0
522 1 0.191264 0.605343 0
551 1 0.197048 0.630281 0
553 1 0.211516 0.612319 0
524 1 0.226987 0.595141 0
552 1 0.217823 0.636028 0
554 1 0.232626 0.618909 0
555 1 0.246866 0.60101 0
556 1 0.252022 0.625434 0
557 1 0.266796 0.607612 0
558 1 0.286487 0.614342 0
587 1 0.272844 0.632142 0
559 1 0.301912 0.596775 0
560 1 0.307778 0.62049 0
561 1 0.322475 0.602653 0
591 1 0.327456 0.627084 0
562 1 0.341988 0.610361 0
565 1 0.363093 0.615567 0
536 1 0.377506 0.597099 0
564 1 0.347903 0.634112 0
566 1 0.382947 0.622289 0
567 1 0.39772 0.603958 0
597 1 0.403427 0.629183 0
568 1 0.417448 0.611003 0
599 1 0.423099 0.636033 0
538 1 0.431978 0.592933 0
600 1 0.43779 0.61778 0
570 1 0.451959 0.600145 0
1501 1 0.457954 0.623998 0
1471 1 0.472624 0.605994 0
1472 1 0.478318 0.63059 0
1473 1 0.49257 0.613621 0
1529 1 0.00675782 0.673239 0
1470 1 0.0323992 0.642573 0
1500 1 0.0272074 0.666557 0
1499 1 0.0120367 0.649334 0
571 1 0.0520616 0.649719 0
572 1 0.0586278 0.675038 0
573 1 0.0730218 0.656177 0
544 1 0.0868603 0.63861 0
574 1 0.0925471 0.663241 0
575 1 0.107599 0.646381 0
605 1 0.112771 0.670757 0
576 1 0.127121 0.653232 0
607 1 0.132384 0.677413 0
578 1 0.148536 0.659581 0
579 1 0.162422 0.641573 0
609 1 0.167847 0.666602 0
550 1 0.183202 0.648736 0
580 1 0.188178 0.672997 0
581 1 0.20361 0.655456 0
582 1 0.223006 0.660888 0
611 1 0.209404 0.679384 0
583 1 0.237393 0.642758 0
584 1 0.243106 0.667324 0
585 1 0.256952 0.649066 0
615 1 0.263299 0.673225 0
586 1 0.277621 0.65551 0
589 1 0.292897 0.637706 0
588 1 0.298701 0.662116 0
617 1 0.283673 0.680044 0
590 1 0.313408 0.644912 0
621 1 0.318642 0.66941 0
593 1 0.333064 0.652081 0
592 1 0.338702 0.675906 0
594 1 0.352923 0.658634 0
595 1 0.368153 0.639468 0
625 1 0.374155 0.664706 0
596 1 0.388189 0.646177 0
627 1 0.394307 0.671154 0
598 1 0.407938 0.653354 0
657 1 0.413876 0.677895 0
628 1 0.428418 0.65918 0
629 1 0.444142 0.641505 0
630 1 0.44968 0.666247 0
1503 1 0.483753 0.654948 0
1502 1 0.463822 0.647681 0
1533 1 0.469596 0.672461 0
1504 1 0.489423 0.679282 0
1474 1 0.498971 0.638381 0
1559 1 0.00129039 0.69773 0
1530 1 0.0213622 0.691234 0
1560 1 0.0167398 0.714175 0
631 1 0.0366001 0.7087 0
601 1 0.0412542 0.685253 0
603 1 0.077756 0.681913 0
602 1 0.0582262 0.700523 0
632 1 0.0520428 0.724307 0
633 1 0.0795536 0.707131 0
604 1 0.0972458 0.688081 0
635 1 0.102475 0.712991 0
606 1 0.117732 0.694812 0
608 1 0.151822 0.684257 0
636 1 0.122069 0.719311 0
637 1 0.137744 0.701591 0
667 1 0.142417 0.72593 0
638 1 0.157921 0.708423 0
639 1 0.172009 0.69181 0
641 1 0.178866 0.715824 0
610 1 0.192741 0.69706 0
642 1 0.199049 0.721613 0
612 1 0.213714 0.703863 0
613 1 0.22875 0.685465 0
643 1 0.234052 0.70959 0
614 1 0.249003 0.692042 0
645 1 0.25398 0.715967 0
616 1 0.269108 0.698769 0
647 1 0.273569 0.723254 0
618 1 0.2891 0.705668 0
619 1 0.303149 0.687144 0
620 1 0.309285 0.711328 0
622 1 0.323891 0.693351 0
651 1 0.328809 0.718853 0
653 1 0.343839 0.701197 0
623 1 0.358519 0.683267 0
624 1 0.364756 0.706736 0
626 1 0.378983 0.689176 0
654 1 0.348975 0.725416 0
655 1 0.383959 0.713432 0
656 1 0.398976 0.694929 0
686 1 0.404376 0.719859 0
658 1 0.41918 0.701603 0
659 1 0.433966 0.683993 0
660 1 0.438944 0.709035 0
1531 1 0.453968 0.690272 0
1561 1 0.459532 0.714578 0
1532 1 0.474294 0.696766 0
1563 1 0.479744 0.721153 0
1534 1 0.494045 0.703967 0
1619 1 0.00556358 0.763026 0
1589 1 0.0110321 0.738096 0
661 1 0.030791 0.73209 0
1590 1 0.0253419 0.756627 0
663 1 0.0457372 0.749314 0
662 1 0.0610528 0.766787 0
664 1 0.0656575 0.742847 0
695 1 0.0814252 0.757973 0
634 1 0.0866219 0.732261 0
665 1 0.106468 0.737861 0
697 1 0.115225 0.76808 0
666 1 0.127121 0.743457 0
668 1 0.135695 0.766602 0
669 1 0.14941 0.749662 0
640 1 0.163648 0.73227 0
670 1 0.169403 0.757001 0
671 1 0.184269 0.739403 0
672 1 0.190883 0.762948 0
644 1 0.219748 0.727333 0
673 1 0.205001 0.745138 0
674 1 0.224318 0.752436 0
703 1 0.210249 0.77016 0
675 1 0.239327 0.733982 0
705 1 0.244839 0.758303 0
646 1 0.259635 0.741308 0
677 1 0.265565 0.765118 0
648 1 0.280719 0.747128 0
649 1 0.294777 0.729743 0
679 1 0.30015 0.75416 0
650 1 0.314773 0.736879 0
681 1 0.320081 0.761424 0
652 1 0.334795 0.743484 0
682 1 0.339925 0.768852 0
683 1 0.355163 0.750121 0
685 1 0.368938 0.731409 0
684 1 0.374971 0.756059 0
715 1 0.389134 0.73806 0
714 1 0.395434 0.762711 0
717 1 0.4094 0.744604 0
716 1 0.414876 0.769009 0
687 1 0.424326 0.72601 0
688 1 0.430074 0.750801 0
689 1 0.444218 0.733117 0
719 1 0.449648 0.756941 0
690 1 0.464899 0.739237 0
1591 1 0.470403 0.762564 0
1562 1 0.484824 0.744999 0
1593 1 0.490062 0.769599 0
1618 1 -0.000197083 0.787432 0
721 1 0.0354168 0.79857 0
1620 1 0.0197474 0.781473 0
1649 1 0.0147684 0.805362 0
691 1 0.0401596 0.773748 0
693 1 0.0554441 0.791273 0
723 1 0.0698839 0.807885 0
692 1 0.0501917 0.815648 0
694 1 0.0755525 0.784657 0
725 1 0.0909153 0.802355 0
696 1 0.095496 0.778435 0
727 1 0.110719 0.793742 0
728 1 0.12579 0.813331 0
698 1 0.130744 0.790083 0
700 1 0.146058 0.805521 0
699 1 0.154755 0.776735 0
731 1 0.166231 0.800448 0
701 1 0.176899 0.780128 0
732 1 0.18127 0.816155 0
702 1 0.195989 0.788334 0
763 1 0.201397 0.8128 0
733 1 0.216232 0.795604 0
704 1 0.229904 0.776514 0
706 1 0.235769 0.800458 0
676 1 0.25076 0.782648 0
737 1 0.255441 0.806918 0
707 1 0.271264 0.790479 0
678 1 0.285177 0.771571 0
738 1 0.27624 0.814034 0
708 1 0.291605 0.796483 0
709 1 0.305721 0.778833 0
710 1 0.311045 0.803509 0
680 1 0.325719 0.787063 0
741 1 0.332019 0.810199 0
711 1 0.346399 0.792216 0
713 1 0.361041 0.774449 0
712 1 0.366468 0.798218 0
743 1 0.381778 0.780466 0
742 1 0.352176 0.817036 0
745 1 0.385799 0.805357 0
746 1 0.400997 0.786937 0
775 1 0.406653 0.812485 0
747 1 0.420431 0.794261 0
718 1 0.435258 0.774906 0
749 1 0.441462 0.799574 0
720 1 0.456018 0.780956 0
1621 1 0.461487 0.806041 0
1623 1 0.495607 0.795204 0
1592 1 0.475746 0.787767 0
1622 1 0.482245 0.813642 0
1650 1 0.0301653 0.824364 0
1709 1 0.0247427 0.847317 0
1679 1 0.00990096 0.829874 0
1678 1 0.00464947 0.854248 0
1680 1 0.0451522 0.841255 0
752 1 0.0598095 0.85826 0
751 1 0.0650307 0.833508 0
753 1 0.0800556 0.850246 0
722 1 0.084621 0.825791 0
726 1 0.105768 0.819075 0
724 1 0.10079 0.843678 0
755 1 0.115144 0.861258 0
757 1 0.121001 0.837886 0
756 1 0.135535 0.855044 0
729 1 0.14135 0.830802 0
759 1 0.156082 0.848345 0
730 1 0.160922 0.824882 0
761 1 0.176453 0.840782 0
792 1 0.192287 0.857298 0
735 1 0.221415 0.820388 0
762 1 0.20616 0.83764 0
734 1 0.226416 0.843873 0
764 1 0.212075 0.862013 0
736 1 0.241818 0.825475 0
765 1 0.246475 0.850174 0
767 1 0.261801 0.832128 0
766 1 0.266942 0.856632 0
768 1 0.282303 0.838946 0
739 1 0.296387 0.821017 0
769 1 0.301891 0.84623 0
797 1 0.286979 0.863315 0
740 1 0.315957 0.828503 0
770 1 0.323014 0.852344 0
771 1 0.3374 0.834271 0
801 1 0.342494 0.858925 0
773 1 0.358301 0.841637 0
744 1 0.37194 0.823361 0
803 1 0.37794 0.847982 0
774 1 0.392543 0.829708 0
776 1 0.398349 0.854567 0
777 1 0.412861 0.837307 0
778 1 0.418455 0.862408 0
748 1 0.427186 0.818343 0
779 1 0.433108 0.843996 0
750 1 0.447409 0.82543 0
780 1 0.453203 0.849892 0
1651 1 0.467003 0.831471 0
1652 1 0.473022 0.85593 0
1653 1 0.487587 0.837859 0
1683 1 0.492913 0.862512 0
1710 1 0.0194511 0.871289 0
811 1 0.0341239 0.889673 0
1739 1 0.0140116 0.896141 0
1708 1 -0.000999268 0.879332 0
781 1 0.0399796 0.865395 0
782 1 0.0545399 0.882892 0
813 1 0.069312 0.899631 0
783 1 0.0749047 0.87542 0
812 1 0.0496712 0.905978 0
784 1 0.0894392 0.892921 0
754 1 0.0944601 0.868542 0
785 1 0.109496 0.886089 0
786 1 0.124782 0.902933 0
787 1 0.129524 0.879216 0
788 1 0.144949 0.896127 0
758 1 0.15055 0.872233 0
760 1 0.171909 0.866202 0
789 1 0.166104 0.889153 0
791 1 0.187721 0.881949 0
790 1 0.180592 0.906577 0
823 1 0.201885 0.902242 0
793 1 0.217448 0.886238 0
795 1 0.232595 0.868287 0
794 1 0.237269 0.893118 0
796 1 0.252557 0.875044 0
825 1 0.258103 0.898201 0
827 1 0.272664 0.881805 0
798 1 0.293138 0.887327 0
826 1 0.278959 0.905271 0
799 1 0.308656 0.86999 0
829 1 0.31298 0.893981 0
800 1 0.328629 0.876666 0
831 1 0.333394 0.901839 0
802 1 0.347837 0.884108 0
772 1 0.362404 0.865767 0
804 1 0.367626 0.890657 0
805 1 0.382901 0.873255 0
833 1 0.353625 0.907727 0
806 1 0.388461 0.897772 0
807 1 0.402832 0.879644 0
837 1 0.40906 0.903813 0
808 1 0.423357 0.887201 0
809 1 0.438195 0.86806 0
810 1 0.443831 0.893037 0
1681 1 0.45848 0.873641 0
1711 1 0.463626 0.898486 0
1682 1 0.478409 0.880743 0
1713 1 0.483702 0.904824 0
1684 1 0.498999 0.887349 0
1740 1 0.0293422 0.914022 0
1769 1 0.0239956 0.938962 0
1738 1 0.0101438 0.920471 0
1768 1 0.00446986 0.946913 0
841 1 0.044161 0.932008 0
842 1 0.0600024 0.94914 0
843 1 0.064406 0.924511 0
844 1 0.07921 0.941308 0
814 1 0.0839027 0.916706 0
815 1 0.104292 0.909695 0
845 1 0.0993944 0.933508 0
846 1 0.11416 0.95235 0
816 1 0.120025 0.927721 0
847 1 0.135087 0.945138 0
817 1 0.140043 0.920346 0
818 1 0.154465 0.937657 0
819 1 0.159808 0.912999 0
820 1 0.174276 0.930997 0
851 1 0.189198 0.948574 0
821 1 0.194719 0.924946 0
824 1 0.222597 0.910628 0
822 1 0.209844 0.941906 0
853 1 0.229953 0.934044 0
855 1 0.244099 0.917038 0
854 1 0.249996 0.941499 0
856 1 0.263971 0.923666 0
885 1 0.269737 0.948011 0
857 1 0.284317 0.929901 0
828 1 0.299163 0.912423 0
859 1 0.305153 0.936804 0
830 1 0.319669 0.919508 0
860 1 0.325263 0.944526 0
832 1 0.339461 0.92671 0
861 1 0.345081 0.951276 0
863 1 0.359321 0.933154 0
834 1 0.373745 0.9148 0
865 1 0.379153 0.939505 0
835 1 0.393861 0.921022 0
836 1 0.400107 0.945395 0
838 1 0.414904 0.928254 0
867 1 0.421065 0.952542 0
839 1 0.429535 0.911436 0
869 1 0.435238 0.93466 0
840 1 0.449505 0.916735 0
1741 1 0.455156 0.940899 0
1743 1 0.490368 0.92963 0
1712 1 0.469408 0.922688 0
1742 1 0.475369 0.947207 0
1744 1 0.496165 0.955108 0
1799 1 0.0198047 0.963452 0
1800 1 0.0340541 0.980517 0
1798 1 0.0143099 0.987951 0
1 1 0.049127 0.997972 0
1770 1 0.0397814 0.956727 0
871 1 0.0547699 0.972835 0
872 1 0.0692439 0.989938 0
873 1 0.0748754 0.965574 0
874 1 0.0890755 0.983189 0
875 1 0.0943774 0.958929 0
876 1 0.109156 0.977214 0
7 1 0.124389 0.995036 0
877 1 0.129177 0.97042 0
878 1 0.143995 0.988436 0
848 1 0.14927 0.963105 0
849 1 0.169778 0.955622 0
879 1 0.164465 0.98029 0
850 1 0.183983 0.973357 0
881 1 0.180053 0.997765 0
11 1 0.198843 0.990171 0
852 1 0.204549 0.966131 0
883 1 0.225537 0.958431 0
882 1 0.219137 0.982659 0
884 1 0.238746 0.977591 0
886 1 0.255788 0.965459 0
16 1 0.258992 0.989998 0
887 1 0.28993 0.955102 0
17 1 0.275206 0.973047 0
888 1 0.295843 0.978707 0
18 1 0.28126 0.997125 0
858 1 0.310533 0.961857 0
889 1 0.315828 0.987564 0
891 1 0.330726 0.969414 0
890 1 0.336684 0.99375 0
862 1 0.350354 0.976185 0
864 1 0.366178 0.958631 0
893 1 0.371513 0.98308 0
1565 1 0.500001 0.72857 0
895 1 0.386672 0.965286 0
896 1 0.391925 0.989857 0
866 1 0.406127 0.971089 0
897 1 0.41281 0.995754 0
870 1 0.441316 0.959966 0
868 1 0.426752 0.977325 0
899 1 0.446914 0.983564 0
1771 1 0.460733 0.965757 0
903 1 0.486074 0.997683 0
1772 1 0.466658 0.990359 0
904 1 0.513127 0.0291989 0
905 1 0.506785 0.00347745 0
906 1 0.527359 0.0110355 0
935 1 0.533133 0.0357599 0
908 1 0.547723 0.0170427 0
937 1 0.553381 0.0415272 0
939 1 0.568558 0.0231511 0
938 1 0.574343 0.0469544 0
940 1 0.588454 0.0272853 0
941 1 0.582977 0.00320434 0
942 1 0.784362 0.0226126 0
943 1 0.804943 0.0154061 0
944 1 0.79935 0.0402391 0
945 1 0.819717 0.0335166 0
914 1 0.825164 0.00899098 0
947 1 0.840338 0.0279129 0
916 1 0.845194 0.00303828 0
918 1 0.859868 0.020405 0
949 1 0.87364 0.0387121 0
919 1 0.878809 0.0135261 0
948 1 0.854484 0.0460903 0
920 1 0.8936 0.0315443 0
1790 1 0.899851 0.00599129 0
951 1 0.913854 0.0242949 0
952 1 0.929827 0.0419783 0
922 1 0.933499 0.0168691 0
953 1 0.94926 0.0347133 0
924 1 0.953735 0.0101028 0
955 1 0.969132 0.027648 0
925 1 0.97411 0.00203627 0
926 1 0.989122 0.0194666 0
956 1 0.983829 0.0447152 0
963 1 0.503834 0.0712323 0
934 1 0.518815 0.0537784 0
965 1 0.523804 0.0777311 0
936 1 0.539111 0.0602874 0
966 1 0.544465 0.0845557 0
967 1 0.559721 0.0657918 0
968 1 0.564791 0.0915069 0
969 1 0.581265 0.0708877 0
971 1 0.777907 0.0464338 0
970 1 0.773498 0.070895 0
973 1 0.793556 0.064154 0
972 1 0.786627 0.0893902 0
1003 1 0.808015 0.0826887 0
975 1 0.81449 0.0578947 0
974 1 0.829024 0.0769553 0
946 1 0.834426 0.051524 0
976 1 0.848506 0.070868 0
977 1 0.869041 0.0633144 0
1007 1 0.864358 0.0882439 0
978 1 0.883901 0.0808579 0
979 1 0.888878 0.0555013 0
950 1 0.909303 0.0478243 0