ITEM: TIMESTEP
447000
ITEM: NUMBER OF ATOMS
1800
ITEM: BOX BOUNDS pp pp pp
-1.6818684368605251e+01 1.8181868436860717e+02
1.1826529217466231e+00 1.6381734707825530e+02
0.0000000000000000e+00 5.5000000000000000e+00
ITEM: ATOMS id type xs ys zs
929 1 0.0346554 0.00686036 0
959 1 0.0294517 0.0309503 0
928 1 0.0146588 0.013365 0
957 1 0.00923824 0.0387638 0
930 1 0.049363 0.0238773 0
31 1 0.0630708 0.0412589 0
2 1 0.0687544 0.0174221 0
33 1 0.0830133 0.0337925 0
3 1 0.0887547 0.0102136 0
4 1 0.103389 0.0264535 0
5 1 0.108326 0.0020462 0
6 1 0.123046 0.0201802 0
37 1 0.137802 0.037022 0
35 1 0.117251 0.0433742 0
8 1 0.141973 0.0123526 0
39 1 0.156719 0.0298669 0
880 1 0.161114 0.00507995 0
9 1 0.17644 0.023044 0
40 1 0.191033 0.0397 0
10 1 0.196436 0.0161112 0
41 1 0.211324 0.0326942 0
12 1 0.216376 0.00838785 0
14 1 0.231307 0.0258718 0
13 1 0.235902 0.00238743 0
45 1 0.245584 0.043271 0
15 1 0.249925 0.0184599 0
46 1 0.270072 0.0168822 0
77 1 0.274055 0.0411296 0
47 1 0.289552 0.0235671 0
19 1 0.302098 0.00509344 0
49 1 0.308097 0.0292147 0
20 1 0.321653 0.0109287 0
51 1 0.327971 0.0360072 0
21 1 0.341449 0.0174669 0
22 1 0.347545 0.0421892 0
23 1 0.362216 0.0240616 0
894 1 0.375051 0.00545872 0
24 1 0.381477 0.0306444 0
25 1 0.394441 0.0106988 0
26 1 0.401104 0.0355788 0
27 1 0.41479 0.0174397 0
28 1 0.420822 0.0432677 0
29 1 0.434271 0.02464 0
900 1 0.449377 0.00736891 0
30 1 0.45445 0.0320804 0
1352 1 0.482831 0.49763 0
902 1 0.489355 0.0202947 0
901 1 0.469201 0.0143689 0
931 1 0.474764 0.0384545 0
933 1 0.493752 0.044579 0
988 1 0.0198279 0.0808002 0
958 1 0.0240643 0.0556257 0
987 1 0.00450923 0.0632305 0
989 1 0.0389685 0.0726195 0
960 1 0.0440064 0.0482011 0
61 1 0.0583797 0.065517 0
990 1 0.0541335 0.0900736 0
62 1 0.0731885 0.0827926 0
32 1 0.0777375 0.0577944 0
63 1 0.0922706 0.0753171 0
34 1 0.0977388 0.0515348 0
65 1 0.112129 0.0692324 0
66 1 0.12742 0.0855119 0
36 1 0.131603 0.0612192 0
67 1 0.147147 0.0795072 0
38 1 0.151603 0.0551257 0
69 1 0.171438 0.0472256 0
68 1 0.166733 0.0718432 0
71 1 0.185955 0.0640913 0
72 1 0.201765 0.0816551 0
42 1 0.206503 0.0567811 0
70 1 0.181271 0.0877698 0
43 1 0.225603 0.0500397 0
73 1 0.220963 0.0745188 0
44 1 0.241559 0.0679693 0
74 1 0.265158 0.0854319 0
75 1 0.261352 0.061287 0
76 1 0.280439 0.0665835 0
48 1 0.294109 0.0488295 0
79 1 0.299674 0.0728565 0
50 1 0.313624 0.0539569 0
81 1 0.319309 0.0779373 0
52 1 0.333327 0.0599932 0
82 1 0.33848 0.0853448 0
83 1 0.353027 0.0665223 0
53 1 0.367751 0.0487929 0
54 1 0.372513 0.0731378 0
55 1 0.387406 0.0551114 0
56 1 0.392422 0.0790521 0
84 1 0.358146 0.0904918 0
57 1 0.406968 0.0618476 0
87 1 0.411433 0.0861719 0
58 1 0.42664 0.0679141 0
59 1 0.440249 0.0491633 0
89 1 0.44621 0.073434 0
60 1 0.460038 0.0558638 0
932 1 0.479936 0.0626972 0
961 1 0.466156 0.08025 0
962 1 0.485745 0.0871764 0
1047 1 0.00985932 0.130407 0
1019 1 0.0346911 0.0981652 0
1049 1 0.0289907 0.123241 0
1018 1 0.014693 0.105783 0
1020 1 0.0488949 0.115116 0
121 1 0.0636428 0.133234 0
91 1 0.0691783 0.107384 0
92 1 0.0828337 0.125606 0
93 1 0.0882604 0.10042 0
94 1 0.103098 0.11731 0
64 1 0.108362 0.0927593 0
95 1 0.123457 0.110053 0
96 1 0.1374 0.127984 0
125 1 0.117853 0.134651 0
97 1 0.142876 0.103951 0
98 1 0.156789 0.120956 0
99 1 0.162636 0.0965434 0
100 1 0.177056 0.11334 0
130 1 0.192471 0.12953 0
101 1 0.197567 0.105717 0
102 1 0.211705 0.122449 0
105 1 0.23519 0.0912895 0
103 1 0.216463 0.0990754 0
104 1 0.231757 0.116035 0
106 1 0.251093 0.105204 0
78 1 0.285107 0.0903379 0
137 1 0.25589 0.129323 0
107 1 0.270761 0.109766 0
108 1 0.275441 0.133914 0
109 1 0.290014 0.11423 0
80 1 0.305041 0.0964055 0
110 1 0.309468 0.121474 0
111 1 0.323829 0.102906 0
141 1 0.329704 0.12718 0
113 1 0.343776 0.109991 0
143 1 0.349162 0.134018 0
112 1 0.363467 0.11566 0
85 1 0.378245 0.0966003 0
115 1 0.383205 0.122257 0
86 1 0.397001 0.104757 0
116 1 0.402871 0.12776 0
117 1 0.417322 0.110605 0
118 1 0.42306 0.134249 0
88 1 0.431703 0.0923855 0
119 1 0.437422 0.116447 0
90 1 0.451676 0.0979491 0
120 1 0.457153 0.12288 0
991 1 0.470837 0.104947 0
992 1 0.476812 0.130466 0
993 1 0.490837 0.11118 0
1075 1 0.000902522 0.17905 0
1048 1 0.0251074 0.148252 0
1077 1 0.0206832 0.172734 0
1046 1 0.00591336 0.154848 0
1079 1 0.0409236 0.16472 0
1050 1 0.0443783 0.139795 0
151 1 0.060445 0.158934 0
152 1 0.0748599 0.176197 0
122 1 0.0789285 0.150011 0
153 1 0.094399 0.16733 0
123 1 0.0985141 0.14171 0
124 1 0.113184 0.15827 0
155 1 0.127698 0.175001 0
126 1 0.132896 0.151298 0
129 1 0.172341 0.13689 0
157 1 0.14712 0.167969 0
127 1 0.152896 0.145186 0
128 1 0.167959 0.162219 0
159 1 0.187791 0.15294 0
132 1 0.193171 0.176786 0
131 1 0.207299 0.157761 0
133 1 0.223372 0.141104 0
134 1 0.227026 0.165373 0
135 1 0.242286 0.147951 0
165 1 0.247137 0.171169 0
136 1 0.262084 0.153167 0
167 1 0.267226 0.176312 0
138 1 0.281966 0.157902 0
139 1 0.295507 0.140061 0
169 1 0.301131 0.163895 0
140 1 0.315519 0.145408 0
171 1 0.321194 0.170069 0
142 1 0.335149 0.150995 0
172 1 0.340581 0.176369 0
173 1 0.355049 0.15866 0
114 1 0.36886 0.141272 0
144 1 0.37502 0.164568 0
145 1 0.389216 0.1458 0
146 1 0.394335 0.170682 0
147 1 0.409042 0.15225 0
177 1 0.414478 0.176343 0
148 1 0.428808 0.158969 0
149 1 0.443117 0.140117 0
150 1 0.448173 0.165 0
1021 1 0.462907 0.148296 0
1023 1 0.497676 0.137341 0
1051 1 0.468194 0.173308 0
1022 1 0.482771 0.155547 0
1053 1 0.488963 0.179495 0
1076 1 0.0154776 0.196595 0
1107 1 0.0337398 0.213439 0
1106 1 0.0120847 0.221733 0
1078 1 0.0353394 0.189195 0
1080 1 0.0547114 0.182715 0
1109 1 0.0547735 0.217664 0
181 1 0.0694903 0.200287 0
182 1 0.075504 0.224168 0
183 1 0.0899154 0.205783 0
154 1 0.108673 0.186033 0
185 1 0.109647 0.214342 0
156 1 0.125748 0.198946 0
186 1 0.130208 0.222793 0
158 1 0.145784 0.204772 0
160 1 0.160504 0.18688 0
189 1 0.1649 0.212135 0
161 1 0.179306 0.194785 0
163 1 0.212254 0.18207 0
191 1 0.184452 0.219258 0
162 1 0.198786 0.200696 0
192 1 0.203958 0.224996 0
193 1 0.21825 0.206869 0
164 1 0.232433 0.188477 0
195 1 0.23848 0.212445 0
166 1 0.252788 0.194966 0
196 1 0.259078 0.217954 0
197 1 0.272625 0.199393 0
198 1 0.278494 0.224335 0
168 1 0.28676 0.181852 0
199 1 0.292493 0.206092 0
170 1 0.307146 0.188635 0
200 1 0.312779 0.213576 0
201 1 0.327143 0.195573 0
202 1 0.332119 0.219699 0
203 1 0.346825 0.20025 0
233 1 0.351815 0.225607 0
174 1 0.361185 0.182954 0
204 1 0.366233 0.207465 0
175 1 0.380193 0.18846 0
205 1 0.38619 0.213958 0
176 1 0.399863 0.194973 0
207 1 0.405528 0.220116 0
178 1 0.419868 0.201818 0
179 1 0.434232 0.182431 0
209 1 0.439758 0.208774 0
180 1 0.453845 0.190668 0
1081 1 0.45876 0.215683 0
1052 1 0.473449 0.197486 0
1082 1 0.477873 0.222784 0
1083 1 0.493758 0.203963 0
1108 1 0.026259 0.254123 0
1137 1 0.0114261 0.272327 0
1136 1 0.00685048 0.246315 0
1110 1 0.0405791 0.235668 0
1140 1 0.0461192 0.260863 0
211 1 0.0600548 0.241714 0
212 1 0.0661093 0.266931 0
213 1 0.0804236 0.248361 0
184 1 0.0953347 0.231566 0
214 1 0.0998316 0.255973 0
215 1 0.115053 0.239467 0
216 1 0.119812 0.263477 0
217 1 0.135313 0.246825 0
218 1 0.140487 0.270931 0
187 1 0.1499 0.228866 0
188 1 0.155196 0.253737 0
190 1 0.169118 0.236558 0
220 1 0.174877 0.260331 0
221 1 0.189663 0.242805 0
222 1 0.194307 0.26615 0
223 1 0.208878 0.249142 0
253 1 0.213587 0.272108 0
194 1 0.223634 0.231247 0
224 1 0.228867 0.254488 0
225 1 0.243087 0.237027 0
226 1 0.248429 0.26127 0
227 1 0.263472 0.24235 0
257 1 0.268294 0.267768 0
228 1 0.283161 0.248806 0
229 1 0.298304 0.230693 0
230 1 0.303256 0.255128 0
231 1 0.318566 0.237857 0
261 1 0.32264 0.262639 0
232 1 0.337894 0.244269 0
263 1 0.34276 0.267733 0
234 1 0.357076 0.25051 0
235 1 0.372108 0.23185 0
265 1 0.376845 0.256812 0
206 1 0.391139 0.238467 0
208 1 0.425961 0.226287 0
236 1 0.397349 0.262613 0
237 1 0.411384 0.244224 0
238 1 0.416325 0.269078 0
239 1 0.430862 0.250556 0
210 1 0.445171 0.233377 0
240 1 0.450198 0.257603 0
1111 1 0.465419 0.240923 0
1112 1 0.470042 0.265418 0
1113 1 0.484421 0.247405 0
1084 1 0.498754 0.229696 0
1142 1 0.489992 0.271878 0
1138 1 0.0171698 0.296603 0
1139 1 0.0315275 0.278421 0
1197 1 0.00213489 0.313413 0
1169 1 0.0369752 0.303858 0
241 1 0.0516451 0.286136 0
271 1 0.0563981 0.310411 0
242 1 0.071165 0.292743 0
243 1 0.0849359 0.274481 0
273 1 0.0760899 0.317082 0
244 1 0.0906162 0.298786 0
245 1 0.104751 0.280566 0
246 1 0.109893 0.305324 0
247 1 0.124866 0.287734 0
248 1 0.129755 0.31354 0
249 1 0.144784 0.295662 0
219 1 0.160211 0.278151 0
250 1 0.164797 0.302763 0
251 1 0.180524 0.284536 0
281 1 0.18493 0.308902 0
252 1 0.200113 0.2905 0
283 1 0.203947 0.314997 0
254 1 0.219558 0.297422 0
255 1 0.233538 0.278909 0
285 1 0.239137 0.303083 0
256 1 0.253497 0.285138 0
287 1 0.2585 0.309054 0
258 1 0.273242 0.29111 0
288 1 0.278987 0.315019 0
259 1 0.287966 0.273376 0
289 1 0.293966 0.297206 0
260 1 0.307894 0.279628 0
291 1 0.314488 0.303127 0
262 1 0.329148 0.286139 0
292 1 0.333665 0.31186 0
293 1 0.348723 0.293401 0
294 1 0.353962 0.316636 0
264 1 0.361895 0.274797 0
295 1 0.368955 0.298982 0
266 1 0.382946 0.280753 0
297 1 0.387829 0.305181 0
267 1 0.402657 0.286535 0
298 1 0.406788 0.311428 0
268 1 0.422436 0.293676 0
269 1 0.436808 0.276751 0
270 1 0.441979 0.300508 0
1141 1 0.45591 0.283548 0
300 1 0.461025 0.30746 0
1171 1 0.476426 0.2905 0
1172 1 0.480737 0.31498 0
1173 1 0.495277 0.296428 0
1168 1 0.0225372 0.321457 0
1199 1 0.026742 0.346293 0
1198 1 0.00775547 0.338046 0
1228 1 0.0119034 0.363816 0
1170 1 0.0425939 0.327961 0
1229 1 0.0474135 0.352899 0
1200 1 0.0614922 0.334954 0
301 1 0.0670727 0.359394 0
272 1 0.0813685 0.341847 0
275 1 0.0958926 0.324085 0
274 1 0.101099 0.349298 0
276 1 0.114364 0.331343 0
305 1 0.120838 0.356104 0
277 1 0.134876 0.338038 0
307 1 0.140832 0.361767 0
279 1 0.149683 0.320251 0
278 1 0.155354 0.343768 0
280 1 0.170444 0.326248 0
311 1 0.174546 0.350523 0
282 1 0.189572 0.333699 0
312 1 0.194939 0.357929 0
313 1 0.209509 0.340119 0
314 1 0.215617 0.363356 0
284 1 0.22372 0.320682 0
315 1 0.229893 0.344823 0
286 1 0.244636 0.327364 0
316 1 0.249658 0.352046 0
317 1 0.264054 0.333397 0
318 1 0.269489 0.358297 0
319 1 0.283653 0.339825 0
290 1 0.298706 0.321291 0
320 1 0.303815 0.345723 0
321 1 0.318863 0.328517 0
322 1 0.323367 0.35259 0
323 1 0.33873 0.335915 0
324 1 0.342904 0.360735 0
325 1 0.358379 0.341343 0
296 1 0.37294 0.323887 0
326 1 0.377448 0.349354 0
327 1 0.392548 0.330602 0
299 1 0.426846 0.31783 0
328 1 0.397426 0.35475 0
329 1 0.412963 0.336105 0
358 1 0.417241 0.360593 0
359 1 0.431963 0.34341 0
330 1 0.446851 0.325375 0
360 1 0.451602 0.350811 0
1202 1 0.485911 0.338634 0
1201 1 0.466558 0.33314 0
1231 1 0.472008 0.357094 0
1233 1 0.49114 0.363114 0
1353 1 0.477443 0.472283 0
1287 1 0.00272861 0.405904 0
1259 1 0.0325631 0.369899 0
1258 1 0.0175909 0.388356 0
1260 1 0.037532 0.394529 0
1230 1 0.0520577 0.377669 0
331 1 0.0575323 0.4027 0
302 1 0.0722207 0.383376 0
303 1 0.0862834 0.366482 0
332 1 0.0773456 0.408667 0
333 1 0.0915886 0.390643 0
304 1 0.105873 0.373457 0
335 1 0.110811 0.397565 0
306 1 0.126146 0.37962 0
337 1 0.131656 0.403653 0
308 1 0.145645 0.385756 0
309 1 0.160586 0.367928 0
339 1 0.16542 0.391908 0
310 1 0.180353 0.375365 0
341 1 0.185489 0.399438 0
343 1 0.20061 0.381912 0
342 1 0.204415 0.406422 0
344 1 0.22099 0.38844 0
345 1 0.235101 0.370157 0
346 1 0.240929 0.394046 0
347 1 0.255328 0.37597 0
377 1 0.259672 0.401882 0
348 1 0.275253 0.382443 0
378 1 0.279626 0.406964 0
349 1 0.289345 0.363827 0
350 1 0.294478 0.387723 0
351 1 0.308676 0.370775 0
381 1 0.313472 0.395907 0
353 1 0.328885 0.378054 0
352 1 0.333463 0.403099 0
354 1 0.348425 0.384945 0
355 1 0.362778 0.366856 0
356 1 0.367981 0.39035 0
357 1 0.382421 0.373216 0
386 1 0.387146 0.397624 0
387 1 0.401423 0.379437 0
388 1 0.4073 0.404096 0
389 1 0.422076 0.385394 0
1232 1 0.437532 0.368205 0
1261 1 0.441715 0.392802 0
1262 1 0.45649 0.37502 0
1293 1 0.461416 0.399611 0
1263 1 0.476033 0.381798 0
1294 1 0.480664 0.405958 0
1264 1 0.495523 0.388505 0
1289 1 0.0224049 0.412838 0
1319 1 0.0276599 0.437254 0
1288 1 0.00735048 0.43032 0
1318 1 0.0121846 0.456185 0
1290 1 0.0421474 0.419299 0
391 1 0.0486537 0.444763 0
361 1 0.0630293 0.427172 0
362 1 0.0684933 0.45091 0
363 1 0.0826977 0.433022 0
334 1 0.0971932 0.415205 0
365 1 0.102593 0.440515 0
336 1 0.116777 0.421963 0
366 1 0.121908 0.446356 0
367 1 0.136113 0.428432 0
368 1 0.142674 0.451671 0
338 1 0.151737 0.410152 0
369 1 0.156301 0.433738 0
340 1 0.17101 0.416489 0
370 1 0.17641 0.441261 0
371 1 0.191243 0.425108 0
401 1 0.196731 0.448742 0
372 1 0.21126 0.430301 0
373 1 0.225335 0.412882 0
374 1 0.230663 0.436785 0
375 1 0.245038 0.418994 0
403 1 0.216956 0.455521 0
405 1 0.250587 0.443723 0
376 1 0.265049 0.426332 0
407 1 0.269645 0.451627 0
409 1 0.284884 0.432443 0
379 1 0.298713 0.413814 0
380 1 0.304397 0.437887 0
382 1 0.318761 0.4198 0
385 1 0.353873 0.409819 0
413 1 0.323666 0.444506 0
383 1 0.33885 0.427668 0
412 1 0.343677 0.451074 0
414 1 0.358209 0.4339 0
384 1 0.373 0.416154 0
415 1 0.378776 0.440396 0
417 1 0.392447 0.42122 0
416 1 0.397892 0.446149 0
418 1 0.41248 0.42843 0
419 1 0.426715 0.410201 0
447 1 0.418087 0.453119 0
390 1 0.432203 0.434906 0
1291 1 0.446408 0.417374 0
1321 1 0.451847 0.442017 0
1323 1 0.485657 0.430169 0
1292 1 0.466582 0.423738 0
1322 1 0.4713 0.447814 0
1324 1 0.491675 0.45483 0
1320 1 0.0323716 0.461217 0
1349 1 0.0190905 0.479089 0
1379 1 0.00423234 0.496595 0
421 1 0.03897 0.48528 0
392 1 0.0539593 0.469057 0
422 1 0.0582315 0.492957 0
393 1 0.073309 0.475579 0
364 1 0.0882836 0.458045 0
394 1 0.0931506 0.482181 0
1354 1 0.4966 0.479185 0
395 1 0.108125 0.464669 0
396 1 0.1127 0.488144 0
397 1 0.12792 0.470193 0
427 1 0.132488 0.494091 0
398 1 0.147818 0.476965 0
399 1 0.161919 0.458366 0
429 1 0.166648 0.481972 0
400 1 0.181563 0.464887 0
431 1 0.186588 0.489054 0
402 1 0.200899 0.472675 0
432 1 0.206317 0.496262 0
433 1 0.221003 0.479362 0
404 1 0.236407 0.461928 0
435 1 0.241151 0.485878 0
439 1 0.281306 0.499017 0
406 1 0.255973 0.468636 0
436 1 0.26101 0.492556 0
408 1 0.27613 0.475076 0
410 1 0.29013 0.456873 0
441 1 0.295744 0.481409 0
411 1 0.309419 0.462936 0
440 1 0.315764 0.486623 0
442 1 0.329992 0.46805 0
471 1 0.335136 0.493762 0
473 1 0.34969 0.47656 0
443 1 0.363946 0.458295 0
444 1 0.369899 0.482707 0
445 1 0.384425 0.464284 0
475 1 0.388883 0.488817 0
446 1 0.404627 0.471986 0
477 1 0.408299 0.496161 0
448 1 0.423437 0.477793 0
449 1 0.44351 0.483882 0
420 1 0.437994 0.459702 0
1351 1 0.462601 0.489537 0
450 1 0.457729 0.465489 0
1 1 0.0544283 -0.000599961 0
1380 1 0.0282943 0.527778 0
1350 1 0.0244003 0.50276 0
1409 1 0.0136763 0.545189 0
451 1 0.0446012 0.511592 0
452 1 0.0486696 0.536448 0
453 1 0.0640652 0.518018 0
454 1 0.0691149 0.541604 0
424 1 0.0838467 0.524062 0
425 1 0.0975556 0.50652 0
455 1 0.103606 0.531174 0
426 1 0.117731 0.512511 0
456 1 0.124065 0.537421 0
457 1 0.137895 0.518327 0
458 1 0.14368 0.543544 0
459 1 0.157697 0.52529 0
430 1 0.172198 0.50661 0
460 1 0.177407 0.531068 0
428 1 0.152372 0.500986 0
461 1 0.192743 0.513782 0
462 1 0.198084 0.538714 0
463 1 0.212274 0.520577 0
434 1 0.227234 0.503331 0
464 1 0.232345 0.527875 0
465 1 0.246668 0.509973 0
466 1 0.251932 0.534299 0
437 1 0.267003 0.517046 0
497 1 0.270982 0.541935 0
467 1 0.285679 0.524059 0
438 1 0.301165 0.506452 0
468 1 0.306094 0.530642 0
469 1 0.320759 0.51144 0
499 1 0.32671 0.535288 0
470 1 0.340595 0.517989 0
501 1 0.346094 0.542862 0
472 1 0.355308 0.499875 0
503 1 0.36046 0.52534 0
474 1 0.375223 0.506751 0
505 1 0.380631 0.531114 0
476 1 0.394315 0.514014 0
506 1 0.400692 0.537874 0
507 1 0.414531 0.519541 0
509 1 0.420348 0.544725 0
478 1 0.428727 0.501619 0
480 1 0.434093 0.526454 0
479 1 0.44832 0.508634 0
510 1 0.454343 0.533303 0
1382 1 0.487684 0.521991 0
1381 1 0.468528 0.514877 0
1411 1 0.474045 0.540205 0
1408 1 0.0181838 0.57075 0
481 1 0.0334727 0.553457 0
1410 1 0.0389421 0.576646 0
483 1 0.0536652 0.559985 0
482 1 0.0588942 0.58384 0
485 1 0.0886719 0.548138 0
513 1 0.0736689 0.566689 0
484 1 0.0933803 0.572896 0
514 1 0.0779914 0.590617 0
486 1 0.108518 0.555396 0
515 1 0.113654 0.579738 0
487 1 0.128543 0.562121 0
517 1 0.134162 0.586487 0
488 1 0.147939 0.567874 0
489 1 0.16291 0.550458 0
490 1 0.167739 0.574638 0
491 1 0.183069 0.556565 0
521 1 0.187265 0.581295 0
492 1 0.202451 0.563725 0
523 1 0.20792 0.588387 0
493 1 0.216911 0.54665 0
494 1 0.223051 0.570468 0
495 1 0.237118 0.551656 0
525 1 0.241735 0.577767 0
496 1 0.256884 0.558907 0
526 1 0.260709 0.583923 0
527 1 0.276506 0.565887 0
528 1 0.281644 0.589387 0
498 1 0.2915 0.548049 0
529 1 0.29683 0.572585 0
500 1 0.311047 0.554319 0
530 1 0.316335 0.578082 0
531 1 0.330863 0.559642 0
532 1 0.335889 0.585191 0
533 1 0.350879 0.567649 0
502 1 0.366244 0.548189 0
534 1 0.370896 0.573139 0
504 1 0.386408 0.554916 0
535 1 0.390607 0.580404 0
508 1 0.405602 0.562644 0
537 1 0.410323 0.586712 0
539 1 0.42489 0.569101 0
540 1 0.439747 0.551967 0
569 1 0.44461 0.577047 0
1441 1 0.459296 0.557479 0
1442 1 0.46454 0.581923 0
1413 1 0.49344 0.54629 0
1443 1 0.484487 0.588917 0
1412 1 0.48005 0.564925 0
1414 1 0.499478 0.570872 0
1439 1 0.0251649 0.594458 0
1440 1 0.0297001 0.619024 0
1438 1 0.00961069 0.610662 0
1469 1 0.00112708 0.632784 0
511 1 0.0441464 0.600894 0
541 1 0.0489416 0.625369 0
512 1 0.0643409 0.608678 0
542 1 0.0690526 0.633441 0
543 1 0.0841296 0.614445 0
545 1 0.0993437 0.596798 0
546 1 0.104278 0.621073 0
516 1 0.118941 0.603713 0
547 1 0.124494 0.628191 0
518 1 0.139402 0.610383 0
519 1 0.153742 0.59221 0
548 1 0.158715 0.617676 0
520 1 0.172783 0.599182 0
577 1 0.144289 0.635151 0
549 1 0.178649 0.622625 0
522 1 0.192623 0.605292 0
551 1 0.197962 0.630514 0
553 1 0.213193 0.613268 0
524 1 0.227047 0.595703 0
554 1 0.2336 0.619489 0
555 1 0.247267 0.60225 0
556 1 0.252737 0.62587 0
557 1 0.266931 0.608322 0
587 1 0.273151 0.631829 0
558 1 0.287081 0.614583 0
559 1 0.301382 0.59642 0
560 1 0.307437 0.621035 0
561 1 0.321589 0.602725 0
563 1 0.356967 0.591424 0
591 1 0.326985 0.627542 0
562 1 0.341269 0.609811 0
564 1 0.347448 0.633436 0
565 1 0.361774 0.616068 0
536 1 0.376497 0.598119 0
566 1 0.381499 0.622602 0
567 1 0.395807 0.605682 0
597 1 0.401294 0.629245 0
568 1 0.415001 0.611173 0
599 1 0.421342 0.635447 0
538 1 0.430174 0.594241 0
600 1 0.435732 0.618264 0
570 1 0.450441 0.600568 0
1501 1 0.456561 0.625018 0
1471 1 0.470278 0.606098 0
1472 1 0.475648 0.631471 0
1473 1 0.489519 0.613547 0
1529 1 0.0111093 0.674661 0
1500 1 0.032265 0.668137 0
1499 1 0.0164703 0.651021 0
1470 1 0.0352889 0.64409 0
571 1 0.0548541 0.65009 0
572 1 0.0611453 0.6732 0
573 1 0.0758084 0.656899 0
544 1 0.0892561 0.639188 0
574 1 0.0945085 0.664246 0
603 1 0.0799673 0.682555 0
575 1 0.108978 0.646291 0
605 1 0.114826 0.670827 0
576 1 0.129564 0.653216 0
607 1 0.134569 0.67711 0
578 1 0.14962 0.659981 0
579 1 0.163811 0.642167 0
609 1 0.168996 0.666498 0
550 1 0.182657 0.648144 0
580 1 0.189063 0.672029 0
581 1 0.203595 0.655158 0
611 1 0.209246 0.679513 0
552 1 0.218188 0.636549 0
582 1 0.223538 0.661704 0
583 1 0.238032 0.643306 0
584 1 0.243876 0.668185 0
585 1 0.258886 0.650894 0
615 1 0.264068 0.674685 0
586 1 0.278607 0.657079 0
617 1 0.283628 0.680984 0
589 1 0.292599 0.63874 0
588 1 0.29792 0.663137 0
590 1 0.31201 0.646036 0
621 1 0.318171 0.669189 0
593 1 0.332358 0.651059 0
592 1 0.337498 0.676641 0
594 1 0.352463 0.658716 0
595 1 0.367282 0.639825 0
625 1 0.372309 0.664891 0
596 1 0.386758 0.647024 0
627 1 0.392315 0.672442 0
598 1 0.407859 0.653881 0
657 1 0.412504 0.678799 0
628 1 0.427197 0.661585 0
629 1 0.440519 0.643755 0
630 1 0.446711 0.66913 0
1502 1 0.460338 0.649652 0
1474 1 0.495592 0.637446 0
1503 1 0.480895 0.655836 0
1533 1 0.466234 0.673495 0
1504 1 0.485609 0.680005 0
1558 1 0.00102649 0.723261 0
1559 1 0.00588259 0.698748 0
1530 1 0.0259349 0.691633 0
1560 1 0.0216601 0.715799 0
631 1 0.0413852 0.709219 0
601 1 0.0453852 0.685668 0
602 1 0.0629181 0.700706 0
632 1 0.0570741 0.725567 0
633 1 0.0832924 0.706905 0
604 1 0.0993008 0.689452 0
635 1 0.103524 0.713876 0
606 1 0.119235 0.694746 0
636 1 0.123536 0.719354 0
637 1 0.139213 0.701497 0
608 1 0.154721 0.684247 0
638 1 0.159422 0.708519 0
639 1 0.174738 0.690599 0
667 1 0.144149 0.725808 0
641 1 0.179491 0.715461 0
610 1 0.194283 0.696331 0
642 1 0.19984 0.721524 0
612 1 0.214898 0.703297 0
613 1 0.228952 0.685478 0
643 1 0.233803 0.710197 0
614 1 0.249055 0.692398 0
645 1 0.25352 0.716427 0
616 1 0.267925 0.699536 0
647 1 0.274079 0.723226 0
618 1 0.288761 0.706105 0
619 1 0.303674 0.688313 0
620 1 0.30868 0.711998 0
622 1 0.323823 0.694308 0
651 1 0.328615 0.718755 0
653 1 0.343576 0.701628 0
654 1 0.348351 0.725985 0
623 1 0.356976 0.683182 0
624 1 0.363648 0.707937 0
626 1 0.376804 0.689598 0
655 1 0.383253 0.714056 0
656 1 0.397137 0.695686 0
686 1 0.402777 0.720874 0
658 1 0.416752 0.703489 0
687 1 0.422731 0.727755 0
659 1 0.431891 0.685806 0
660 1 0.436714 0.709702 0
1531 1 0.451853 0.693233 0
1561 1 0.457447 0.716723 0
1532 1 0.471448 0.69784 0
1563 1 0.477864 0.721871 0
1534 1 0.490751 0.703843 0
1619 1 0.012566 0.765448 0
1589 1 0.0166065 0.740362 0
1590 1 0.0314406 0.758795 0
661 1 0.036429 0.733003 0
663 1 0.0517164 0.750756 0
662 1 0.0662432 0.76773 0
664 1 0.0713567 0.743406 0
695 1 0.0871514 0.758875 0
634 1 0.0897752 0.732335 0
665 1 0.108978 0.738814 0
697 1 0.115783 0.76178 0
666 1 0.129374 0.742856 0
668 1 0.135192 0.767036 0
669 1 0.150302 0.748892 0
640 1 0.164807 0.732156 0
670 1 0.170581 0.757539 0
671 1 0.184794 0.73927 0
672 1 0.191389 0.762591 0
673 1 0.205233 0.745349 0
703 1 0.211402 0.770361 0
644 1 0.219737 0.728853 0
674 1 0.226038 0.752963 0
675 1 0.240151 0.734584 0
705 1 0.245365 0.759389 0
646 1 0.260432 0.740594 0
677 1 0.265282 0.764634 0
648 1 0.280513 0.747303 0
678 1 0.285184 0.772043 0
649 1 0.294822 0.730526 0
679 1 0.299452 0.754154 0
650 1 0.314006 0.736647 0
681 1 0.319564 0.760746 0
652 1 0.33342 0.743376 0
682 1 0.338122 0.767895 0
683 1 0.353501 0.75002 0
685 1 0.368109 0.732157 0
684 1 0.373138 0.756455 0
715 1 0.387819 0.737584 0
714 1 0.393793 0.763488 0
717 1 0.408062 0.744907 0
716 1 0.413762 0.769247 0
688 1 0.428837 0.751644 0
689 1 0.443037 0.734144 0
719 1 0.449015 0.757286 0
690 1 0.463295 0.740493 0
1565 1 0.496962 0.727672 0
1591 1 0.468956 0.765265 0
1562 1 0.482581 0.746827 0
1593 1 0.488606 0.770572 0
1620 1 0.0270553 0.783056 0
1649 1 0.0225717 0.808419 0
1618 1 0.00807374 0.790391 0
1648 1 0.00171044 0.814074 0
691 1 0.0465371 0.775131 0
721 1 0.0413679 0.800822 0
693 1 0.0611222 0.792751 0
692 1 0.0563671 0.817706 0
723 1 0.0760229 0.810018 0
694 1 0.0808554 0.785367 0
725 1 0.0952186 0.803495 0
696 1 0.0999677 0.777378 0
727 1 0.115492 0.794908 0
728 1 0.129632 0.813844 0
698 1 0.137034 0.789947 0
699 1 0.154546 0.773353 0
700 1 0.148876 0.809846 0
731 1 0.164405 0.795668 0
701 1 0.178447 0.77996 0
702 1 0.197109 0.787893 0
763 1 0.202301 0.812524 0
732 1 0.183036 0.805335 0
733 1 0.216778 0.79531 0
704 1 0.23117 0.777683 0
706 1 0.237076 0.801242 0
676 1 0.251456 0.783555 0
737 1 0.25646 0.808484 0
707 1 0.270675 0.790023 0
738 1 0.2762 0.814652 0
708 1 0.290488 0.797074 0
709 1 0.305232 0.779401 0
710 1 0.310263 0.803506 0
680 1 0.324977 0.786084 0
741 1 0.330682 0.81058 0
711 1 0.344609 0.792012 0
742 1 0.350318 0.816083 0
713 1 0.35902 0.774838 0
712 1 0.364345 0.798478 0
743 1 0.378898 0.780364 0
745 1 0.384123 0.804202 0
746 1 0.399187 0.787479 0
775 1 0.40472 0.810555 0
747 1 0.419036 0.79372 0
748 1 0.424077 0.81668 0
718 1 0.43342 0.776149 0
749 1 0.438529 0.799758 0
720 1 0.452862 0.782384 0
1621 1 0.458463 0.805634 0
1623 1 0.493965 0.794625 0
1592 1 0.474049 0.788621 0
1622 1 0.478636 0.812123 0
1709 1 0.030666 0.848731 0
1679 1 0.0158922 0.831501 0
1678 1 0.0108891 0.85654 0
1650 1 0.036937 0.825058 0
1680 1 0.0502895 0.842794 0
752 1 0.0659049 0.859301 0
751 1 0.0703219 0.834535 0
753 1 0.0846557 0.852416 0
722 1 0.0906869 0.82886 0
724 1 0.104987 0.845209 0
726 1 0.110399 0.821106 0
757 1 0.124729 0.838978 0
756 1 0.139381 0.856417 0
729 1 0.144258 0.832932 0
759 1 0.159766 0.849783 0
730 1 0.166763 0.820917 0
761 1 0.186622 0.829781 0
792 1 0.192094 0.855438 0
762 1 0.207027 0.836868 0
764 1 0.211867 0.861048 0
735 1 0.221979 0.820254 0
734 1 0.226798 0.843635 0
736 1 0.241167 0.825689 0
765 1 0.246623 0.850171 0
767 1 0.261385 0.832733 0
766 1 0.266969 0.856881 0
768 1 0.281841 0.838389 0
739 1 0.296858 0.822082 0
769 1 0.301576 0.845224 0
740 1 0.316558 0.827906 0
770 1 0.321114 0.85216 0
771 1 0.335916 0.833919 0
801 1 0.340927 0.857995 0
773 1 0.356244 0.839658 0
744 1 0.36941 0.822387 0
803 1 0.375746 0.846284 0
774 1 0.389953 0.828722 0
776 1 0.394979 0.85171 0
777 1 0.410381 0.835396 0
778 1 0.415558 0.858744 0
779 1 0.430913 0.841295 0
750 1 0.445286 0.823615 0
780 1 0.449733 0.848824 0
1651 1 0.464406 0.829684 0
1624 1 0.499076 0.818417 0
1652 1 0.469228 0.853931 0
1653 1 0.484205 0.83703 0
1683 1 0.488951 0.860974 0
1710 1 0.0249 0.873592 0
1739 1 0.0210579 0.898756 0
1708 1 0.0052044 0.882128 0
1737 1 0.000724153 0.90602 0
781 1 0.0450069 0.867364 0
811 1 0.0400623 0.891123 0
782 1 0.0606427 0.883658 0
812 1 0.0550124 0.908241 0
813 1 0.0749787 0.902089 0
783 1 0.0795587 0.877537 0
784 1 0.0944221 0.894 0
754 1 0.099837 0.869585 0
755 1 0.119878 0.863425 0
785 1 0.114354 0.886999 0
786 1 0.128733 0.904254 0
787 1 0.134729 0.881043 0
788 1 0.148764 0.89805 0
758 1 0.15336 0.873786 0
760 1 0.173986 0.86752 0
789 1 0.168261 0.890747 0
791 1 0.189119 0.883168 0
823 1 0.202258 0.902701 0
790 1 0.182708 0.907415 0
793 1 0.217193 0.885757 0
795 1 0.231595 0.867848 0
794 1 0.237447 0.89179 0
796 1 0.252068 0.874766 0
825 1 0.257709 0.898542 0
827 1 0.271722 0.880517 0
826 1 0.277451 0.904951 0
797 1 0.286559 0.862652 0
798 1 0.291395 0.887017 0
799 1 0.306534 0.869059 0
829 1 0.311517 0.893155 0
800 1 0.326189 0.87614 0
831 1 0.332155 0.900522 0
802 1 0.346676 0.881814 0
833 1 0.352155 0.905974 0
772 1 0.361847 0.863855 0
804 1 0.36624 0.888411 0
805 1 0.381632 0.869742 0
806 1 0.386471 0.893816 0
807 1 0.400998 0.875945 0
837 1 0.405943 0.901834 0
808 1 0.420913 0.88482 0
839 1 0.426305 0.908649 0
809 1 0.43555 0.866556 0
810 1 0.440921 0.890723 0
1681 1 0.455503 0.873532 0
1711 1 0.461175 0.897242 0
1684 1 0.495213 0.885107 0
1682 1 0.475825 0.879275 0
1713 1 0.48028 0.902867 0
1769 1 0.0297838 0.940683 0
1738 1 0.0149285 0.923041 0
1768 1 0.0100938 0.946959 0
1740 1 0.035237 0.915312 0
841 1 0.0504157 0.932756 0
842 1 0.0645335 0.949918 0
843 1 0.0700886 0.925362 0
844 1 0.0843167 0.943647 0
814 1 0.0896568 0.919268 0
845 1 0.103511 0.935942 0
815 1 0.109628 0.911502 0
816 1 0.123741 0.929 0
847 1 0.138153 0.946377 0
846 1 0.118552 0.953266 0
817 1 0.142993 0.922346 0
818 1 0.15762 0.940205 0
819 1 0.163262 0.91477 0
820 1 0.17778 0.932629 0
851 1 0.191664 0.949758 0
821 1 0.197635 0.926001 0
822 1 0.211195 0.943069 0
824 1 0.222854 0.910601 0
853 1 0.229928 0.935851 0
855 1 0.242962 0.915797 0
854 1 0.248779 0.94463 0
856 1 0.262 0.92415 0
885 1 0.270081 0.94734 0
857 1 0.283005 0.929297 0
828 1 0.297254 0.912109 0
859 1 0.303026 0.935824 0
830 1 0.317208 0.916476 0
860 1 0.322836 0.942133 0
832 1 0.337155 0.924181 0
861 1 0.343219 0.949983 0
863 1 0.356697 0.930022 0
834 1 0.372589 0.912882 0
865 1 0.377 0.93784 0
835 1 0.391784 0.919826 0
836 1 0.397568 0.944454 0
838 1 0.411939 0.925654 0
867 1 0.417051 0.951029 0
869 1 0.431389 0.93271 0
840 1 0.447188 0.915361 0
1741 1 0.451719 0.93989 0
1743 1 0.486578 0.927727 0
1712 1 0.466109 0.921104 0
1742 1 0.472177 0.945979 0
1744 1 0.49157 0.952383 0
1799 1 0.0253161 0.964703 0
1798 1 0.0201142 0.989872 0
1797 1 0.00515415 0.971703 0
1800 1 0.0401194 0.982202 0
1770 1 0.045145 0.957267 0
871 1 0.0599823 0.975216 0
1773 1 0.477305 0.97081 0
872 1 0.0742255 0.992511 0
873 1 0.0787958 0.967618 0
874 1 0.0934194 0.98542 0
875 1 0.0989857 0.960504 0
876 1 0.112338 0.978859 0
7 1 0.127353 0.996026 0
877 1 0.132248 0.970643 0
878 1 0.146715 0.988248 0
848 1 0.152369 0.964256 0
849 1 0.172011 0.956302 0
879 1 0.166962 0.981873 0
850 1 0.186183 0.974177 0
11 1 0.200972 0.991622 0
852 1 0.20641 0.966982 0
881 1 0.181514 0.998645 0
883 1 0.228074 0.961022 0
882 1 0.221004 0.984004 0
884 1 0.240595 0.979813 0
886 1 0.257509 0.967877 0
16 1 0.257834 0.994095 0
17 1 0.27678 0.973802 0
18 1 0.28243 0.997638 0
887 1 0.289277 0.954892 0
888 1 0.29601 0.978972 0
858 1 0.309797 0.961097 0
889 1 0.315337 0.98642 0
891 1 0.329114 0.968518 0
890 1 0.335275 0.993561 0
862 1 0.349305 0.974297 0
892 1 0.355071 0.99893 0
864 1 0.362212 0.954998 0
893 1 0.36855 0.98065 0
895 1 0.382892 0.962599 0
896 1 0.388098 0.987128 0
866 1 0.402948 0.969437 0
897 1 0.40913 0.993428 0
868 1 0.422985 0.975996 0
1772 1 0.46334 0.989018 0
870 1 0.436778 0.957518 0
1771 1 0.457155 0.96456 0
899 1 0.443251 0.982369 0
903 1 0.48286 0.99574 0
1774 1 0.497444 0.978163 0
898 1 0.430368 1.00004 0
423 1 0.0779167 0.500364 0
904 1 0.507968 0.0271867 0
905 1 0.502826 0.00185193 0
906 1 0.522544 0.00892085 0
935 1 0.528076 0.0323061 0
908 1 0.542798 0.0149293 0
937 1 0.548326 0.0374251 0
939 1 0.562434 0.0210513 0
940 1 0.582143 0.0266828 0
941 1 0.576207 0.00259301 0
942 1 0.793284 0.0266103 0
944 1 0.808401 0.0432331 0
943 1 0.812844 0.0193831 0
912 1 0.79817 0.00224639 0
945 1 0.828039 0.0364021 0
914 1 0.832388 0.0120782 0
947 1 0.847249 0.0293207 0
916 1 0.852565 0.00470625 0
918 1 0.867203 0.022012 0
949 1 0.881528 0.0402918 0
919 1 0.886481 0.0151336 0
920 1 0.900916 0.0329779 0
1790 1 0.905811 0.00957308 0
951 1 0.921199 0.0251651 0
921 1 0.926581 0.00122967 0
952 1 0.936396 0.043483 0
922 1 0.940772 0.0193416 0
953 1 0.955632 0.0366598 0
924 1 0.959988 0.0116825 0
955 1 0.974884 0.0280589 0
925 1 0.980252 0.0029509 0
926 1 0.994487 0.0202068 0
956 1 0.989664 0.04587 0
934 1 0.513889 0.05158 0
965 1 0.520626 0.0770998 0
936 1 0.533891 0.0581762 0
963 1 0.500799 0.0693627 0
938 1 0.567825 0.0439891 0
966 1 0.53996 0.0821803 0