ITEM: TIMESTEP
442000
ITEM: NUMBER OF ATOMS
1800
ITEM: BOX BOUNDS pp pp pp
-1.6617327128221003e+01 1.8161732712822291e+02
1.1826529217466231e+00 1.6381734707825530e+02
0.0000000000000000e+00 5.5000000000000000e+00
ITEM: ATOMS id type xs ys zs
929 1 0.0348743 0.0053076 0
959 1 0.0303209 0.0303643 0
928 1 0.0156985 0.0132855 0
957 1 0.0106515 0.0372218 0
930 1 0.0494341 0.0240656 0
31 1 0.0634119 0.0409276 0
2 1 0.0685341 0.0169777 0
33 1 0.0831688 0.0342315 0
3 1 0.0878733 0.00975362 0
4 1 0.102398 0.0274411 0
5 1 0.107577 0.00356039 0
6 1 0.122498 0.0205295 0
37 1 0.136366 0.0379766 0
8 1 0.142588 0.0136093 0
35 1 0.116933 0.043847 0
39 1 0.156375 0.0324838 0
880 1 0.162023 0.00797052 0
9 1 0.176284 0.0251566 0
40 1 0.190681 0.0421345 0
10 1 0.195994 0.0174094 0
41 1 0.210146 0.0346494 0
12 1 0.215506 0.0107496 0
14 1 0.229692 0.0283565 0
45 1 0.24472 0.0448023 0
15 1 0.249604 0.0209826 0
46 1 0.268934 0.0167344 0
77 1 0.272896 0.043759 0
47 1 0.287096 0.0253911 0
19 1 0.301172 0.00597329 0
49 1 0.306816 0.0304398 0
20 1 0.321539 0.0137755 0
51 1 0.327035 0.0377865 0
21 1 0.341226 0.0196718 0
22 1 0.347518 0.0447403 0
23 1 0.361023 0.0260332 0
894 1 0.37454 0.00851231 0
24 1 0.380401 0.032915 0
25 1 0.394681 0.0138227 0
26 1 0.399795 0.0380938 0
27 1 0.415247 0.0207357 0
28 1 0.420063 0.0448184 0
29 1 0.435835 0.0266035 0
900 1 0.449862 0.00879002 0
30 1 0.455658 0.0334317 0
898 1 0.429665 0.00301578 0
902 1 0.489623 0.0212707 0
901 1 0.470208 0.0151156 0
931 1 0.475967 0.0389754 0
988 1 0.0193235 0.0806944 0
958 1 0.0243344 0.0548148 0
987 1 0.00504927 0.0618879 0
989 1 0.0389935 0.0724752 0
960 1 0.0443556 0.0484794 0
61 1 0.057909 0.0660868 0
990 1 0.052456 0.0904226 0
62 1 0.0724361 0.0832597 0
32 1 0.077707 0.0591767 0
63 1 0.0923287 0.0759882 0
34 1 0.0968612 0.0513748 0
65 1 0.111369 0.0678981 0
66 1 0.126469 0.086729 0
36 1 0.130911 0.0619546 0
67 1 0.145852 0.0798343 0
38 1 0.150193 0.0559033 0
69 1 0.17069 0.0497021 0
68 1 0.165359 0.0734706 0
71 1 0.18559 0.0660648 0
72 1 0.200054 0.0828235 0
42 1 0.205425 0.0591867 0
70 1 0.180745 0.0904387 0
43 1 0.225276 0.0509994 0
73 1 0.219752 0.0751356 0
44 1 0.240411 0.0693688 0
105 1 0.234001 0.0929424 0
74 1 0.26429 0.0874118 0
75 1 0.259061 0.0620186 0
76 1 0.278657 0.0676084 0
48 1 0.293275 0.0498231 0
79 1 0.298695 0.0737735 0
50 1 0.313214 0.055098 0
81 1 0.317781 0.080502 0
52 1 0.33228 0.0619948 0
82 1 0.338165 0.0880904 0
83 1 0.352489 0.0704793 0
53 1 0.366643 0.0521134 0
54 1 0.372098 0.077064 0
55 1 0.386273 0.0572709 0
56 1 0.391332 0.0830176 0
57 1 0.406233 0.0626486 0
87 1 0.411513 0.0872432 0
58 1 0.425894 0.0689022 0
59 1 0.440805 0.0511054 0
89 1 0.446383 0.0754093 0
60 1 0.460727 0.0568464 0
933 1 0.495881 0.0460137 0
932 1 0.480957 0.0636098 0
961 1 0.465888 0.081406 0
962 1 0.486057 0.0879754 0
1047 1 0.00904361 0.130273 0
1019 1 0.033366 0.0979596 0
1049 1 0.0279378 0.123591 0
1018 1 0.0136465 0.105142 0
1020 1 0.0473758 0.115462 0
121 1 0.0631256 0.133625 0
91 1 0.0666984 0.108033 0
92 1 0.0819338 0.126047 0
93 1 0.0864009 0.100948 0
94 1 0.10111 0.118579 0
64 1 0.107011 0.0942685 0
95 1 0.122221 0.111927 0
96 1 0.135778 0.128823 0
97 1 0.14188 0.104268 0
125 1 0.116272 0.135325 0
98 1 0.156381 0.122848 0
99 1 0.161035 0.0981148 0
100 1 0.175113 0.115352 0
129 1 0.170015 0.140094 0
130 1 0.189788 0.13169 0
101 1 0.194725 0.106985 0
102 1 0.209077 0.123146 0
103 1 0.214841 0.100409 0
104 1 0.232285 0.119559 0
106 1 0.250796 0.105676 0
78 1 0.284401 0.0919295 0
137 1 0.254726 0.129507 0
107 1 0.270937 0.111254 0
108 1 0.275257 0.135792 0
109 1 0.289911 0.118426 0
80 1 0.303555 0.0994449 0
110 1 0.309327 0.12371 0
111 1 0.32351 0.105378 0
141 1 0.328438 0.129826 0
113 1 0.342604 0.112646 0
143 1 0.348887 0.137106 0
84 1 0.358023 0.0947314 0
112 1 0.362952 0.118855 0
85 1 0.377863 0.10086 0
115 1 0.382578 0.124025 0
86 1 0.397965 0.106696 0
116 1 0.40267 0.13072 0
117 1 0.417462 0.112698 0
118 1 0.422933 0.136689 0
88 1 0.431289 0.0932123 0
119 1 0.437158 0.118782 0
90 1 0.450625 0.100336 0
120 1 0.457403 0.125107 0
991 1 0.470769 0.105657 0
992 1 0.476747 0.131228 0
993 1 0.491682 0.112853 0
1048 1 0.0237586 0.147942 0
1077 1 0.0201704 0.173544 0
1046 1 0.0038685 0.155368 0
1079 1 0.0389578 0.166978 0
1050 1 0.0428876 0.140399 0
151 1 0.0581793 0.158253 0
152 1 0.0726876 0.175838 0
122 1 0.0777584 0.152095 0
153 1 0.0919479 0.168651 0
123 1 0.0965143 0.14399 0
124 1 0.111297 0.160655 0
155 1 0.126136 0.176204 0
126 1 0.131138 0.151961 0
157 1 0.146141 0.17009 0
127 1 0.151093 0.146481 0
128 1 0.166025 0.165063 0
159 1 0.185207 0.156333 0
132 1 0.192813 0.177801 0
131 1 0.206608 0.158836 0
163 1 0.212571 0.182337 0
133 1 0.221397 0.141391 0
134 1 0.226797 0.166075 0
135 1 0.240431 0.148339 0
165 1 0.246514 0.171622 0
136 1 0.260588 0.152677 0
167 1 0.265962 0.177891 0
138 1 0.281136 0.158842 0
139 1 0.295314 0.141571 0
169 1 0.300078 0.166591 0
140 1 0.3148 0.147987 0
171 1 0.320375 0.173021 0
142 1 0.334574 0.154864 0
172 1 0.340441 0.179041 0
173 1 0.354465 0.160501 0
114 1 0.368219 0.142057 0
144 1 0.374675 0.166337 0
145 1 0.388775 0.148843 0
146 1 0.394083 0.172635 0
147 1 0.408761 0.154259 0
177 1 0.413367 0.18029 0
148 1 0.427865 0.161482 0
149 1 0.442731 0.141963 0
150 1 0.448176 0.16572 0
1021 1 0.4625 0.148846 0
1051 1 0.467729 0.172563 0
1022 1 0.482581 0.156121 0
1053 1 0.487023 0.180422 0
1023 1 0.496471 0.137074 0
1076 1 0.0138457 0.197697 0
1107 1 0.0285062 0.215215 0
1078 1 0.034105 0.191923 0
1106 1 0.00886833 0.22226 0
1080 1 0.0535252 0.18427 0
1109 1 0.0477556 0.211279 0
181 1 0.0696984 0.200328 0
182 1 0.0736182 0.225703 0
183 1 0.0901111 0.206831 0
185 1 0.108859 0.215507 0
154 1 0.104829 0.189835 0
156 1 0.123761 0.198967 0
186 1 0.128873 0.222776 0
158 1 0.143585 0.205044 0
160 1 0.15877 0.18791 0
189 1 0.163596 0.21172 0
161 1 0.178382 0.194623 0
191 1 0.183752 0.219242 0
162 1 0.19857 0.201246 0
192 1 0.204193 0.225624 0
193 1 0.218606 0.207112 0
164 1 0.232266 0.189465 0
195 1 0.238152 0.214439 0
166 1 0.251681 0.195733 0
196 1 0.257502 0.219849 0
197 1 0.271444 0.20237 0
198 1 0.277145 0.225957 0
168 1 0.285824 0.184106 0
199 1 0.291843 0.208804 0
170 1 0.305651 0.191716 0
200 1 0.311837 0.215754 0
201 1 0.326332 0.196923 0
202 1 0.331362 0.221843 0
203 1 0.345718 0.203563 0
233 1 0.351028 0.226657 0
174 1 0.360297 0.184233 0
204 1 0.364932 0.208263 0
175 1 0.379931 0.19085 0
205 1 0.384662 0.215738 0
176 1 0.399227 0.198704 0
207 1 0.404563 0.222363 0
178 1 0.418925 0.203824 0
179 1 0.433313 0.185461 0
209 1 0.438458 0.210179 0
180 1 0.452579 0.190451 0
1081 1 0.457606 0.215565 0
1052 1 0.471922 0.197473 0
1082 1 0.477936 0.221955 0
1083 1 0.49304 0.203939 0
1108 1 0.0237376 0.251262 0
1137 1 0.00958231 0.269615 0
1136 1 0.00307904 0.245875 0
1110 1 0.0400176 0.235007 0
1140 1 0.0442891 0.260377 0
211 1 0.059402 0.243798 0
212 1 0.0641397 0.267419 0
213 1 0.0790517 0.250166 0
184 1 0.0940653 0.233125 0
214 1 0.0993006 0.257353 0
215 1 0.113686 0.239478 0
216 1 0.119552 0.263665 0
217 1 0.133951 0.246546 0
218 1 0.138514 0.270141 0
187 1 0.149023 0.22893 0
188 1 0.153648 0.253237 0
190 1 0.168698 0.236113 0
220 1 0.173408 0.259703 0
221 1 0.188795 0.242466 0
222 1 0.193507 0.2662 0
223 1 0.20892 0.248727 0
253 1 0.213096 0.272914 0
194 1 0.223645 0.231237 0
224 1 0.228275 0.25542 0
225 1 0.243062 0.237895 0
226 1 0.248454 0.260986 0
227 1 0.262663 0.244331 0
257 1 0.267888 0.268691 0
228 1 0.283309 0.25067 0
229 1 0.297279 0.233331 0
230 1 0.302595 0.257543 0
231 1 0.317242 0.239415 0
261 1 0.322319 0.262948 0
232 1 0.33735 0.244749 0
263 1 0.342062 0.269165 0
234 1 0.356756 0.252184 0
235 1 0.370747 0.232936 0
265 1 0.375947 0.258896 0
206 1 0.390313 0.239611 0
208 1 0.424601 0.227882 0
236 1 0.395622 0.264458 0
237 1 0.409998 0.246398 0
238 1 0.414524 0.270667 0
239 1 0.429834 0.253154 0
210 1 0.444095 0.234379 0
240 1 0.449861 0.258724 0
1111 1 0.463155 0.240507 0
1112 1 0.469995 0.265899 0
1113 1 0.482766 0.246678 0
1084 1 0.497638 0.228467 0
1138 1 0.0149408 0.293071 0
1139 1 0.0295091 0.276081 0
1197 1 0.000452445 0.311537 0
1169 1 0.0348766 0.300368 0
241 1 0.0490777 0.283948 0
271 1 0.0550482 0.307528 0
242 1 0.0696782 0.290903 0
243 1 0.0847257 0.273987 0
273 1 0.0752042 0.315497 0
244 1 0.0899929 0.298586 0
245 1 0.10457 0.281196 0
246 1 0.109008 0.305372 0
247 1 0.124114 0.28881 0
248 1 0.128517 0.31211 0
249 1 0.144149 0.295375 0
219 1 0.157667 0.276982 0
250 1 0.163939 0.30131 0
251 1 0.178164 0.283369 0
281 1 0.184127 0.306496 0
252 1 0.198846 0.290458 0
283 1 0.204197 0.314685 0
254 1 0.219324 0.296661 0
255 1 0.23424 0.278881 0
285 1 0.238968 0.304038 0
256 1 0.253311 0.285006 0
287 1 0.258687 0.309463 0
258 1 0.272958 0.292198 0
288 1 0.278597 0.316446 0
259 1 0.287599 0.274864 0
289 1 0.292529 0.298786 0
260 1 0.30781 0.281621 0
291 1 0.312897 0.305987 0
262 1 0.327705 0.28733 0
292 1 0.332501 0.312513 0
293 1 0.346969 0.29485 0
264 1 0.361681 0.276747 0
295 1 0.367534 0.301015 0
266 1 0.381698 0.283133 0
297 1 0.387322 0.307743 0
267 1 0.401906 0.289574 0
298 1 0.40634 0.313746 0
268 1 0.421191 0.295368 0
269 1 0.435231 0.277053 0
270 1 0.44116 0.301537 0
1141 1 0.455652 0.284156 0
300 1 0.460801 0.308355 0
1142 1 0.4897 0.272396 0
1171 1 0.474842 0.29011 0
1172 1 0.480692 0.313699 0
1173 1 0.495079 0.29601 0
1168 1 0.0193877 0.318071 0
1199 1 0.0253089 0.341518 0
1198 1 0.00486839 0.335271 0
1228 1 0.011274 0.359479 0
1170 1 0.0389164 0.324398 0
1229 1 0.044947 0.349098 0
1200 1 0.0587127 0.331344 0
301 1 0.0658088 0.35703 0
272 1 0.0808368 0.339934 0
275 1 0.0950047 0.323113 0
274 1 0.100476 0.347677 0
276 1 0.114646 0.329487 0
305 1 0.120491 0.353472 0
277 1 0.134603 0.336061 0
307 1 0.139858 0.359909 0
279 1 0.149441 0.319184 0
278 1 0.154744 0.343209 0
280 1 0.169558 0.324664 0
311 1 0.175178 0.350048 0
282 1 0.189436 0.331611 0
312 1 0.194679 0.356419 0
313 1 0.209756 0.33888 0
284 1 0.224079 0.321469 0
315 1 0.22863 0.345986 0
286 1 0.243569 0.328345 0
316 1 0.249344 0.353702 0
317 1 0.263432 0.334847 0
318 1 0.268347 0.359972 0
319 1 0.282827 0.340918 0
290 1 0.298207 0.322698 0
320 1 0.303139 0.348202 0
321 1 0.317732 0.330876 0
294 1 0.352364 0.318644 0
322 1 0.323161 0.354396 0
323 1 0.338158 0.336005 0
324 1 0.342666 0.359833 0
325 1 0.35764 0.342355 0
296 1 0.372277 0.324777 0
326 1 0.376689 0.34927 0
327 1 0.391671 0.331898 0
299 1 0.426155 0.321464 0
328 1 0.396405 0.355327 0
329 1 0.41114 0.338143 0
358 1 0.416778 0.362376 0
359 1 0.431413 0.34482 0
330 1 0.447211 0.326178 0
360 1 0.451217 0.350246 0
1202 1 0.486303 0.338591 0
1201 1 0.46709 0.33237 0
1231 1 0.471682 0.356547 0
1287 1 0.00348337 0.402476 0
1259 1 0.030693 0.366124 0
1258 1 0.0172799 0.384571 0
1260 1 0.0362147 0.391289 0
1230 1 0.0507402 0.373625 0
331 1 0.0573212 0.398906 0
302 1 0.07132 0.380976 0
303 1 0.0864963 0.364892 0
332 1 0.0762874 0.405723 0
333 1 0.0909609 0.388903 0
304 1 0.106607 0.371681 0
335 1 0.111068 0.396096 0
306 1 0.126102 0.379599 0
337 1 0.131115 0.403227 0
308 1 0.145308 0.385821 0
309 1 0.159935 0.367445 0
339 1 0.165276 0.392073 0
310 1 0.179362 0.374531 0
341 1 0.186319 0.399129 0
343 1 0.199813 0.381601 0
342 1 0.205938 0.406231 0
314 1 0.214514 0.363424 0
344 1 0.220213 0.38741 0
345 1 0.234668 0.370315 0
346 1 0.239993 0.393747 0
347 1 0.254092 0.376954 0
377 1 0.259606 0.401068 0
348 1 0.273681 0.383661 0
378 1 0.279525 0.408527 0
349 1 0.287954 0.365723 0
350 1 0.294182 0.389948 0
351 1 0.308385 0.371804 0
381 1 0.313266 0.396587 0
353 1 0.327682 0.377854 0
352 1 0.33375 0.403145 0
354 1 0.346687 0.384806 0
355 1 0.361841 0.3667 0
356 1 0.367233 0.39068 0
357 1 0.381983 0.373271 0
386 1 0.386945 0.398196 0
387 1 0.401793 0.380123 0
388 1 0.407287 0.404324 0
389 1 0.421501 0.385445 0
1232 1 0.436467 0.369085 0
1261 1 0.442334 0.393332 0
1262 1 0.456934 0.374814 0
1293 1 0.462008 0.398562 0
1233 1 0.491106 0.363153 0
1263 1 0.476941 0.380601 0
1294 1 0.481689 0.405146 0
1264 1 0.495925 0.3872 0
1289 1 0.0227572 0.409957 0
1319 1 0.0273276 0.434682 0
1288 1 0.00768525 0.428608 0
1318 1 0.0132988 0.453484 0
1290 1 0.0422962 0.416866 0
391 1 0.0469713 0.441897 0
361 1 0.0623208 0.424858 0
362 1 0.0665254 0.449731 0
363 1 0.0816339 0.431585 0
334 1 0.0956722 0.413409 0
365 1 0.102296 0.438324 0
336 1 0.117074 0.420739 0
366 1 0.123067 0.444692 0
367 1 0.137168 0.42649 0
368 1 0.142482 0.452141 0
338 1 0.151782 0.409652 0
369 1 0.15628 0.433827 0
340 1 0.171765 0.416915 0
370 1 0.176687 0.441563 0
371 1 0.190962 0.423704 0
401 1 0.196978 0.448262 0
372 1 0.211264 0.430453 0
373 1 0.225287 0.410892 0
374 1 0.230551 0.436232 0
375 1 0.244571 0.41891 0
405 1 0.249893 0.443282 0
376 1 0.264059 0.42599 0
407 1 0.270189 0.449623 0
409 1 0.284748 0.432838 0
379 1 0.298837 0.414951 0
380 1 0.304477 0.438268 0
382 1 0.319123 0.420093 0
385 1 0.353408 0.408606 0
413 1 0.324494 0.444747 0
383 1 0.339396 0.427484 0
412 1 0.34509 0.450965 0
414 1 0.35915 0.432919 0
384 1 0.373027 0.415066 0
415 1 0.37846 0.438729 0
417 1 0.393554 0.421879 0
416 1 0.398719 0.445788 0
418 1 0.413107 0.428218 0
419 1 0.427093 0.410647 0
447 1 0.419093 0.45249 0
390 1 0.433492 0.434408 0
1291 1 0.447678 0.416006 0
1321 1 0.453355 0.440944 0
1323 1 0.487548 0.42929 0
1292 1 0.467501 0.42279 0
1322 1 0.473296 0.447129 0
1320 1 0.0325611 0.459395 0
1349 1 0.0186231 0.477316 0
1379 1 0.00311102 0.494996 0
421 1 0.0380068 0.48506 0
392 1 0.051542 0.467121 0
422 1 0.057477 0.491214 0
393 1 0.0726589 0.472817 0
364 1 0.0879072 0.455819 0
394 1 0.0920921 0.480119 0
423 1 0.0775327 0.497275 0
395 1 0.107404 0.462401 0
396 1 0.112569 0.486977 0
397 1 0.127726 0.469705 0
427 1 0.132374 0.494511 0
398 1 0.147126 0.476526 0
399 1 0.162011 0.458819 0
429 1 0.16695 0.483682 0
400 1 0.181591 0.465785 0
431 1 0.186804 0.49047 0
402 1 0.201769 0.472511 0
432 1 0.20612 0.497025 0
403 1 0.217058 0.454339 0
433 1 0.221566 0.478797 0
404 1 0.236233 0.461385 0
435 1 0.241351 0.485746 0
406 1 0.255988 0.467242 0
436 1 0.261021 0.491778 0
408 1 0.275205 0.473444 0
439 1 0.281362 0.498686 0
410 1 0.289792 0.457278 0
441 1 0.296332 0.480868 0
411 1 0.310849 0.462479 0
440 1 0.315939 0.486921 0
442 1 0.330986 0.467834 0
471 1 0.335943 0.492559 0
473 1 0.350406 0.475112 0
443 1 0.364676 0.456918 0
444 1 0.370266 0.480427 0
445 1 0.384543 0.463084 0
475 1 0.390472 0.488146 0
446 1 0.403969 0.470144 0
477 1 0.409636 0.494495 0
448 1 0.423987 0.477019 0
1351 1 0.463601 0.48996 0
450 1 0.458871 0.46549 0
449 1 0.443588 0.483689 0
420 1 0.439153 0.459137 0
1352 1 0.483565 0.496691 0
1354 1 0.498578 0.478624 0
1353 1 0.478522 0.472051 0
1324 1 0.492545 0.454401 0
13 1 0.234865 0.00456462 0
1380 1 0.0288665 0.527016 0
1350 1 0.0234819 0.502927 0
451 1 0.043461 0.509303 0
452 1 0.0486576 0.534415 0
453 1 0.0634697 0.515732 0
454 1 0.0685199 0.541542 0
424 1 0.0829303 0.522231 0
425 1 0.0970701 0.504377 0
455 1 0.103374 0.529212 0
426 1 0.117042 0.511612 0
456 1 0.122411 0.536692 0
457 1 0.137031 0.518637 0
458 1 0.142483 0.542774 0
459 1 0.15672 0.526346 0
430 1 0.17152 0.508468 0
460 1 0.177608 0.53338 0
428 1 0.151641 0.501364 0
461 1 0.190984 0.515029 0
462 1 0.197075 0.538808 0
463 1 0.21107 0.520738 0
434 1 0.226018 0.503204 0
464 1 0.231543 0.527077 0
465 1 0.246404 0.509427 0
466 1 0.25095 0.533912 0
437 1 0.266484 0.516308 0
497 1 0.271749 0.541262 0
467 1 0.286368 0.522716 0
438 1 0.301231 0.505422 0
468 1 0.306874 0.529647 0
469 1 0.320936 0.511199 0
472 1 0.356472 0.498918 0
499 1 0.326914 0.534958 0
470 1 0.340904 0.51705 0
501 1 0.34626 0.542411 0
503 1 0.361501 0.523164 0
474 1 0.376195 0.505027 0
505 1 0.380805 0.531279 0
476 1 0.395904 0.51428 0
506 1 0.400863 0.538597 0
507 1 0.415127 0.52026 0
478 1 0.428687 0.501792 0
509 1 0.420232 0.544117 0
480 1 0.434344 0.526712 0
479 1 0.449143 0.508806 0
510 1 0.454579 0.532297 0
1382 1 0.489372 0.520706 0
1381 1 0.469504 0.514254 0
1411 1 0.474975 0.538848 0
1409 1 0.0146237 0.543377 0
481 1 0.0344562 0.551662 0
1408 1 0.0197277 0.569536 0
1410 1 0.0398144 0.575964 0
483 1 0.0541647 0.558872 0
482 1 0.0588329 0.584142 0
485 1 0.0886987 0.546779 0
513 1 0.0738375 0.565938 0
484 1 0.0934726 0.571506 0
514 1 0.0789985 0.589233 0
486 1 0.107964 0.55396 0
515 1 0.11416 0.577878 0
487 1 0.128542 0.560358 0
517 1 0.133854 0.585167 0
488 1 0.148009 0.5671 0
489 1 0.162866 0.549976 0
490 1 0.168192 0.574728 0
491 1 0.182529 0.557228 0
521 1 0.188192 0.581328 0
492 1 0.202595 0.563315 0
523 1 0.207359 0.588133 0
493 1 0.217128 0.544421 0
494 1 0.222744 0.569145 0
495 1 0.236483 0.551413 0
525 1 0.242213 0.575877 0
496 1 0.256924 0.557969 0
526 1 0.262765 0.582303 0
527 1 0.277094 0.564737 0
528 1 0.282734 0.588536 0
498 1 0.292319 0.547062 0
529 1 0.297899 0.57142 0
500 1 0.312058 0.553721 0
530 1 0.317841 0.578339 0
531 1 0.33173 0.559923 0
532 1 0.337242 0.584755 0
533 1 0.352626 0.566239 0
502 1 0.36685 0.549055 0
534 1 0.372484 0.573355 0
504 1 0.386689 0.555206 0
535 1 0.392377 0.579735 0
508 1 0.406505 0.562256 0
537 1 0.411861 0.587126 0
539 1 0.42592 0.568505 0
540 1 0.440372 0.550694 0
569 1 0.44564 0.575614 0
1441 1 0.459973 0.557659 0
1413 1 0.494512 0.545538 0
1443 1 0.485701 0.588175 0
1442 1 0.464474 0.58162 0
1412 1 0.4797 0.563958 0
1414 1 0.500185 0.57002 0
1439 1 0.0251654 0.594808 0
1440 1 0.0281965 0.618468 0
1438 1 0.00871662 0.609016 0
1469 1 0.00280781 0.633168 0
511 1 0.0443289 0.601545 0
541 1 0.049762 0.624774 0
512 1 0.0643542 0.608216 0
542 1 0.0689785 0.631588 0
543 1 0.0841634 0.614485 0
545 1 0.0988371 0.595686 0
546 1 0.103809 0.620667 0
516 1 0.119461 0.602298 0
547 1 0.123915 0.627447 0
518 1 0.139415 0.609291 0
577 1 0.143478 0.63316 0
519 1 0.153526 0.591807 0
548 1 0.159483 0.616765 0
520 1 0.17325 0.598466 0
549 1 0.179807 0.623912 0
522 1 0.193279 0.605208 0
551 1 0.198906 0.629281 0
553 1 0.213401 0.612182 0
524 1 0.228158 0.594098 0
554 1 0.232853 0.618432 0
555 1 0.248423 0.600559 0
552 1 0.217761 0.636558 0
556 1 0.253518 0.62465 0
557 1 0.268384 0.606711 0
587 1 0.272648 0.631045 0
558 1 0.287454 0.613343 0
559 1 0.303266 0.594767 0
560 1 0.307844 0.619827 0
563 1 0.357685 0.590265 0
561 1 0.32284 0.60317 0
591 1 0.327517 0.628502 0
562 1 0.342291 0.609688 0
564 1 0.347243 0.633572 0
565 1 0.362297 0.614828 0
536 1 0.377349 0.598022 0
566 1 0.381467 0.62271 0
567 1 0.396893 0.604256 0
597 1 0.401082 0.628666 0
568 1 0.41577 0.61228 0
538 1 0.430912 0.593372 0
600 1 0.435644 0.617517 0
570 1 0.451014 0.599573 0
1501 1 0.456514 0.623415 0
1471 1 0.471027 0.605514 0
1472 1 0.475731 0.630271 0
1473 1 0.489701 0.612757 0
1529 1 0.0107464 0.674349 0
1500 1 0.0332631 0.66693 0
1499 1 0.0172468 0.65146 0
1470 1 0.0357435 0.642028 0
571 1 0.055139 0.650645 0
572 1 0.0621097 0.673455 0
573 1 0.075891 0.656221 0
544 1 0.0897422 0.637666 0
574 1 0.095559 0.663618 0
575 1 0.109319 0.645053 0
605 1 0.115426 0.670128 0
576 1 0.129893 0.652264 0
607 1 0.134909 0.67682 0
578 1 0.149585 0.658485 0
579 1 0.164025 0.641585 0
609 1 0.169723 0.665536 0
550 1 0.184424 0.647696 0
580 1 0.189697 0.672513 0
581 1 0.203509 0.653478 0
611 1 0.209736 0.6779 0
582 1 0.223787 0.660453 0
583 1 0.237413 0.642474 0
584 1 0.243759 0.667451 0
585 1 0.257458 0.649006 0
615 1 0.263395 0.674236 0
586 1 0.277306 0.6556 0
589 1 0.292329 0.636397 0
588 1 0.296774 0.662796 0
590 1 0.311587 0.645799 0
621 1 0.317394 0.671035 0
593 1 0.331653 0.652674 0
592 1 0.33674 0.676722 0
594 1 0.352437 0.658106 0
595 1 0.367137 0.640284 0
625 1 0.372126 0.664934 0
596 1 0.386818 0.647532 0
627 1 0.391737 0.670955 0
599 1 0.421066 0.635335 0
598 1 0.407079 0.653947 0
657 1 0.411287 0.678399 0
628 1 0.426852 0.659177 0
629 1 0.441431 0.641117 0
630 1 0.446681 0.666057 0
1502 1 0.461202 0.647828 0
1474 1 0.495403 0.637308 0
1503 1 0.480548 0.656183 0
1533 1 0.466002 0.673068 0
1504 1 0.486512 0.680102 0
1558 1 0.00223019 0.723219 0
1559 1 0.00598447 0.69932 0
1530 1 0.0258024 0.691925 0
1560 1 0.0218342 0.71574 0
631 1 0.0412198 0.709994 0
601 1 0.0455482 0.686542 0
602 1 0.0640257 0.699336 0
632 1 0.0579387 0.723192 0
603 1 0.0809063 0.681369 0
633 1 0.0847372 0.707157 0
604 1 0.10041 0.688309 0
635 1 0.104588 0.713072 0
606 1 0.119986 0.69378 0
636 1 0.123949 0.719222 0
637 1 0.139606 0.701814 0
608 1 0.154047 0.683629 0
638 1 0.160212 0.708531 0
639 1 0.174567 0.690936 0
667 1 0.144445 0.725429 0
641 1 0.180455 0.715501 0
610 1 0.194993 0.697007 0
642 1 0.200141 0.720442 0
612 1 0.214699 0.703188 0
613 1 0.22903 0.685382 0
643 1 0.234683 0.710085 0
614 1 0.248714 0.691704 0
617 1 0.282567 0.68061 0
645 1 0.254718 0.716683 0
616 1 0.269079 0.698575 0
647 1 0.274537 0.723457 0
618 1 0.28917 0.70527 0
619 1 0.302501 0.686877 0
620 1 0.30886 0.713419 0
622 1 0.322846 0.695578 0
651 1 0.328776 0.719109 0
653 1 0.34346 0.701421 0
654 1 0.34948 0.725937 0
623 1 0.357079 0.683199 0
624 1 0.363283 0.707569 0
626 1 0.376483 0.689373 0
655 1 0.382067 0.713384 0
656 1 0.396708 0.696293 0
686 1 0.402155 0.720434 0
658 1 0.416714 0.702984 0
659 1 0.431364 0.684757 0
660 1 0.43614 0.709429 0
1531 1 0.451339 0.690704 0
1561 1 0.456763 0.714884 0
1532 1 0.472288 0.6984 0
1563 1 0.476661 0.722333 0
1534 1 0.491868 0.704455 0
1619 1 0.0115139 0.764455 0
1589 1 0.0168852 0.740603 0
1590 1 0.0323926 0.757363 0
661 1 0.036779 0.733211 0
663 1 0.0520751 0.748978 0
662 1 0.0668261 0.766217 0
664 1 0.0717111 0.741718 0
695 1 0.0877041 0.759375 0
634 1 0.0895849 0.731674 0
665 1 0.11006 0.737729 0
697 1 0.116371 0.761384 0
666 1 0.129509 0.743198 0
668 1 0.136487 0.767215 0
669 1 0.151177 0.75002 0
640 1 0.165809 0.733104 0
670 1 0.171529 0.75799 0
671 1 0.185658 0.738825 0
672 1 0.191804 0.7633 0
673 1 0.205808 0.745512 0
703 1 0.211634 0.770482 0
644 1 0.219826 0.72731 0
674 1 0.225393 0.752994 0
675 1 0.240521 0.73482 0
705 1 0.246613 0.758867 0
646 1 0.260799 0.741495 0
677 1 0.266098 0.766222 0
648 1 0.280662 0.74817 0
678 1 0.285803 0.77222 0
649 1 0.294678 0.730512 0
679 1 0.300798 0.755396 0
650 1 0.31493 0.737381 0
681 1 0.321054 0.76221 0
652 1 0.33518 0.743421 0
682 1 0.340483 0.768695 0
683 1 0.35493 0.750593 0
685 1 0.368824 0.731474 0
684 1 0.375262 0.757264 0
715 1 0.388381 0.73923 0
687 1 0.421715 0.726995 0
714 1 0.394671 0.763512 0
717 1 0.408153 0.745461 0
716 1 0.414046 0.770387 0
688 1 0.427619 0.751609 0
689 1 0.441329 0.733598 0
719 1 0.44724 0.757718 0
690 1 0.462304 0.740373 0
1565 1 0.496865 0.728503 0
1591 1 0.467123 0.765431 0
1562 1 0.481943 0.746091 0
1593 1 0.48716 0.770025 0
1620 1 0.0271909 0.780766 0
1649 1 0.021097 0.804853 0
1618 1 0.00704969 0.78771 0
1648 1 0.00187988 0.81229 0
691 1 0.0476088 0.774204 0
721 1 0.0412654 0.79883 0
693 1 0.0608323 0.792426 0
692 1 0.0560045 0.81648 0
723 1 0.0752849 0.808722 0
694 1 0.0804145 0.784344 0
725 1 0.0956895 0.802029 0
696 1 0.100325 0.778129 0
727 1 0.116283 0.793832 0
728 1 0.128754 0.813663 0
698 1 0.137639 0.792025 0
699 1 0.156467 0.775878 0
700 1 0.148285 0.811555 0
731 1 0.163665 0.798227 0
701 1 0.178542 0.781228 0
702 1 0.197774 0.788647 0
763 1 0.203139 0.813802 0
732 1 0.183183 0.806857 0
733 1 0.217342 0.79606 0
704 1 0.231846 0.777524 0
706 1 0.238066 0.801985 0
676 1 0.251876 0.78443 0
737 1 0.257638 0.809499 0
707 1 0.271878 0.79147 0
738 1 0.277333 0.81598 0
708 1 0.291534 0.79881 0
709 1 0.306912 0.779874 0
710 1 0.312353 0.80383 0
680 1 0.326381 0.786682 0
741 1 0.332057 0.811039 0
711 1 0.345971 0.793014 0
742 1 0.351007 0.817776 0
713 1 0.360367 0.775701 0
712 1 0.365772 0.799038 0
743 1 0.380625 0.78184 0
745 1 0.385126 0.806832 0
746 1 0.400308 0.788422 0
775 1 0.40529 0.812391 0
747 1 0.419569 0.794017 0
748 1 0.42521 0.818697 0
718 1 0.433385 0.776305 0
749 1 0.439479 0.800784 0
720 1 0.453596 0.782513 0
1621 1 0.458857 0.806245 0
1623 1 0.493546 0.794712 0
1592 1 0.473387 0.788562 0
1622 1 0.478896 0.813343 0
1709 1 0.0305342 0.846909 0
1679 1 0.0160429 0.829488 0
1678 1 0.0114215 0.854548 0
1650 1 0.0355366 0.823326 0
1680 1 0.0504942 0.840283 0
752 1 0.0649274 0.858403 0
751 1 0.0706383 0.83259 0
753 1 0.0851222 0.852066 0
722 1 0.0895087 0.827249 0
724 1 0.104815 0.843977 0
726 1 0.109264 0.819739 0
757 1 0.12435 0.837419 0
756 1 0.139309 0.856519 0
755 1 0.119131 0.861339 0
729 1 0.144151 0.833907 0
759 1 0.160103 0.85037 0
730 1 0.165856 0.825047 0
761 1 0.187921 0.831106 0
792 1 0.193021 0.856332 0
762 1 0.208233 0.838519 0
764 1 0.213002 0.862599 0
735 1 0.222532 0.820135 0
734 1 0.228039 0.846266 0
736 1 0.241856 0.826447 0
765 1 0.248296 0.851699 0
767 1 0.262724 0.83362 0
766 1 0.267978 0.858307 0
768 1 0.281803 0.839594 0
739 1 0.29722 0.822598 0
769 1 0.30191 0.84654 0
740 1 0.316392 0.829027 0
770 1 0.3219 0.853374 0
771 1 0.337264 0.835655 0
801 1 0.342178 0.859438 0
773 1 0.356555 0.84225 0
744 1 0.370625 0.824088 0
803 1 0.3768 0.84766 0
774 1 0.391384 0.831041 0
776 1 0.397092 0.855728 0
777 1 0.411263 0.837542 0
778 1 0.416369 0.862379 0
779 1 0.430931 0.842453 0
750 1 0.445451 0.825184 0
780 1 0.450378 0.849281 0
1624 1 0.499099 0.819419 0
1651 1 0.464569 0.83106 0
1652 1 0.470459 0.855405 0
1653 1 0.484454 0.837758 0
1683 1 0.48998 0.861866 0
1710 1 0.025867 0.871571 0
1739 1 0.0205683 0.896207 0
1708 1 0.00579663 0.87891 0
781 1 0.0452229 0.865186 0
811 1 0.0397717 0.889662 0
782 1 0.0594766 0.882909 0
812 1 0.0540266 0.907948 0
813 1 0.0746396 0.899711 0
783 1 0.0789513 0.875519 0
784 1 0.095401 0.892899 0
754 1 0.10007 0.869606 0
785 1 0.114423 0.886578 0
786 1 0.12893 0.905531 0
787 1 0.134948 0.881402 0
788 1 0.149547 0.899335 0
758 1 0.154593 0.875322 0
760 1 0.17459 0.868484 0
789 1 0.169532 0.892322 0
791 1 0.190781 0.883721 0
823 1 0.204063 0.904224 0
790 1 0.184051 0.909522 0
793 1 0.218141 0.887001 0
795 1 0.233428 0.870652 0
794 1 0.23835 0.894515 0
824 1 0.224358 0.912791 0
796 1 0.253486 0.876896 0
825 1 0.259249 0.900462 0
827 1 0.273426 0.882471 0
826 1 0.27939 0.907314 0
797 1 0.287881 0.863838 0
798 1 0.292803 0.889456 0
799 1 0.30747 0.871947 0
829 1 0.312925 0.895803 0
800 1 0.327181 0.877507 0
831 1 0.333941 0.901558 0
802 1 0.347455 0.883726 0
833 1 0.353624 0.909373 0
772 1 0.362722 0.866484 0
804 1 0.367532 0.891521 0
805 1 0.38184 0.873022 0
806 1 0.386316 0.897769 0
807 1 0.40125 0.880124 0
837 1 0.407584 0.903856 0
808 1 0.422217 0.885932 0
839 1 0.427053 0.911958 0
809 1 0.435684 0.867281 0
810 1 0.441206 0.892997 0
1681 1 0.45543 0.873478 0
1711 1 0.461966 0.898054 0
1684 1 0.495696 0.887658 0
1682 1 0.475962 0.879901 0
1713 1 0.480849 0.905072 0
1740 1 0.0343571 0.914356 0
1769 1 0.0302839 0.939166 0
1738 1 0.0145731 0.920834 0
1768 1 0.0104286 0.94534 0
841 1 0.0495701 0.932058 0
842 1 0.0642586 0.949561 0
843 1 0.0695134 0.924509 0
844 1 0.0839991 0.943462 0
814 1 0.0894867 0.917985 0
845 1 0.103596 0.936399 0
815 1 0.109352 0.912021 0
816 1 0.123506 0.93077 0
847 1 0.138982 0.948558 0
846 1 0.118756 0.955642 0
817 1 0.143425 0.922779 0
818 1 0.158423 0.940445 0
819 1 0.163709 0.915987 0
820 1 0.177763 0.933908 0
851 1 0.191735 0.952399 0
821 1 0.197123 0.928141 0
822 1 0.211894 0.944998 0
853 1 0.230673 0.93617 0
855 1 0.244773 0.91814 0
854 1 0.249667 0.94367 0
856 1 0.264545 0.925424 0
885 1 0.269937 0.949145 0
857 1 0.284845 0.932298 0
828 1 0.299264 0.914088 0
859 1 0.305639 0.938511 0
830 1 0.319449 0.920037 0
860 1 0.325072 0.944376 0
832 1 0.339304 0.926446 0
861 1 0.344893 0.951869 0
863 1 0.359257 0.93423 0
834 1 0.373448 0.916613 0
865 1 0.378691 0.941595 0
835 1 0.393399 0.923163 0
836 1 0.398422 0.947922 0
838 1 0.412505 0.929762 0
867 1 0.418095 0.953991 0
869 1 0.432423 0.935003 0
840 1 0.44757 0.916836 0
1741 1 0.451815 0.941343 0
1743 1 0.486523 0.929773 0
1712 1 0.466606 0.923223 0
1742 1 0.471897 0.948853 0
1744 1 0.492216 0.95378 0
1799 1 0.02515 0.963666 0
1798 1 0.0206837 0.987124 0
1797 1 0.00585348 0.970255 0
1 1 0.0539729 0.999095 0
1800 1 0.0401502 0.981196 0
1770 1 0.045164 0.956492 0
871 1 0.0595433 0.97429 0
872 1 0.073521 0.991998 0
873 1 0.0791141 0.966961 0
874 1 0.0937391 0.985574 0
875 1 0.0988267 0.961482 0
876 1 0.113022 0.979295 0
7 1 0.127446 0.996856 0
877 1 0.132843 0.97218 0
878 1 0.147919 0.989689 0
848 1 0.152608 0.965161 0
849 1 0.172182 0.958046 0
879 1 0.167186 0.984056 0
850 1 0.186882 0.976576 0
11 1 0.201526 0.993213 0
852 1 0.207072 0.969308 0
881 1 0.181598 1.00128 0
883 1 0.227334 0.962069 0
882 1 0.221441 0.986799 0
884 1 0.241379 0.98152 0
1737 1 0.000300009 0.903393 0
886 1 0.256938 0.967436 0
16 1 0.262357 0.991964 0
17 1 0.276535 0.973851 0
18 1 0.282038 0.999473 0
887 1 0.290909 0.95558 0
888 1 0.295484 0.981381 0
858 1 0.310149 0.963569 0
889 1 0.31552 0.988033 0
891 1 0.329615 0.969236 0
890 1 0.334769 0.995569 0
862 1 0.349144 0.976552 0
892 1 0.354471 1.00095 0
864 1 0.364242 0.959603 0
893 1 0.370646 0.984067 0
895 1 0.384172 0.964998 0
896 1 0.389996 0.989563 0
866 1 0.404379 0.971904 0
897 1 0.409571 0.996137 0
868 1 0.423802 0.978534 0
899 1 0.443724 0.985463 0
1771 1 0.458344 0.966311 0
870 1 0.43803 0.959978 0
903 1 0.484197 0.997015 0
1774 1 0.497865 0.978204 0
1773 1 0.478034 0.972469 0
1772 1 0.46424 0.991577 0
904 1 0.509526 0.0275581 0
905 1 0.503521 0.00289102 0
906 1 0.523849 0.0100342 0
935 1 0.530716 0.0350719 0
908 1 0.543948 0.0155906 0
937 1 0.550591 0.040754 0
939 1 0.564444 0.0207426 0
940 1 0.585115 0.0268076 0
941 1 0.578487 0.00269225 0
971 1 0.789247 0.0454523 0
942 1 0.793572 0.0216337 0
944 1 0.809393 0.0394389 0
943 1 0.813982 0.01454 0
945 1 0.828732 0.0324739 0
914 1 0.833496 0.0077777 0
947 1 0.848759 0.0257645 0
916 1 0.853107 0.000588026 0
918 1 0.868087 0.0184714 0
949 1 0.882482 0.0367334 0
919 1 0.887244 0.011104 0
948 1 0.862769 0.0432248 0
920 1 0.901954 0.0286254 0
1790 1 0.907318 0.00504651 0
951 1 0.922201 0.0230339 0
952 1 0.936901 0.0405646 0
922 1 0.941805 0.0153545 0
953 1 0.955888 0.0340525 0
924 1 0.961079 0.00947067 0
955 1 0.97586 0.026821 0
925 1 0.98192 0.00220489 0
926 1 0.996169 0.0204133 0
956 1 0.990406 0.0447006 0
963 1 0.500606 0.0706978 0
934 1 0.515391 0.052106 0
965 1 0.521176 0.0769499 0
936 1 0.53599 0.0597505 0
938 1 0.570926 0.0460825 0
966 1 0.540751 0.0842994 0