ITEM: TIMESTEP
257000
ITEM: NUMBER OF ATOMS
1800
ITEM: BOX BOUNDS pp pp pp
-9.1671092340037834e+00 1.7416710923400569e+02
1.1826529217466231e+00 1.6381734707825530e+02
0.0000000000000000e+00 5.5000000000000000e+00
ITEM: ATOMS id type xs ys zs
930 1 0.0305946 0.0226986 0
929 1 0.0151334 0.00506118 0
959 1 0.00943986 0.0296429 0
31 1 0.0461996 0.0399859 0
2 1 0.051461 0.0147958 0
33 1 0.066617 0.0310536 0
3 1 0.0724376 0.00678595 0
4 1 0.0876824 0.0238856 0
6 1 0.10882 0.0181762 0
35 1 0.104427 0.0423862 0
1289 1 0.000214173 0.411837 0
37 1 0.125352 0.0344236 0
8 1 0.130309 0.009826 0
39 1 0.146534 0.0263239 0
880 1 0.152397 0.00146382 0
9 1 0.16797 0.0186139 0
40 1 0.184013 0.0356389 0
10 1 0.189575 0.0122879 0
69 1 0.162941 0.0427907 0
41 1 0.205591 0.029581 0
12 1 0.210549 0.00553338 0
14 1 0.227595 0.0243419 0
1168 1 0.000945411 0.320116 0
15 1 0.247076 0.0156867 0
45 1 0.244448 0.0407988 0
46 1 0.267936 0.0164501 0
77 1 0.270167 0.0406119 0
47 1 0.287805 0.0250576 0
19 1 0.303187 0.00571928 0
49 1 0.30862 0.0311674 0
20 1 0.324284 0.0121137 0
51 1 0.330478 0.0369063 0
21 1 0.345224 0.0187317 0
23 1 0.367432 0.0255566 0
22 1 0.351949 0.0423286 0
894 1 0.38309 0.00749281 0
892 1 0.361509 0.0012416 0
24 1 0.389484 0.0317273 0
25 1 0.404462 0.0128326 0
26 1 0.410293 0.0384059 0
27 1 0.426123 0.0205186 0
29 1 0.448166 0.0266116 0
28 1 0.431855 0.044423 0
898 1 0.441589 0.00162893 0
900 1 0.462851 0.00917751 0
30 1 0.468977 0.0331716 0
901 1 0.484762 0.0153692 0
931 1 0.491061 0.0394126 0
960 1 0.025424 0.046234 0
989 1 0.0197361 0.0715167 0
958 1 0.004177 0.0542796 0
990 1 0.0359698 0.089809 0
61 1 0.0411989 0.0650649 0
62 1 0.0573907 0.0811946 0
32 1 0.0619524 0.0575208 0
63 1 0.0783057 0.0743355 0
34 1 0.082619 0.0482684 0
65 1 0.0994263 0.0663379 0
66 1 0.114938 0.0832722 0
64 1 0.0944234 0.0915819 0
36 1 0.120884 0.0588623 0
67 1 0.13645 0.0764533 0
38 1 0.141732 0.0512084 0
68 1 0.15715 0.067886 0
70 1 0.173166 0.0848198 0
71 1 0.178363 0.0606856 0
72 1 0.194417 0.0778769 0
42 1 0.198906 0.0536149 0
43 1 0.2211 0.0473495 0
73 1 0.215356 0.0715515 0
44 1 0.236348 0.0650092 0
74 1 0.261457 0.0869054 0
75 1 0.257511 0.061702 0
105 1 0.232181 0.0890055 0
76 1 0.27807 0.0672555 0
48 1 0.29278 0.049156 0
79 1 0.299129 0.0736936 0
78 1 0.284006 0.0918982 0
50 1 0.315043 0.0557307 0
81 1 0.320376 0.0800489 0
52 1 0.336969 0.0611847 0
82 1 0.343035 0.0852931 0
83 1 0.358313 0.06707 0
53 1 0.373849 0.0502285 0
54 1 0.37989 0.0731938 0
55 1 0.395101 0.0565148 0
56 1 0.400628 0.0812785 0
57 1 0.416101 0.0625691 0
87 1 0.422019 0.0867313 0
58 1 0.438845 0.0688914 0
59 1 0.45354 0.0508183 0
89 1 0.459439 0.0751609 0
932 1 0.495804 0.0638865 0
60 1 0.474701 0.0568066 0
961 1 0.480606 0.0809844 0
1020 1 0.0310293 0.114004 0
1019 1 0.0149478 0.0960597 0
1049 1 0.0103239 0.121601 0
121 1 0.0479698 0.131306 0
91 1 0.0522937 0.106345 0
92 1 0.0685128 0.124225 0
93 1 0.0726691 0.0991395 0
94 1 0.0888675 0.116006 0
95 1 0.109845 0.108069 0
125 1 0.106138 0.132252 0
96 1 0.1265 0.124281 0
99 1 0.152375 0.092634 0
97 1 0.130618 0.100013 0
98 1 0.147734 0.116375 0
100 1 0.168967 0.109092 0
130 1 0.185207 0.127534 0
101 1 0.189405 0.101592 0
129 1 0.164191 0.134742 0
102 1 0.205411 0.118189 0
103 1 0.21068 0.0947795 0
104 1 0.226885 0.113888 0
106 1 0.247531 0.105072 0
137 1 0.253335 0.12887 0
107 1 0.268496 0.110801 0
109 1 0.289863 0.116442 0
108 1 0.275142 0.134687 0
80 1 0.305473 0.0983178 0
110 1 0.311714 0.122774 0
111 1 0.327257 0.103972 0
141 1 0.333191 0.128365 0
84 1 0.36387 0.0916715 0
113 1 0.349233 0.110433 0
112 1 0.369999 0.117453 0
143 1 0.354148 0.135244 0
85 1 0.384069 0.0980188 0
115 1 0.391663 0.122969 0
86 1 0.406347 0.105353 0
116 1 0.412849 0.129397 0
88 1 0.443852 0.0936896 0
117 1 0.428026 0.110728 0
119 1 0.449079 0.118014 0
118 1 0.433632 0.135317 0
90 1 0.465665 0.0997771 0
120 1 0.470793 0.123701 0
991 1 0.486821 0.104604 0
992 1 0.492003 0.130825 0
1050 1 0.027428 0.13931 0
1079 1 0.021515 0.163112 0
1048 1 0.00532329 0.145636 0
1077 1 0.000160714 0.172291 0
1080 1 0.0377734 0.179712 0
151 1 0.0430949 0.155493 0
122 1 0.0640546 0.14931 0
152 1 0.0618318 0.175644 0
153 1 0.0823164 0.164812 0
123 1 0.0856514 0.140866 0
124 1 0.103672 0.170263 0
126 1 0.121669 0.150913 0
157 1 0.141383 0.163886 0
127 1 0.14299 0.139536 0
155 1 0.125445 0.179453 0
128 1 0.162953 0.167805 0
159 1 0.179168 0.151671 0
132 1 0.183864 0.175749 0
131 1 0.200557 0.156211 0
133 1 0.216907 0.138991 0
134 1 0.22172 0.163669 0
163 1 0.205627 0.181318 0
135 1 0.237421 0.146299 0
165 1 0.244111 0.171061 0
136 1 0.259044 0.153322 0
167 1 0.265037 0.17774 0
138 1 0.280723 0.158183 0
139 1 0.296077 0.140744 0
169 1 0.30095 0.165614 0
140 1 0.317133 0.147118 0
171 1 0.322809 0.171314 0
142 1 0.339199 0.152835 0
172 1 0.344485 0.177392 0
173 1 0.360036 0.160623 0
114 1 0.375248 0.142458 0
144 1 0.381489 0.166678 0
145 1 0.396487 0.147531 0
146 1 0.403247 0.17309 0
147 1 0.417814 0.153621 0
148 1 0.439827 0.160017 0
177 1 0.423807 0.178906 0
149 1 0.455599 0.142496 0
150 1 0.460496 0.167117 0
1051 1 0.481887 0.172814 0
1021 1 0.476717 0.148624 0
1022 1 0.497445 0.154812 0
1107 1 0.0118495 0.213583 0
1109 1 0.0351781 0.216465 0
1078 1 0.0162419 0.189162 0
181 1 0.0515696 0.199933 0
183 1 0.0725076 0.207439 0
182 1 0.056967 0.224155 0
154 1 0.0874361 0.18872 0
185 1 0.093948 0.214147 0
156 1 0.109796 0.197277 0
186 1 0.115817 0.222398 0
158 1 0.131257 0.204909 0
160 1 0.147095 0.187069 0
189 1 0.153024 0.211482 0
161 1 0.168682 0.193429 0
191 1 0.175072 0.218047 0
162 1 0.189987 0.19972 0
192 1 0.196611 0.223943 0
193 1 0.211464 0.20625 0
164 1 0.227194 0.187568 0
195 1 0.23261 0.211989 0
166 1 0.248942 0.195049 0
196 1 0.253541 0.220097 0
197 1 0.270319 0.202019 0
168 1 0.285489 0.183981 0
198 1 0.275127 0.226417 0
199 1 0.292556 0.207797 0
170 1 0.307803 0.190165 0
200 1 0.313155 0.214401 0
201 1 0.328604 0.195837 0
202 1 0.334028 0.220329 0
174 1 0.365783 0.185117 0
203 1 0.349625 0.201925 0
204 1 0.371426 0.208516 0
233 1 0.355909 0.22623 0
175 1 0.38728 0.191277 0
205 1 0.392522 0.215759 0
176 1 0.408081 0.197376 0
207 1 0.414412 0.221759 0
179 1 0.44516 0.184535 0
178 1 0.42933 0.202807 0
209 1 0.450249 0.20932 0
180 1 0.465877 0.191655 0
1081 1 0.471745 0.21663 0
1052 1 0.487233 0.197755 0
1082 1 0.493097 0.224297 0
1140 1 0.0264591 0.260072 0
1110 1 0.0204052 0.235598 0
1108 1 0.00541778 0.253921 0
211 1 0.0419463 0.24188 0
212 1 0.0470746 0.26681 0
213 1 0.0636514 0.250668 0
184 1 0.0788576 0.231411 0
214 1 0.0847294 0.256545 0
215 1 0.0998874 0.238784 0
216 1 0.106098 0.263049 0
187 1 0.137453 0.228612 0
217 1 0.121799 0.246313 0
218 1 0.126965 0.27078 0
188 1 0.142586 0.253347 0
190 1 0.158922 0.235896 0
220 1 0.164486 0.260174 0
221 1 0.180161 0.241801 0
222 1 0.186062 0.266316 0
223 1 0.201984 0.248124 0
194 1 0.21751 0.230492 0
224 1 0.222958 0.2546 0
253 1 0.207402 0.272548 0
225 1 0.238938 0.237727 0
226 1 0.243988 0.262127 0
227 1 0.260153 0.244585 0
257 1 0.26563 0.268299 0
228 1 0.280919 0.250305 0
229 1 0.297458 0.232357 0
230 1 0.303774 0.256643 0
231 1 0.319203 0.237751 0
261 1 0.32514 0.263206 0
232 1 0.339979 0.244949 0
263 1 0.346232 0.269745 0
234 1 0.36135 0.25145 0
235 1 0.377078 0.233762 0
265 1 0.382934 0.257581 0
206 1 0.399009 0.239603 0
236 1 0.403384 0.264611 0
237 1 0.419821 0.245785 0
208 1 0.435939 0.227861 0
239 1 0.44079 0.253362 0
238 1 0.424558 0.270746 0
210 1 0.456303 0.235363 0
240 1 0.461891 0.259049 0
1111 1 0.477759 0.241756 0
1112 1 0.483846 0.265711 0
1139 1 0.0106506 0.277903 0
1169 1 0.0166506 0.302263 0
241 1 0.031429 0.284802 0
271 1 0.0380205 0.309019 0
243 1 0.0689085 0.274845 0
242 1 0.0529566 0.291315 0
244 1 0.0737546 0.299809 0
273 1 0.0580778 0.317974 0
245 1 0.0903901 0.281282 0
246 1 0.0951999 0.305611 0
247 1 0.111398 0.288422 0
248 1 0.116723 0.312327 0
249 1 0.132295 0.295185 0
219 1 0.147919 0.278055 0
250 1 0.154239 0.302002 0
251 1 0.169989 0.28381 0
281 1 0.176173 0.308567 0
252 1 0.191307 0.290336 0
283 1 0.19749 0.315147 0
254 1 0.213064 0.296594 0
255 1 0.228741 0.279247 0
285 1 0.234223 0.304556 0
256 1 0.249644 0.287507 0
287 1 0.255467 0.311138 0
259 1 0.287051 0.275309 0
258 1 0.271185 0.292985 0
288 1 0.277126 0.316684 0
289 1 0.294099 0.298644 0
260 1 0.308915 0.280499 0
291 1 0.31484 0.306276 0
262 1 0.3303 0.287754 0
292 1 0.336088 0.312434 0
293 1 0.351782 0.294449 0
264 1 0.367293 0.27578 0
295 1 0.372741 0.300444 0
294 1 0.356731 0.318969 0
266 1 0.387764 0.282388 0
297 1 0.394074 0.306608 0
267 1 0.409319 0.289231 0
298 1 0.415311 0.313011 0
268 1 0.430718 0.295657 0
269 1 0.445883 0.277468 0
270 1 0.451745 0.302257 0
1141 1 0.467322 0.283113 0
300 1 0.472749 0.308651 0
1171 1 0.488222 0.289825 0
1172 1 0.494179 0.314701 0
1229 1 0.0264942 0.352365 0
1170 1 0.0217101 0.327695 0
1199 1 0.00570352 0.345779 0
1200 1 0.0421375 0.335491 0
301 1 0.0483506 0.35932 0
272 1 0.0638631 0.341891 0
275 1 0.0791309 0.324024 0
274 1 0.0851694 0.348154 0
276 1 0.101009 0.330169 0
305 1 0.106725 0.354767 0
279 1 0.138403 0.319869 0
277 1 0.123149 0.337199 0
278 1 0.143854 0.344079 0
307 1 0.127688 0.361266 0
280 1 0.159928 0.326028 0
311 1 0.164845 0.350366 0
282 1 0.181557 0.332799 0
312 1 0.186527 0.356748 0
313 1 0.202927 0.339261 0
284 1 0.219466 0.321556 0
315 1 0.22378 0.346224 0
286 1 0.240206 0.329697 0
316 1 0.246043 0.354136 0
317 1 0.262062 0.335173 0
318 1 0.26689 0.360615 0
319 1 0.28281 0.342164 0
290 1 0.298834 0.322935 0
320 1 0.304436 0.348047 0
321 1 0.319667 0.330073 0
322 1 0.326155 0.354781 0
323 1 0.34147 0.336555 0
324 1 0.346672 0.36064 0
325 1 0.362366 0.343871 0
296 1 0.377949 0.325114 0
326 1 0.383174 0.349858 0
327 1 0.399692 0.331804 0
328 1 0.404859 0.356258 0
329 1 0.420402 0.337517 0
299 1 0.436668 0.319613 0
359 1 0.442494 0.344016 0
330 1 0.457616 0.326597 0
358 1 0.426674 0.362036 0
360 1 0.462339 0.351488 0
1201 1 0.478974 0.332431 0
1231 1 0.484249 0.357449 0
1259 1 0.0104111 0.370263 0
1230 1 0.0327719 0.377316 0
1260 1 0.0172382 0.394039 0
331 1 0.038383 0.401285 0
303 1 0.0693401 0.365789 0
302 1 0.0541184 0.383861 0
333 1 0.0757365 0.390239 0
332 1 0.0596617 0.407521 0
304 1 0.090141 0.372217 0
335 1 0.0966233 0.396976 0
306 1 0.112292 0.379365 0
337 1 0.117574 0.402979 0
308 1 0.133464 0.386013 0
309 1 0.148069 0.36827 0
339 1 0.155015 0.392394 0
310 1 0.169776 0.373684 0
341 1 0.17617 0.398442 0
314 1 0.208412 0.363382 0
343 1 0.192297 0.381103 0
342 1 0.197125 0.405926 0
344 1 0.21325 0.388268 0
345 1 0.229329 0.370493 0
346 1 0.234334 0.394988 0
347 1 0.250958 0.377705 0
377 1 0.2557 0.401652 0
348 1 0.272364 0.384237 0
349 1 0.288581 0.366617 0
378 1 0.27753 0.408151 0
350 1 0.293759 0.390944 0
351 1 0.309834 0.372608 0
381 1 0.315554 0.398242 0
353 1 0.331852 0.378698 0
352 1 0.336668 0.40332 0
354 1 0.353069 0.385203 0
355 1 0.36817 0.367836 0
356 1 0.373907 0.392044 0
357 1 0.388939 0.374293 0
386 1 0.395721 0.398634 0
387 1 0.410908 0.380531 0
388 1 0.416941 0.404774 0
389 1 0.432048 0.387321 0
1232 1 0.44774 0.369403 0
1261 1 0.453519 0.393221 0
1262 1 0.469004 0.375655 0
1293 1 0.475387 0.399305 0
1263 1 0.490996 0.381398 0
1294 1 0.496848 0.40651 0
1319 1 0.00633245 0.435327 0
391 1 0.0276924 0.442763 0
1290 1 0.0216513 0.418127 0
361 1 0.0437367 0.425899 0
362 1 0.0487462 0.449642 0
363 1 0.0649814 0.431754 0
364 1 0.0707692 0.457044 0
334 1 0.0806864 0.414891 0
365 1 0.0862621 0.439872 0
336 1 0.10162 0.421721 0
366 1 0.10834 0.444945 0
338 1 0.138981 0.409658 0
367 1 0.122876 0.426787 0
369 1 0.143805 0.433786 0
368 1 0.129566 0.451968 0
340 1 0.160393 0.417172 0
370 1 0.166254 0.440739 0
371 1 0.181318 0.422119 0
401 1 0.186625 0.447912 0
372 1 0.20232 0.430413 0
373 1 0.218295 0.412555 0
374 1 0.22306 0.43756 0
375 1 0.239974 0.420023 0
405 1 0.245652 0.444091 0
376 1 0.260853 0.426372 0
407 1 0.267207 0.451534 0
409 1 0.282159 0.433286 0
379 1 0.299567 0.41498 0
380 1 0.30493 0.439759 0
382 1 0.320399 0.421971 0
413 1 0.326189 0.44575 0
383 1 0.342637 0.427562 0
385 1 0.357936 0.409273 0
414 1 0.363905 0.433429 0
412 1 0.347465 0.452283 0
384 1 0.379459 0.415641 0
415 1 0.385483 0.44079 0
417 1 0.401174 0.423053 0
416 1 0.40652 0.447951 0
418 1 0.422541 0.429273 0
419 1 0.437824 0.411003 0
390 1 0.443492 0.436255 0
447 1 0.427896 0.454134 0
1291 1 0.458945 0.417114 0
1292 1 0.48045 0.422897 0
1321 1 0.465356 0.441702 0
1322 1 0.487254 0.447444 0
1320 1 0.011335 0.459387 0
421 1 0.0163897 0.483693 0
392 1 0.0326945 0.467398 0
422 1 0.0381229 0.491635 0
393 1 0.0544715 0.474717 0
394 1 0.0767459 0.481026 0
423 1 0.0596191 0.498456 0
395 1 0.0928439 0.463338 0
396 1 0.0970812 0.488204 0
397 1 0.113054 0.469599 0
427 1 0.118253 0.493883 0
399 1 0.15049 0.458179 0
398 1 0.133889 0.476586 0
429 1 0.156296 0.484583 0
400 1 0.171196 0.466153 0
431 1 0.177308 0.490846 0
403 1 0.20791 0.455537 0
402 1 0.19245 0.473307 0
432 1 0.197984 0.498242 0
433 1 0.213322 0.479243 0
404 1 0.229651 0.461108 0
435 1 0.236427 0.486019 0
406 1 0.251869 0.468324 0
436 1 0.257702 0.493524 0
408 1 0.273625 0.476148 0
410 1 0.288767 0.457955 0
441 1 0.295122 0.483012 0
1202 1 0.499792 0.338833 0
411 1 0.310648 0.464037 0
440 1 0.316469 0.488278 0
442 1 0.331617 0.4702 0
471 1 0.33779 0.493917 0
473 1 0.353958 0.476885 0
443 1 0.36872 0.457563 0
444 1 0.374929 0.482613 0
445 1 0.389838 0.464922 0
475 1 0.396142 0.488926 0
446 1 0.411803 0.471137 0
477 1 0.418543 0.495351 0
449 1 0.455288 0.483736 0
448 1 0.434251 0.477631 0
420 1 0.450529 0.459557 0
1352 1 0.498334 0.497336 0
1353 1 0.492555 0.472371 0
450 1 0.471356 0.465454 0
1351 1 0.477539 0.489663 0
1113 1 0.499321 0.248661 0
452 1 0.0274513 0.533577 0
451 1 0.0219876 0.508988 0
1380 1 0.00612574 0.526498 0
1350 1 0.000442256 0.501286 0
453 1 0.0434268 0.515812 0
454 1 0.0497941 0.540817 0
424 1 0.0655505 0.522475 0
425 1 0.0817669 0.505942 0
455 1 0.0873302 0.530278 0
426 1 0.10261 0.512814 0
456 1 0.108141 0.537856 0
457 1 0.124101 0.518944 0
459 1 0.144443 0.527408 0
458 1 0.128932 0.544009 0
428 1 0.140453 0.500978 0
430 1 0.160867 0.510085 0
460 1 0.16668 0.533659 0
461 1 0.183344 0.515932 0
462 1 0.188826 0.540422 0
463 1 0.204899 0.521724 0
434 1 0.220481 0.502935 0
464 1 0.226724 0.529244 0
465 1 0.241534 0.510473 0
466 1 0.247466 0.535758 0
437 1 0.262578 0.518138 0
497 1 0.269067 0.542682 0
467 1 0.283378 0.524048 0
438 1 0.300257 0.507369 0
468 1 0.305962 0.531375 0
469 1 0.322288 0.511841 0
499 1 0.327098 0.536161 0
470 1 0.344183 0.519235 0
503 1 0.365185 0.525591 0
501 1 0.348553 0.543172 0
474 1 0.38011 0.507277 0
472 1 0.359002 0.501685 0
505 1 0.386703 0.531291 0
476 1 0.401811 0.512989 0
506 1 0.408165 0.537135 0
507 1 0.423684 0.519646 0
480 1 0.445896 0.52676 0
478 1 0.440123 0.502686 0
479 1 0.461692 0.507495 0
510 1 0.466456 0.532758 0
1381 1 0.482613 0.514361 0
1411 1 0.488039 0.540152 0
481 1 0.0125892 0.551309 0
483 1 0.0338129 0.558005 0
1410 1 0.0183848 0.57583 0
482 1 0.0401901 0.581705 0
485 1 0.0710886 0.546957 0
513 1 0.0551853 0.564029 0
514 1 0.0615455 0.587934 0
484 1 0.0776237 0.571184 0
486 1 0.0930669 0.554361 0
515 1 0.09867 0.579182 0
487 1 0.113785 0.561893 0
517 1 0.120344 0.585406 0
489 1 0.151402 0.551441 0
488 1 0.135638 0.567825 0
490 1 0.157734 0.575078 0
491 1 0.172822 0.558092 0
521 1 0.177902 0.5819 0
493 1 0.210705 0.545932 0
492 1 0.194939 0.564769 0
523 1 0.200124 0.589119 0
494 1 0.216284 0.570625 0
495 1 0.232348 0.554176 0
525 1 0.237587 0.577183 0
496 1 0.254194 0.559579 0
526 1 0.258226 0.584455 0
527 1 0.27538 0.566424 0
498 1 0.290194 0.548577 0
529 1 0.296594 0.572946 0
500 1 0.311524 0.554686 0
530 1 0.317689 0.57912 0
531 1 0.332836 0.560331 0
532 1 0.339404 0.586024 0
533 1 0.35524 0.567981 0
502 1 0.370419 0.550283 0
534 1 0.376566 0.574824 0
504 1 0.392199 0.554807 0
535 1 0.398367 0.579545 0
508 1 0.413719 0.562362 0
537 1 0.420287 0.586486 0
509 1 0.429493 0.543773 0
539 1 0.435225 0.568611 0
540 1 0.451097 0.551201 0
569 1 0.457236 0.575447 0
1442 1 0.478338 0.582831 0
1441 1 0.472647 0.558133 0
1412 1 0.494018 0.565735 0
1773 1 0.494094 0.972491 0
511 1 0.0244512 0.60007 0
541 1 0.0301402 0.625456 0
1440 1 0.00885237 0.617539 0
1439 1 0.0028355 0.593229 0
512 1 0.0459544 0.606477 0
542 1 0.0510193 0.630986 0
543 1 0.0672747 0.613303 0
545 1 0.0828017 0.596336 0
546 1 0.0891762 0.619811 0
516 1 0.104553 0.602803 0
547 1 0.109856 0.628015 0
518 1 0.126068 0.609986 0
519 1 0.141537 0.592075 0
548 1 0.147253 0.616898 0
577 1 0.131595 0.634361 0
520 1 0.162807 0.5997 0
549 1 0.168425 0.624241 0
522 1 0.184429 0.60648 0
551 1 0.190434 0.630342 0
553 1 0.206104 0.613018 0
524 1 0.22153 0.594957 0
554 1 0.227356 0.618923 0
555 1 0.243243 0.601884 0
556 1 0.249303 0.62632 0
557 1 0.264469 0.607729 0
528 1 0.28032 0.589696 0
558 1 0.286056 0.614169 0
587 1 0.27085 0.633008 0
559 1 0.301318 0.597076 0
560 1 0.307495 0.620702 0
561 1 0.322851 0.603267 0
591 1 0.328857 0.62749 0
562 1 0.344249 0.60976 0
563 1 0.361274 0.591916 0
565 1 0.367266 0.616475 0
564 1 0.351237 0.634106 0
536 1 0.382672 0.598168 0
566 1 0.388903 0.622564 0
567 1 0.405693 0.604938 0
597 1 0.409999 0.629716 0
568 1 0.427007 0.611071 0
538 1 0.441168 0.592181 0
600 1 0.447656 0.61788 0
570 1 0.4632 0.600081 0
1501 1 0.469591 0.623525 0
1471 1 0.485147 0.607171 0
1472 1 0.490315 0.631669 0
1470 1 0.0135519 0.641819 0
571 1 0.0349985 0.649764 0
1500 1 0.0106434 0.666274 0
572 1 0.0424498 0.673023 0
544 1 0.0734765 0.637538 0
573 1 0.0577058 0.655282 0
603 1 0.0621351 0.680199 0
574 1 0.0779746 0.66218 0
575 1 0.0937698 0.645559 0
605 1 0.0992798 0.669759 0
576 1 0.114546 0.651962 0
607 1 0.120507 0.675889 0
578 1 0.137285 0.659428 0
579 1 0.152887 0.641204 0
609 1 0.158888 0.66513 0
550 1 0.174541 0.647147 0
580 1 0.179911 0.671863 0
552 1 0.211772 0.637016 0
581 1 0.196049 0.654192 0
611 1 0.201673 0.678348 0
582 1 0.218055 0.660208 0
583 1 0.233825 0.6434 0
584 1 0.239137 0.667858 0
585 1 0.255839 0.65126 0
615 1 0.261832 0.674986 0
586 1 0.276238 0.657062 0
589 1 0.292166 0.638916 0
588 1 0.298025 0.662084 0
590 1 0.313516 0.644625 0
621 1 0.319976 0.668773 0
593 1 0.335484 0.652625 0
592 1 0.341139 0.676819 0
594 1 0.357063 0.65917 0
595 1 0.372818 0.640751 0
625 1 0.378548 0.665039 0
596 1 0.393917 0.647843 0
627 1 0.39984 0.671653 0
598 1 0.416397 0.65301 0
657 1 0.42179 0.677936 0
599 1 0.432016 0.634655 0
628 1 0.437595 0.658851 0
629 1 0.453811 0.641726 0
630 1 0.458828 0.666085 0
1503 1 0.495708 0.657161 0
1502 1 0.47502 0.649377 0
1533 1 0.479465 0.673399 0
601 1 0.0245474 0.684569 0
631 1 0.0194799 0.707506 0
632 1 0.0370125 0.722754 0
1530 1 0.00387076 0.691 0
602 1 0.0436119 0.698994 0
633 1 0.0660494 0.705672 0
604 1 0.0835622 0.686662 0
635 1 0.0879349 0.711771 0
606 1 0.104731 0.693683 0
636 1 0.111359 0.717703 0
637 1 0.127645 0.700842 0
608 1 0.142988 0.682486 0
638 1 0.14846 0.70715 0
667 1 0.133301 0.725396 0
639 1 0.164084 0.689076 0
641 1 0.169304 0.71324 0
610 1 0.185831 0.696479 0
642 1 0.19224 0.720258 0
612 1 0.208112 0.702678 0
613 1 0.222855 0.685203 0
643 1 0.230145 0.709247 0
614 1 0.245572 0.690796 0
645 1 0.251335 0.716335 0
616 1 0.267026 0.699646 0
617 1 0.283392 0.681469 0
647 1 0.272595 0.723621 0
618 1 0.288674 0.705417 0
619 1 0.30392 0.687173 0
620 1 0.309642 0.712478 0
622 1 0.325021 0.69517 0
651 1 0.330426 0.719728 0
623 1 0.363039 0.684001 0
653 1 0.346915 0.701442 0
624 1 0.369179 0.707538 0
654 1 0.35231 0.725617 0
626 1 0.384362 0.689704 0
655 1 0.390706 0.715764 0
656 1 0.406014 0.696629 0
686 1 0.412415 0.72094 0
658 1 0.427394 0.702568 0
659 1 0.442762 0.683601 0
660 1 0.449418 0.709442 0
1531 1 0.464203 0.691202 0
1561 1 0.470231 0.715738 0
1532 1 0.485347 0.699123 0
1563 1 0.491259 0.722898 0
663 1 0.0318122 0.748238 0
661 1 0.0157734 0.731132 0
1590 1 0.0102414 0.755127 0
662 1 0.0480109 0.765753 0
634 1 0.0730947 0.730235 0
664 1 0.0525071 0.742032 0
695 1 0.0703602 0.757408 0
665 1 0.0941002 0.736209 0
697 1 0.101612 0.760863 0
666 1 0.116861 0.742165 0
668 1 0.124026 0.765877 0
669 1 0.13999 0.748688 0
640 1 0.155133 0.730837 0
670 1 0.161016 0.754289 0
671 1 0.177254 0.73798 0
672 1 0.183403 0.762281 0
644 1 0.214141 0.727748 0
673 1 0.19893 0.744933 0
703 1 0.203765 0.769796 0
674 1 0.219664 0.751764 0
675 1 0.23576 0.733745 0
705 1 0.240903 0.759562 0
646 1 0.256558 0.74188 0
677 1 0.262995 0.767106 0
648 1 0.27816 0.748761 0
649 1 0.293484 0.730439 0
679 1 0.300166 0.755238 0
678 1 0.28517 0.772989 0
650 1 0.315499 0.737503 0
681 1 0.321845 0.762488 0
652 1 0.337024 0.743259 0
682 1 0.343199 0.768081 0
683 1 0.358447 0.749916 0
685 1 0.374469 0.732281 0
684 1 0.380389 0.756071 0
715 1 0.396523 0.73936 0
714 1 0.402733 0.76319 0
717 1 0.417545 0.745343 0
687 1 0.433164 0.726756 0
716 1 0.423869 0.77019 0
688 1 0.43888 0.751044 0
689 1 0.454376 0.733759 0
719 1 0.460679 0.757864 0
690 1 0.476632 0.740538 0
1591 1 0.48147 0.765979 0
1562 1 0.496255 0.748586 0
691 1 0.0259796 0.772653 0
721 1 0.0203003 0.797259 0
1620 1 0.00393542 0.780373 0
692 1 0.0353711 0.815947 0
693 1 0.0417122 0.790203 0
723 1 0.0562956 0.808438 0
694 1 0.0627891 0.784112 0
725 1 0.0783092 0.801842 0
696 1 0.0841788 0.776915 0
727 1 0.0996483 0.795397 0
726 1 0.0934747 0.819768 0
728 1 0.11436 0.813295 0
698 1 0.120801 0.789403 0
699 1 0.143842 0.773838 0
700 1 0.134955 0.80728 0
731 1 0.152755 0.795975 0
701 1 0.166915 0.778967 0
702 1 0.188085 0.787168 0
732 1 0.172589 0.804884 0
763 1 0.193784 0.812274 0
733 1 0.20938 0.794729 0
704 1 0.224786 0.777541 0
706 1 0.231665 0.801082 0
676 1 0.247525 0.783517 0
737 1 0.253622 0.808442 0
707 1 0.269103 0.790306 0
738 1 0.27481 0.815784 0
708 1 0.290484 0.797641 0
709 1 0.305338 0.780026 0
710 1 0.31328 0.804718 0
680 1 0.328333 0.786514 0
741 1 0.334704 0.809966 0
713 1 0.365125 0.775628 0
711 1 0.349314 0.792303 0
712 1 0.371429 0.798921 0
742 1 0.356546 0.816738 0
743 1 0.387028 0.781006 0
745 1 0.393581 0.805186 0
746 1 0.408533 0.78765 0
775 1 0.415132 0.81295 0
718 1 0.445036 0.776968 0
747 1 0.430104 0.794511 0
749 1 0.451877 0.801492 0
720 1 0.466319 0.782774 0
1621 1 0.473044 0.809914 0
1592 1 0.487403 0.790202 0
1622 1 0.494651 0.814709 0
1680 1 0.0299755 0.839597 0
1650 1 0.0138704 0.821917 0
1709 1 0.00885905 0.847816 0
752 1 0.0459516 0.857553 0
751 1 0.0520408 0.832788 0
753 1 0.0671164 0.850655 0
722 1 0.0720067 0.825695 0
724 1 0.0880926 0.843856 0
757 1 0.108521 0.837911 0
755 1 0.10392 0.86126 0
756 1 0.12561 0.853822 0
729 1 0.131613 0.83056 0
759 1 0.14728 0.847003 0
730 1 0.152733 0.822261 0
761 1 0.176154 0.83038 0
792 1 0.1833 0.854999 0
760 1 0.162638 0.863839 0
762 1 0.198541 0.836831 0
735 1 0.215612 0.819291 0
734 1 0.22095 0.843439 0
736 1 0.237366 0.82561 0
765 1 0.243867 0.850836 0
767 1 0.259124 0.832947 0
766 1 0.265558 0.857121 0
768 1 0.28172 0.839269 0
739 1 0.297205 0.8215 0
769 1 0.303377 0.846812 0
740 1 0.319095 0.829095 0
770 1 0.325175 0.853737 0
771 1 0.340811 0.834477 0
801 1 0.34675 0.858929 0
773 1 0.362867 0.841621 0
744 1 0.378024 0.823165 0
803 1 0.384092 0.848138 0
774 1 0.399409 0.830228 0
776 1 0.40544 0.856144 0
777 1 0.42011 0.838169 0
748 1 0.436444 0.818523 0
779 1 0.441977 0.844853 0
778 1 0.427327 0.862787 0
750 1 0.456964 0.826754 0
1651 1 0.479836 0.833438 0
780 1 0.463692 0.85042 0
1652 1 0.48547 0.857821 0
1710 1 0.00435124 0.872935 0
781 1 0.0253591 0.864903 0
811 1 0.0200269 0.889216 0
812 1 0.0354305 0.90613 0
782 1 0.0412649 0.88241 0
813 1 0.0565573 0.89906 0
783 1 0.0619087 0.874865 0
784 1 0.078004 0.891596 0
754 1 0.0828881 0.867455 0
785 1 0.0991676 0.885159 0
786 1 0.114711 0.902125 0
787 1 0.120364 0.878391 0
788 1 0.136471 0.895207 0
758 1 0.141351 0.871132 0
789 1 0.157372 0.888262 0
790 1 0.174124 0.904136 0
791 1 0.179123 0.879973 0
764 1 0.205419 0.862478 0
823 1 0.194592 0.897912 0
793 1 0.213826 0.886924 0
795 1 0.227998 0.867615 0
794 1 0.234992 0.893032 0
796 1 0.249057 0.874876 0
825 1 0.256404 0.899342 0
797 1 0.287234 0.864284 0
827 1 0.271774 0.881164 0
826 1 0.278005 0.906414 0
798 1 0.293708 0.888834 0
799 1 0.308605 0.870811 0
829 1 0.315577 0.895671 0
800 1 0.331894 0.877594 0
831 1 0.336979 0.902515 0
802 1 0.351923 0.884629 0
772 1 0.368465 0.865993 0
804 1 0.373605 0.891134 0
833 1 0.358587 0.909703 0
805 1 0.389511 0.872873 0
806 1 0.396 0.897531 0
807 1 0.411944 0.880978 0
837 1 0.417932 0.905435 0
809 1 0.448862 0.868752 0
808 1 0.433215 0.886607 0
810 1 0.454826 0.893614 0
1681 1 0.469488 0.875412 0
1711 1 0.476386 0.899454 0
1682 1 0.491062 0.881393 0
1713 1 0.498327 0.904753 0
841 1 0.0305364 0.931783 0
1740 1 0.0147119 0.913531 0
1769 1 0.00921393 0.938949 0
1770 1 0.0253047 0.955892 0
842 1 0.0465435 0.948554 0
843 1 0.0509189 0.923889 0
844 1 0.066738 0.940821 0
814 1 0.0724072 0.91635 0
815 1 0.0930579 0.909488 0
845 1 0.0876505 0.93374 0
816 1 0.10964 0.926284 0
846 1 0.103971 0.9498 0
847 1 0.124738 0.942939 0
819 1 0.152842 0.911994 0
817 1 0.131352 0.918953 0
818 1 0.146167 0.936588 0
820 1 0.168251 0.928772 0
851 1 0.184329 0.945732 0
821 1 0.18997 0.921405 0
849 1 0.162076 0.953704 0
822 1 0.206191 0.938838 0
824 1 0.212165 0.912715 0
853 1 0.22644 0.932834 0
855 1 0.242429 0.916633 0
854 1 0.247351 0.94199 0
856 1 0.263253 0.923947 0
885 1 0.269949 0.947839 0
857 1 0.285167 0.929837 0
828 1 0.300114 0.911846 0
859 1 0.306261 0.936924 0
830 1 0.321679 0.919667 0
860 1 0.327543 0.945131 0
832 1 0.343226 0.927007 0
863 1 0.365314 0.933352 0
861 1 0.349975 0.951313 0
834 1 0.380542 0.91477 0
865 1 0.386575 0.939227 0
835 1 0.402178 0.921875 0
836 1 0.40769 0.945996 0
838 1 0.424043 0.928755 0
839 1 0.439485 0.910765 0
869 1 0.445069 0.935237 0
867 1 0.430032 0.95282 0
840 1 0.460701 0.917618 0
1712 1 0.482381 0.923135 0
1741 1 0.467182 0.940577 0
1742 1 0.487985 0.947944 0
1799 1 0.00413804 0.962899 0
1800 1 0.0198688 0.980018 0
1 1 0.0353565 0.997555 0
871 1 0.0412234 0.973703 0
872 1 0.0564095 0.989953 0
873 1 0.0621116 0.965817 0
874 1 0.0773864 0.982915 0
875 1 0.0827182 0.957986 0
876 1 0.0987454 0.975238 0
7 1 0.114892 0.992951 0
877 1 0.119915 0.967426 0
878 1 0.135719 0.985231 0
848 1 0.140634 0.960715 0
879 1 0.157475 0.977545 0
881 1 0.173914 0.994208 0
850 1 0.178994 0.970035 0
11 1 0.194051 0.986861 0
852 1 0.200834 0.962974 0
883 1 0.223288 0.956706 0
882 1 0.215388 0.980668 0
884 1 0.236394 0.975873 0
886 1 0.255104 0.965604 0
16 1 0.256025 0.990852 0
18 1 0.281715 0.997603 0
887 1 0.290094 0.955576 0
17 1 0.275175 0.973771 0
888 1 0.296784 0.980386 0
858 1 0.311764 0.962494 0
889 1 0.318705 0.98722 0
891 1 0.33376 0.968742 0
890 1 0.339654 0.994356 0
862 1 0.355346 0.97641 0
864 1 0.370965 0.957588 0
893 1 0.376283 0.981887 0
895 1 0.392403 0.964465 0
896 1 0.398563 0.989074 0
866 1 0.414093 0.970005 0
897 1 0.420178 0.995211 0
868 1 0.435023 0.976931 0
899 1 0.456757 0.984762 0
870 1 0.450925 0.95942 0
1772 1 0.478724 0.991023 0
1771 1 0.471467 0.965918 0
5 1 0.0939445 0.999457 0
13 1 0.231656 0.999635 0
439 1 0.278188 0.499972 0
902 1 0.50638 0.0206796 0
904 1 0.528984 0.027783 0
905 1 0.522309 0.00361364 0
906 1 0.543623 0.0103122 0
935 1 0.550107 0.0351256 0
908 1 0.564976 0.0174933 0
937 1 0.571916 0.0426869 0
939 1 0.586995 0.023018 0
940 1 0.609304 0.0292178 0
941 1 0.602868 0.0044933 0
942 1 0.754492 0.0240386 0
944 1 0.769745 0.0411926 0
943 1 0.77643 0.0161507 0
945 1 0.791662 0.0348007 0
914 1 0.797107 0.0106788 0
947 1 0.813197 0.0270336 0
918 1 0.833699 0.0195839 0
916 1 0.818051 0.00207755 0
948 1 0.829853 0.0441945 0
949 1 0.850213 0.0380082 0
919 1 0.856003 0.014189 0
920 1 0.871378 0.0311619 0
1790 1 0.8768 0.0071734 0
951 1 0.892808 0.0241319 0
922 1 0.913684 0.0162137 0
952 1 0.908068 0.0412579 0
953 1 0.928942 0.0333385 0
924 1 0.934614 0.00876824 0
955 1 0.949789 0.0268726 0
925 1 0.955524 0.00236562 0
926 1 0.970841 0.019378 0
957 1 0.988458 0.0369354 0
928 1 0.993207 0.0118846 0
933 1 0.513447 0.0462223 0
963 1 0.518622 0.0709691 0
934 1 0.53486 0.0533062 0
962 1 0.502564 0.0875065 0
965 1 0.540427 0.0779346 0
936 1 0.556769 0.0603927 0
966 1 0.562701 0.0845203 0
967 1 0.578107 0.0664739 0
938 1 0.593406 0.0480024 0
968 1 0.584396 0.0914845 0
969 1 0.599246 0.0727285 0
971 1 0.748702 0.0481476 0
970 1 0.742435 0.0727872 0
973 1 0.764408 0.0654421 0
972 1 0.758848 0.0900484 0
975 1 0.786795 0.0597246 0
1003 1 0.780708 0.0836633 0
974 1 0.802748 0.076334 0
946 1 0.808528 0.0515479 0
976 1 0.82377 0.069243 0
1007 1 0.839918 0.0870294 0
977 1 0.844909 0.0628779 0
979 1 0.866359 0.0558519 0
978 1 0.860833 0.0810706 0
980 1 0.882036 0.0746883 0
950 1 0.887261 0.0500319 0
981 1 0.903801 0.0667374 0
982 1 0.92006 0.08456 0
1011 1 0.898625 0.0917172 0
983 1 0.92481 0.0602549 0
984 1 0.941696 0.0768416 0
954 1 0.94463 0.0508978 0
956 1 0.966839 0.0437427 0
985 1 0.962139 0.0685727 0
987 1 0.983091 0.060757 0
988 1 0.998919 0.0783149 0
986 1 0.977522 0.0867212 0
964 1 0.524733 0.0949316 0
993 1 0.508471 0.113608 0
994 1 0.529921 0.120747 0
995 1 0.545704 0.102272 0
996 1 0.551046 0.126979 0
997 1 0.566964 0.109223 0
1027 1 0.572054 0.133827 0
998 1 0.588358 0.117077 0
1000 1 0.609384 0.122941 0
1030 1 0.631142 0.129452 0
999 1 0.647543 0.111405 0
1001 1 0.668394 0.11899 0
1002 1 0.689479 0.127187 0
1033 1 0.775382 0.107261 0
1065 1 0.791355 0.124275 0
1004 1 0.796809 0.0997301 0
1035 1 0.812732 0.11693 0
1005 1 0.817823 0.0931891 0
1006 1 0.834196 0.111105 0
1036 1 0.829139 0.13581 0
1037 1 0.850831 0.130385 0
1008 1 0.855222 0.105497 0
1039 1 0.871671 0.122421 0
1009 1 0.876836 0.0987229 0
1010 1 0.893388 0.115627 0
1012 1 0.915123 0.108521 0
1041 1 0.909756 0.133177 0
1015 1 0.956266 0.094758 0
1043 1 0.931107 0.125991 0
1013 1 0.935764 0.102025 0
1014 1 0.952479 0.119475 0
1017 1 0.972387 0.111694 0
1018 1 0.993562 0.103139 0
1047 1 0.98945 0.128437 0
1023 1 0.514299 0.138748 0
1024 1 0.51879 0.162757 0
1025 1 0.535266 0.145712 0
1053 1 0.502569 0.179447 0
1055 1 0.540386 0.169461 0
1026 1 0.556834 0.151854 0
1057 1 0.561354 0.17662 0
1028 1 0.577631 0.158893 0
1029 1 0.593223 0.141702 0
1058 1 0.599251 0.165484 0
1059 1 0.615383 0.146996 0
1032 1 0.652723 0.136633 0