ITEM: TIMESTEP
149000
ITEM: NUMBER OF ATOMS
1800
ITEM: BOX BOUNDS pp pp pp
-4.8177928417040015e+00 1.6981779284170591e+02
1.1826529217466231e+00 1.6381734707825530e+02
0.0000000000000000e+00 5.5000000000000000e+00
ITEM: ATOMS id type xs ys zs
2 1 0.0383818 0.0188165 0
930 1 0.0163722 0.0264309 0
31 1 0.0326165 0.043773 0
1 1 0.0210393 0.00282319 0
33 1 0.0548607 0.0371159 0
3 1 0.0605892 0.0115154 0
4 1 0.0764932 0.0287396 0
5 1 0.0818497 0.00257106 0
6 1 0.0981376 0.0203719 0
8 1 0.120692 0.012374 0
37 1 0.116682 0.0375307 0
35 1 0.094319 0.0449622 0
39 1 0.138254 0.0291719 0
880 1 0.142246 0.00441426 0
9 1 0.160772 0.0222102 0
69 1 0.155181 0.0464054 0
40 1 0.177512 0.0398497 0
10 1 0.181232 0.0145758 0
41 1 0.199375 0.0305448 0
12 1 0.203704 0.00517236 0
14 1 0.22102 0.0222413 0
15 1 0.242266 0.0142167 0
45 1 0.238573 0.0387319 0
16 1 0.264791 0.00688248 0
46 1 0.259388 0.0303913 0
47 1 0.287503 0.0250459 0
449 1 0.468791 0.484915 0
49 1 0.309927 0.0333538 0
19 1 0.306014 0.00934458 0
20 1 0.327438 0.0137705 0
51 1 0.332985 0.0376536 0
21 1 0.349743 0.0194863 0
23 1 0.371051 0.0260612 0
892 1 0.364717 0.000215247 0
22 1 0.355044 0.0443677 0
894 1 0.387466 0.00726159 0
24 1 0.394284 0.0330337 0
25 1 0.410397 0.0148848 0
27 1 0.432341 0.0195778 0
26 1 0.416809 0.0384872 0
29 1 0.454499 0.0251406 0
28 1 0.43953 0.0432133 0
900 1 0.471472 0.0065314 0
30 1 0.477155 0.0316253 0
901 1 0.493717 0.0122053 0
420 1 0.462135 0.46097 0
989 1 0.00568244 0.0756875 0
61 1 0.0273439 0.0683304 0
960 1 0.0103274 0.0514574 0
62 1 0.0449954 0.085428 0
32 1 0.0495122 0.061161 0
63 1 0.0671143 0.0775948 0
34 1 0.0715395 0.053378 0
65 1 0.0893844 0.0700967 0
36 1 0.112243 0.0625487 0
66 1 0.106684 0.086579 0
67 1 0.128911 0.0789709 0
38 1 0.134362 0.055304 0
68 1 0.150838 0.0715674 0
70 1 0.16828 0.0888408 0
71 1 0.171988 0.0636816 0
72 1 0.190482 0.0799597 0
42 1 0.193981 0.0554243 0
73 1 0.212128 0.0722262 0
43 1 0.216002 0.0474498 0
44 1 0.234111 0.0627317 0
105 1 0.231273 0.0876497 0
74 1 0.254338 0.0820726 0
75 1 0.255852 0.0574689 0
76 1 0.276747 0.0710832 0
77 1 0.275664 0.0456574 0
48 1 0.296861 0.0527988 0
79 1 0.300706 0.0765066 0
50 1 0.318475 0.0563388 0
81 1 0.323116 0.0816293 0
52 1 0.340547 0.0623164 0
83 1 0.36244 0.0688412 0
82 1 0.345484 0.0866584 0
53 1 0.377222 0.0500765 0
54 1 0.385253 0.0743583 0
55 1 0.39999 0.0560945 0
56 1 0.407579 0.0808548 0
57 1 0.423216 0.0622869 0
58 1 0.445687 0.067362 0
87 1 0.429886 0.0862321 0
59 1 0.461462 0.0496285 0
89 1 0.467758 0.0741655 0
60 1 0.484256 0.0550225 0
961 1 0.490055 0.0792359 0
990 1 0.0222877 0.0922519 0
91 1 0.0396893 0.109724 0
1020 1 0.017688 0.117833 0
121 1 0.0355428 0.135141 0
1019 1 0.000264804 0.101202 0
92 1 0.05721 0.127203 0
93 1 0.0620018 0.102868 0
94 1 0.0789506 0.118612 0
64 1 0.0837762 0.0932964 0
95 1 0.100884 0.110344 0
96 1 0.117338 0.127509 0
97 1 0.123145 0.10386 0
125 1 0.0961907 0.135534 0
98 1 0.140836 0.120614 0
99 1 0.145868 0.0963465 0
100 1 0.16333 0.112134 0
130 1 0.181174 0.129394 0
101 1 0.186046 0.104877 0
102 1 0.203083 0.121035 0
103 1 0.209061 0.0970021 0
104 1 0.22764 0.122556 0
106 1 0.247188 0.104999 0
137 1 0.25045 0.129525 0
107 1 0.268812 0.113059 0
78 1 0.284255 0.0943949 0
109 1 0.290475 0.118266 0
80 1 0.307161 0.0996664 0
110 1 0.313205 0.123601 0
111 1 0.330022 0.104751 0
141 1 0.335676 0.129863 0
113 1 0.351866 0.111458 0
84 1 0.368653 0.0919144 0
143 1 0.359008 0.13613 0
112 1 0.374383 0.116132 0
85 1 0.39063 0.0988486 0
115 1 0.397281 0.123936 0
86 1 0.413595 0.104965 0
88 1 0.452103 0.0926966 0
116 1 0.419257 0.129599 0
117 1 0.436314 0.111062 0
119 1 0.458787 0.117214 0
90 1 0.475504 0.0986237 0
120 1 0.482053 0.123131 0
991 1 0.497438 0.104263 0
1079 1 0.00804252 0.16787 0
151 1 0.0302719 0.160235 0
1050 1 0.0134847 0.142458 0
152 1 0.0483734 0.178018 0
122 1 0.0524362 0.151746 0
153 1 0.0695221 0.167941 0
123 1 0.0745097 0.142687 0
124 1 0.091243 0.160337 0
126 1 0.11391 0.152251 0
155 1 0.108692 0.176568 0
157 1 0.130342 0.16904 0
127 1 0.136252 0.146073 0
129 1 0.15845 0.136594 0
128 1 0.154136 0.16379 0
159 1 0.174318 0.153677 0
131 1 0.196619 0.159609 0
132 1 0.180697 0.178325 0
135 1 0.23549 0.14788 0
133 1 0.213111 0.142688 0
134 1 0.219929 0.165969 0
165 1 0.242798 0.172018 0
108 1 0.274421 0.137401 0
136 1 0.257706 0.153568 0
138 1 0.281142 0.16112 0
167 1 0.264249 0.178555 0
139 1 0.29622 0.141775 0
169 1 0.303085 0.166888 0
140 1 0.319697 0.147452 0
171 1 0.325424 0.173087 0
142 1 0.342497 0.153974 0
173 1 0.364174 0.159682 0
172 1 0.347864 0.1781 0
114 1 0.380777 0.142045 0
144 1 0.386339 0.166415 0
145 1 0.403299 0.148191 0
146 1 0.409402 0.172593 0
118 1 0.441972 0.135528 0
147 1 0.425641 0.154174 0
148 1 0.447819 0.16013 0
177 1 0.432299 0.177617 0
1051 1 0.494367 0.172006 0
149 1 0.464162 0.141357 0
150 1 0.471137 0.166455 0
1021 1 0.486707 0.147729 0
1080 1 0.0258413 0.185772 0
1109 1 0.0242221 0.218588 0
1078 1 0.00408924 0.191427 0
181 1 0.0429255 0.20238 0
183 1 0.0660276 0.193833 0
182 1 0.0483155 0.226078 0
154 1 0.087531 0.185136 0
185 1 0.0839982 0.209915 0
186 1 0.110171 0.223652 0
156 1 0.105036 0.200223 0
158 1 0.128246 0.205246 0
160 1 0.144052 0.187828 0
189 1 0.149701 0.213933 0
161 1 0.16513 0.196443 0
191 1 0.171738 0.220897 0
163 1 0.203813 0.18288 0
162 1 0.187173 0.202074 0
192 1 0.193959 0.227021 0
193 1 0.209597 0.209008 0
164 1 0.226701 0.19016 0
195 1 0.231517 0.214656 0
166 1 0.248825 0.196529 0
196 1 0.25382 0.220991 0
197 1 0.270359 0.202781 0
168 1 0.287154 0.185765 0
198 1 0.276397 0.22758 0
199 1 0.293455 0.210501 0
170 1 0.309185 0.192231 0
200 1 0.315596 0.216829 0
201 1 0.331464 0.196884 0
202 1 0.338901 0.222156 0
203 1 0.354665 0.203256 0
174 1 0.37119 0.185019 0
204 1 0.377681 0.209883 0
175 1 0.393333 0.191118 0
205 1 0.400032 0.215174 0
176 1 0.416308 0.197313 0
207 1 0.422381 0.222023 0
178 1 0.438498 0.203065 0
179 1 0.454778 0.184535 0
209 1 0.460963 0.208807 0
180 1 0.477764 0.190564 0
1081 1 0.48381 0.214318 0
211 1 0.030887 0.242675 0
1140 1 0.0144389 0.26093 0
212 1 0.0365495 0.266882 0
1110 1 0.00938334 0.237378 0
213 1 0.0535012 0.250347 0
184 1 0.0702692 0.231357 0
214 1 0.0761579 0.256018 0
215 1 0.0933423 0.239691 0
216 1 0.0990498 0.263855 0
217 1 0.11581 0.247138 0
218 1 0.121442 0.27164 0
187 1 0.132891 0.229957 0
188 1 0.138727 0.25458 0
190 1 0.155239 0.238408 0
220 1 0.160598 0.261905 0
221 1 0.17748 0.244724 0
222 1 0.183154 0.267693 0
223 1 0.199723 0.250732 0
194 1 0.217216 0.233339 0
224 1 0.22143 0.257047 0
225 1 0.239357 0.238817 0
226 1 0.24404 0.263778 0
227 1 0.261147 0.246576 0
228 1 0.282938 0.252822 0
257 1 0.266148 0.270581 0
229 1 0.299161 0.234171 0
230 1 0.305481 0.258435 0
231 1 0.321973 0.24074 0
261 1 0.328473 0.264589 0
233 1 0.361407 0.227868 0
232 1 0.344453 0.246635 0
234 1 0.366497 0.25284 0
263 1 0.350022 0.271317 0
235 1 0.383194 0.233464 0
265 1 0.388848 0.257468 0
206 1 0.406005 0.240521 0
236 1 0.411826 0.264246 0
208 1 0.444969 0.227025 0
237 1 0.428473 0.24698 0
239 1 0.451067 0.251925 0
238 1 0.435184 0.271374 0
210 1 0.467957 0.233159 0
240 1 0.47373 0.258442 0
1111 1 0.490385 0.239216 0
1112 1 0.496998 0.263995 0
1169 1 0.00382149 0.30332 0
241 1 0.0208866 0.285713 0
271 1 0.0255098 0.309914 0
242 1 0.0432254 0.291774 0
243 1 0.0590169 0.273904 0
245 1 0.0816844 0.280802 0
244 1 0.0653506 0.298402 0
273 1 0.0486272 0.316384 0
246 1 0.087421 0.306219 0
247 1 0.104507 0.28846 0
248 1 0.110454 0.311765 0
249 1 0.127598 0.295821 0
219 1 0.14371 0.279114 0
251 1 0.166727 0.285959 0
250 1 0.149192 0.303057 0
253 1 0.205669 0.274862 0
281 1 0.172427 0.308911 0
252 1 0.189369 0.291668 0
283 1 0.194343 0.316229 0
254 1 0.210456 0.299276 0
255 1 0.227309 0.281442 0
285 1 0.233334 0.304868 0
256 1 0.250473 0.288503 0
287 1 0.255826 0.313201 0
258 1 0.272586 0.2947 0
259 1 0.288906 0.277245 0
289 1 0.294587 0.300978 0
260 1 0.311354 0.284298 0
291 1 0.316791 0.308253 0
262 1 0.333029 0.28941 0
293 1 0.356385 0.295497 0
292 1 0.340404 0.313947 0
264 1 0.372592 0.276618 0
295 1 0.379133 0.301391 0
266 1 0.394963 0.282628 0
297 1 0.402728 0.307064 0
267 1 0.418413 0.288969 0
268 1 0.440681 0.296071 0
298 1 0.424479 0.314367 0
269 1 0.457248 0.276109 0
270 1 0.463262 0.301433 0
1141 1 0.47978 0.282129 0
300 1 0.485994 0.306255 0
1200 1 0.0317289 0.333711 0
301 1 0.0363708 0.358475 0
1229 1 0.0145701 0.35161 0
1170 1 0.00807256 0.32733 0
272 1 0.0546768 0.34085 0
275 1 0.0706723 0.323048 0
274 1 0.0769467 0.347599 0
276 1 0.0935653 0.330273 0
305 1 0.0988452 0.35482 0
277 1 0.115403 0.336932 0
307 1 0.120957 0.360883 0
279 1 0.133398 0.320035 0
278 1 0.138004 0.343772 0
280 1 0.155754 0.327054 0
311 1 0.161044 0.352304 0
282 1 0.177446 0.333436 0
312 1 0.183522 0.357263 0
313 1 0.199763 0.34081 0
284 1 0.217139 0.322845 0
315 1 0.22264 0.34662 0
286 1 0.239213 0.329702 0
316 1 0.245953 0.354138 0
288 1 0.278149 0.31907 0
317 1 0.262223 0.336842 0
319 1 0.284363 0.343746 0
318 1 0.267807 0.36132 0
290 1 0.300268 0.325832 0
320 1 0.307112 0.349522 0
321 1 0.323495 0.332023 0
322 1 0.328881 0.3571 0
323 1 0.346015 0.339148 0
294 1 0.36257 0.319497 0
325 1 0.369057 0.344346 0
324 1 0.352864 0.363006 0
296 1 0.384738 0.325505 0
326 1 0.391039 0.351286 0
327 1 0.407281 0.332091 0
328 1 0.413587 0.356992 0
299 1 0.447561 0.319818 0
329 1 0.430068 0.33839 0
359 1 0.452872 0.343988 0
358 1 0.436539 0.362779 0
330 1 0.470452 0.325414 0
360 1 0.474943 0.349982 0
1201 1 0.491638 0.331859 0
1231 1 0.49784 0.356219 0
1230 1 0.0198062 0.375921 0
302 1 0.040792 0.383304 0
331 1 0.0246181 0.400647 0
1260 1 0.00246499 0.394145 0
303 1 0.0593465 0.365503 0
304 1 0.0819985 0.372114 0
333 1 0.064364 0.389365 0
332 1 0.0475021 0.406845 0
335 1 0.0873936 0.396286 0
306 1 0.104484 0.377774 0
337 1 0.11019 0.404261 0
308 1 0.127159 0.386598 0
309 1 0.142961 0.367899 0
339 1 0.149254 0.392026 0
310 1 0.166336 0.376427 0
314 1 0.206699 0.364027 0
341 1 0.172276 0.399411 0
343 1 0.190337 0.380455 0
342 1 0.194481 0.406527 0
344 1 0.211835 0.388628 0
345 1 0.229239 0.371592 0
346 1 0.234618 0.395823 0
347 1 0.251954 0.378857 0
377 1 0.257139 0.403375 0
348 1 0.274209 0.386629 0
349 1 0.289749 0.368132 0
350 1 0.296766 0.39298 0
351 1 0.312407 0.374805 0
381 1 0.3198 0.398173 0
353 1 0.336901 0.380291 0
354 1 0.359531 0.387442 0
352 1 0.342371 0.405274 0
355 1 0.375508 0.369318 0
356 1 0.381787 0.394974 0
357 1 0.398275 0.37638 0
386 1 0.404792 0.40031 0
387 1 0.421859 0.381265 0
389 1 0.444078 0.387856 0
388 1 0.427276 0.405891 0
1232 1 0.458992 0.368056 0
1262 1 0.481448 0.373837 0
1261 1 0.466638 0.392507 0
1293 1 0.488142 0.398573 0
361 1 0.030125 0.423886 0
362 1 0.0352588 0.448155 0
391 1 0.0127147 0.441715 0
1290 1 0.00683165 0.418607 0
363 1 0.0521737 0.431629 0
334 1 0.069462 0.413846 0
365 1 0.075198 0.437796 0
336 1 0.0921749 0.420904 0
366 1 0.0982804 0.445508 0
367 1 0.114891 0.428306 0
368 1 0.120841 0.452285 0
338 1 0.13306 0.410525 0
369 1 0.138762 0.435654 0
340 1 0.155172 0.417308 0
370 1 0.161514 0.441494 0
371 1 0.177739 0.424035 0
401 1 0.18342 0.447945 0
372 1 0.200556 0.430552 0
373 1 0.217249 0.413671 0
374 1 0.223462 0.43754 0
375 1 0.240405 0.420905 0
405 1 0.246252 0.445454 0
378 1 0.281178 0.410846 0
376 1 0.263536 0.428362 0
409 1 0.285781 0.43447 0
407 1 0.269293 0.452028 0
379 1 0.3033 0.417637 0
380 1 0.308956 0.441183 0
382 1 0.326206 0.422988 0
413 1 0.331255 0.446883 0
383 1 0.34963 0.430575 0
385 1 0.365042 0.41257 0
414 1 0.371261 0.438685 0
384 1 0.387235 0.420024 0
415 1 0.393327 0.443452 0
417 1 0.410035 0.425554 0
416 1 0.415592 0.450681 0
418 1 0.432785 0.431257 0
419 1 0.449523 0.412788 0
390 1 0.455279 0.437383 0
447 1 0.439106 0.454727 0
1292 1 0.494495 0.423658 0
1291 1 0.472052 0.417817 0
1321 1 0.477574 0.441799 0
450 1 0.484521 0.465461 0
421 1 0.0018877 0.482831 0
392 1 0.018933 0.465665 0
393 1 0.0414138 0.472659 0
422 1 0.0250805 0.489232 0
423 1 0.0472774 0.497363 0
364 1 0.059168 0.455805 0
395 1 0.0807905 0.462518 0
394 1 0.0641874 0.480225 0
396 1 0.0865256 0.486595 0
397 1 0.103951 0.469278 0
427 1 0.108574 0.493051 0
398 1 0.126286 0.477036 0
399 1 0.144152 0.459961 0
400 1 0.166607 0.465889 0
429 1 0.148768 0.484017 0
431 1 0.172981 0.489872 0
403 1 0.207552 0.455094 0
402 1 0.189801 0.472004 0
432 1 0.196702 0.496734 0
433 1 0.2135 0.479924 0
404 1 0.228869 0.46225 0
435 1 0.235586 0.487783 0
406 1 0.251992 0.469224 0
436 1 0.257835 0.49521 0
408 1 0.274469 0.477671 0
410 1 0.291513 0.459144 0
441 1 0.297137 0.484729 0
411 1 0.31467 0.466044 0
440 1 0.320114 0.492909 0
412 1 0.353817 0.45599 0
442 1 0.336678 0.473129 0
473 1 0.358956 0.480046 0
1351 1 0.491967 0.489931 0
443 1 0.376514 0.462464 0
444 1 0.382859 0.48784 0
445 1 0.398923 0.468326 0
475 1 0.405821 0.492875 0
448 1 0.445874 0.478778 0
446 1 0.422462 0.474154 0
477 1 0.42861 0.498903 0
428 1 0.131844 0.50096 0
898 1 0.449248 0.000765086 0
454 1 0.034678 0.539702 0
453 1 0.0296813 0.514319 0
452 1 0.0125669 0.531494 0
451 1 0.00829093 0.50699 0
424 1 0.0523718 0.52241 0
455 1 0.0755687 0.529044 0
425 1 0.0697075 0.50478 0
426 1 0.0923831 0.511049 0
456 1 0.0979435 0.536862 0
457 1 0.114914 0.51793 0
458 1 0.12068 0.543159 0
459 1 0.137154 0.524442 0
460 1 0.161462 0.530669 0
430 1 0.15458 0.507176 0
1562 1 0.499813 0.741064 0
461 1 0.178617 0.513641 0
462 1 0.183874 0.538397 0
463 1 0.201198 0.52159 0
434 1 0.218775 0.504605 0
464 1 0.22449 0.529564 0
466 1 0.24677 0.538101 0
465 1 0.240647 0.512245 0
437 1 0.264202 0.52039 0
467 1 0.285995 0.528293 0
439 1 0.280031 0.502825 0
438 1 0.303249 0.510072 0
468 1 0.308668 0.535338 0
469 1 0.326731 0.518331 0
499 1 0.331081 0.542935 0
470 1 0.349543 0.523708 0
472 1 0.364926 0.504942 0
503 1 0.37262 0.53108 0
474 1 0.388885 0.511784 0
505 1 0.39514 0.534843 0
476 1 0.411129 0.517149 0
507 1 0.434587 0.522508 0
506 1 0.418297 0.54119 0
478 1 0.452142 0.503021 0
480 1 0.457787 0.527434 0
479 1 0.474197 0.508978 0
510 1 0.481685 0.532883 0
1381 1 0.497625 0.51407 0
513 1 0.0401717 0.563371 0
482 1 0.0224564 0.58056 0
483 1 0.0178079 0.556873 0
514 1 0.0460225 0.587761 0
485 1 0.0584864 0.546036 0
486 1 0.081094 0.553031 0
484 1 0.0642722 0.570031 0
515 1 0.0861465 0.57825 0
487 1 0.103316 0.561707 0
517 1 0.107265 0.587772 0
488 1 0.126163 0.568875 0
489 1 0.144564 0.54689 0
491 1 0.166932 0.554855 0
490 1 0.149495 0.570082 0
493 1 0.207341 0.545185 0
521 1 0.171719 0.578745 0
492 1 0.189999 0.562214 0
523 1 0.192761 0.587561 0
494 1 0.211064 0.570218 0
495 1 0.22916 0.553646 0
525 1 0.232571 0.579585 0
496 1 0.251308 0.561809 0
497 1 0.268445 0.544864 0
526 1 0.255668 0.586192 0
527 1 0.274211 0.571154 0
498 1 0.292106 0.553909 0
529 1 0.297086 0.58019 0
500 1 0.314658 0.561639 0
530 1 0.320104 0.588491 0
501 1 0.354822 0.54998 0
531 1 0.337564 0.568305 0
533 1 0.359506 0.574138 0
502 1 0.379122 0.554314 0
534 1 0.386177 0.578798 0
504 1 0.402233 0.559298 0
535 1 0.409394 0.584096 0
509 1 0.442079 0.546385 0
508 1 0.425297 0.565465 0
537 1 0.433638 0.58959 0
539 1 0.449696 0.57128 0
1442 1 0.496082 0.581038 0
540 1 0.466324 0.551859 0
569 1 0.472795 0.576999 0
1441 1 0.488621 0.557406 0
512 1 0.0269189 0.604482 0
542 1 0.0300037 0.628845 0
541 1 0.00765939 0.621221 0
511 1 0.00480516 0.597469 0
543 1 0.050202 0.613679 0
545 1 0.0688625 0.596595 0
546 1 0.0727626 0.621081 0
516 1 0.090843 0.605382 0
547 1 0.0950061 0.630026 0
518 1 0.114441 0.614114 0
519 1 0.129949 0.595294 0
548 1 0.134854 0.627007 0
520 1 0.153163 0.593704 0
549 1 0.156 0.617606 0
522 1 0.174173 0.60309 0
551 1 0.177021 0.627322 0
553 1 0.195705 0.612094 0
552 1 0.198457 0.635965 0
524 1 0.2148 0.594959 0
554 1 0.217574 0.619838 0
555 1 0.236795 0.603624 0
556 1 0.238497 0.628703 0
557 1 0.259685 0.612463 0
528 1 0.278647 0.59663 0
558 1 0.280888 0.622238 0
559 1 0.301288 0.604549 0
561 1 0.324866 0.613199 0
560 1 0.303784 0.629714 0
532 1 0.343098 0.592976 0
562 1 0.353779 0.614604 0
563 1 0.369813 0.596535 0
565 1 0.377643 0.621366 0
536 1 0.392371 0.602925 0
566 1 0.400188 0.627133 0
567 1 0.415681 0.608189 0
568 1 0.4383 0.614503 0
597 1 0.424234 0.633567 0
538 1 0.456133 0.595448 0
570 1 0.478905 0.601015 0
600 1 0.462432 0.61902 0
1501 1 0.485697 0.624312 0
573 1 0.0352078 0.652574 0
572 1 0.0158762 0.669592 0
571 1 0.0135712 0.646143 0
603 1 0.0375088 0.676918 0
544 1 0.0538137 0.636559 0
575 1 0.0756524 0.645873 0
574 1 0.0570594 0.661647 0
605 1 0.0781546 0.67174 0
577 1 0.115988 0.640426 0
576 1 0.0971353 0.656525 0
578 1 0.118113 0.666782 0
579 1 0.136289 0.652698 0
550 1 0.156414 0.64131 0
580 1 0.159607 0.665616 0
609 1 0.139819 0.678914 0
581 1 0.179452 0.650952 0
611 1 0.180395 0.674966 0
582 1 0.200889 0.66063 0
583 1 0.219437 0.644405 0
584 1 0.221892 0.670277 0
585 1 0.240839 0.653802 0
615 1 0.242674 0.678977 0
587 1 0.261024 0.638502 0
586 1 0.261478 0.664612 0
589 1 0.282622 0.648413 0
588 1 0.28271 0.673078 0
590 1 0.30553 0.656299 0
591 1 0.325737 0.642976 0
621 1 0.325264 0.67093 0
593 1 0.345737 0.660158 0
564 1 0.360805 0.640254 0
594 1 0.369748 0.66476 0
595 1 0.38422 0.64584 0
625 1 0.392804 0.671385 0
596 1 0.408165 0.651802 0
627 1 0.416081 0.675763 0
599 1 0.447322 0.637276 0
598 1 0.431622 0.656804 0
628 1 0.454495 0.661396 0
657 1 0.439326 0.680336 0
629 1 0.469694 0.643938 0
630 1 0.47742 0.667691 0
1502 1 0.492518 0.647818 0
602 1 0.0198307 0.706473 0
601 1 0.00201487 0.689702 0
634 1 0.0386826 0.723885 0
633 1 0.0419804 0.700043 0
604 1 0.0593485 0.685641 0
635 1 0.0622336 0.710298 0
606 1 0.0807853 0.696577 0
636 1 0.0829182 0.722142 0
607 1 0.100199 0.682622 0
637 1 0.102009 0.707351 0
608 1 0.120504 0.692861 0
638 1 0.123634 0.719277 0
639 1 0.14139 0.704892 0
610 1 0.160592 0.690361 0
641 1 0.162366 0.714491 0
612 1 0.182112 0.700886 0
613 1 0.201666 0.685734 0
643 1 0.202777 0.710415 0
642 1 0.183433 0.72529 0
614 1 0.223357 0.695173 0
645 1 0.224083 0.720521 0
616 1 0.243855 0.705071 0
617 1 0.263601 0.689732 0
647 1 0.265426 0.713893 0
618 1 0.284796 0.699287 0
649 1 0.286131 0.725361 0
619 1 0.303229 0.681997 0
620 1 0.304302 0.710265 0
622 1 0.321734 0.695632 0
651 1 0.325512 0.720776 0
592 1 0.355114 0.682817 0
653 1 0.342625 0.703171 0
624 1 0.364517 0.709349 0
654 1 0.347928 0.72669 0
623 1 0.379198 0.690364 0
655 1 0.3871 0.714252 0
626 1 0.401321 0.695411 0
686 1 0.409075 0.718932 0
656 1 0.424108 0.700184 0
658 1 0.446822 0.705848 0
687 1 0.431276 0.724952 0
659 1 0.461861 0.686233 0
660 1 0.469147 0.711049 0
1531 1 0.485402 0.692355 0
1561 1 0.492615 0.715572 0
632 1 0.0142972 0.730389 0
664 1 0.0309379 0.747134 0
663 1 0.00882711 0.755351 0
662 1 0.0269603 0.770768 0
695 1 0.0500192 0.761162 0
665 1 0.0596006 0.736108 0
666 1 0.0832833 0.746484 0
667 1 0.103705 0.732506 0
668 1 0.105987 0.757022 0
697 1 0.087017 0.771069 0
669 1 0.124831 0.744079 0
640 1 0.144704 0.730548 0
670 1 0.147265 0.755379 0
699 1 0.126401 0.768643 0
671 1 0.165815 0.740562 0
672 1 0.168113 0.764995 0
673 1 0.186451 0.750849 0
644 1 0.204915 0.735301 0
674 1 0.208175 0.760824 0
646 1 0.246088 0.729676 0
675 1 0.226558 0.74485 0
677 1 0.248307 0.754991 0
705 1 0.229298 0.770124 0
648 1 0.267247 0.739764 0
678 1 0.270605 0.764738 0
679 1 0.289302 0.750358 0
650 1 0.308522 0.736188 0
681 1 0.313337 0.760417 0
652 1 0.330794 0.745737 0
683 1 0.354844 0.750819 0
685 1 0.371131 0.732466 0
682 1 0.33915 0.769249 0
715 1 0.393893 0.738592 0
684 1 0.377703 0.756329 0
714 1 0.400799 0.762306 0
717 1 0.416004 0.743357 0
688 1 0.438853 0.748655 0
716 1 0.423949 0.768393 0
689 1 0.453784 0.729401 0
690 1 0.476816 0.734375 0
719 1 0.461162 0.753559 0
1591 1 0.484028 0.760163 0
1771 1 0.480379 0.963479 0
693 1 0.0216594 0.795524 0
691 1 0.00403631 0.779293 0
723 1 0.0397441 0.81118 0
1772 1 0.48751 0.987464 0
694 1 0.0444536 0.786828 0
696 1 0.0661804 0.779142 0
725 1 0.0629321 0.804007 0
727 1 0.0839215 0.795398 0
728 1 0.10308 0.810644 0
698 1 0.106223 0.783916 0
700 1 0.129048 0.79443 0
701 1 0.148664 0.780009 0
731 1 0.150072 0.805222 0
702 1 0.169955 0.790468 0
703 1 0.189199 0.775545 0
733 1 0.190828 0.800349 0
732 1 0.171368 0.8155 0
704 1 0.210076 0.786134 0
735 1 0.211577 0.81062 0
706 1 0.231354 0.795141 0
676 1 0.250117 0.780649 0
737 1 0.251977 0.805535 0
707 1 0.270269 0.789692 0
738 1 0.272644 0.81511 0
708 1 0.29058 0.799458 0
709 1 0.293797 0.775354 0
710 1 0.311952 0.807324 0
680 1 0.322025 0.78512 0
741 1 0.333821 0.813593 0
711 1 0.347063 0.793458 0
713 1 0.362209 0.774952 0
712 1 0.370072 0.799593 0
742 1 0.355691 0.81933 0
743 1 0.384739 0.78066 0
745 1 0.392343 0.8053 0
746 1 0.407544 0.785952 0
775 1 0.415955 0.8101 0
718 1 0.446415 0.772906 0
747 1 0.431101 0.79171 0
749 1 0.453739 0.797485 0
748 1 0.438519 0.815491 0
1622 1 0.499291 0.808581 0
720 1 0.468778 0.77834 0
1621 1 0.475681 0.802639 0
1592 1 0.491675 0.784439 0
692 1 0.0176547 0.82031 0
751 1 0.0354509 0.836143 0
1680 1 0.0120753 0.844717 0
752 1 0.0296803 0.861082 0
753 1 0.0521446 0.852526 0
722 1 0.0577561 0.8278 0
724 1 0.0740673 0.844982 0
726 1 0.0805175 0.820169 0
757 1 0.0967267 0.836323 0
756 1 0.113186 0.853401 0
755 1 0.0907241 0.862443 0
729 1 0.129276 0.818967 0
759 1 0.133679 0.843418 0
730 1 0.152359 0.829485 0
760 1 0.152221 0.860703 0
761 1 0.173557 0.841564 0
763 1 0.191899 0.824756 0
762 1 0.195256 0.849675 0
734 1 0.215386 0.837517 0
736 1 0.233396 0.82039 0
765 1 0.236072 0.857181 0
767 1 0.254424 0.829984 0
766 1 0.261061 0.853903 0
768 1 0.278258 0.8399 0
739 1 0.295144 0.823456 0
769 1 0.299486 0.849408 0
740 1 0.317465 0.831377 0
770 1 0.322066 0.855744 0
771 1 0.339102 0.836946 0
773 1 0.361872 0.843292 0
801 1 0.34547 0.862098 0
744 1 0.377822 0.824974 0
803 1 0.384686 0.84835 0
774 1 0.400058 0.828186 0
776 1 0.406759 0.852794 0
777 1 0.423506 0.834321 0
779 1 0.446152 0.839883 0
778 1 0.429752 0.858191 0
1651 1 0.483765 0.826638 0
750 1 0.461461 0.821334 0
780 1 0.467836 0.846461 0
1652 1 0.490525 0.851298 0
781 1 0.0081516 0.868646 0
782 1 0.0245296 0.886366 0
813 1 0.0409562 0.903202 0
811 1 0.00259796 0.893917 0
783 1 0.046285 0.878187 0
784 1 0.063699 0.894907 0
754 1 0.0683244 0.86949 0
785 1 0.0850086 0.886895 0
787 1 0.108352 0.878207 0
786 1 0.101773 0.902862 0
788 1 0.124463 0.894597 0
758 1 0.130722 0.869298 0
789 1 0.146856 0.886767 0
790 1 0.163055 0.90398 0
791 1 0.167957 0.878398 0
823 1 0.185103 0.897319 0
792 1 0.191391 0.873139 0
793 1 0.208357 0.890054 0
764 1 0.213502 0.864612 0
795 1 0.230217 0.882093 0
825 1 0.247456 0.900295 0
794 1 0.224786 0.906686 0
796 1 0.251929 0.875961 0
827 1 0.269458 0.89281 0
797 1 0.283051 0.868902 0
798 1 0.292206 0.89173 0
799 1 0.306939 0.873559 0
829 1 0.314152 0.898516 0
800 1 0.329872 0.880592 0
831 1 0.337053 0.904349 0
802 1 0.352604 0.885883 0
772 1 0.36878 0.866893 0
804 1 0.375533 0.891395 0
833 1 0.360199 0.909178 0
805 1 0.39154 0.873011 0
806 1 0.398348 0.897048 0
807 1 0.414011 0.876546 0
809 1 0.451954 0.864169 0
808 1 0.436928 0.883584 0
837 1 0.420488 0.901821 0
839 1 0.442907 0.908059 0
1681 1 0.474731 0.870052 0
810 1 0.459146 0.889626 0
1711 1 0.481307 0.894475 0
1682 1 0.496918 0.875882 0
812 1 0.0194134 0.91135 0
843 1 0.0373457 0.928272 0
841 1 0.014395 0.936431 0
842 1 0.0312999 0.953011 0
815 1 0.0805928 0.910839 0
844 1 0.0535989 0.943996 0
814 1 0.0588551 0.91948 0
845 1 0.0753579 0.936257 0
816 1 0.0966749 0.928268 0
817 1 0.11966 0.918853 0
847 1 0.113506 0.945029 0
846 1 0.0923879 0.953438 0
818 1 0.136279 0.937187 0
819 1 0.140886 0.911981 0
820 1 0.157622 0.929418 0
851 1 0.174376 0.945907 0
821 1 0.179695 0.921961 0
824 1 0.202007 0.914143 0
822 1 0.196853 0.938568 0
853 1 0.218193 0.931501 0
855 1 0.241157 0.92447 0
854 1 0.236218 0.949211 0
826 1 0.265323 0.917506 0
856 1 0.258427 0.940702 0
857 1 0.282244 0.933924 0
828 1 0.298574 0.916399 0
859 1 0.305325 0.940542 0
830 1 0.321517 0.922219 0
860 1 0.328772 0.94589 0
832 1 0.344059 0.9277 0
863 1 0.367032 0.933944 0
861 1 0.351769 0.952576 0
834 1 0.383757 0.915476 0
865 1 0.390086 0.939741 0
835 1 0.405887 0.921094 0
836 1 0.412453 0.946713 0
838 1 0.427209 0.927783 0
869 1 0.450388 0.933097 0
867 1 0.43552 0.951368 0
1712 1 0.489658 0.918778 0
1741 1 0.472903 0.937703 0
840 1 0.466252 0.914708 0
1742 1 0.496491 0.94446 0
871 1 0.0255037 0.977539 0
1770 1 0.00900947 0.960212 0
1800 1 0.00390703 0.985075 0
872 1 0.0425414 0.993371 0
873 1 0.0476793 0.969025 0
874 1 0.0642341 0.986364 0
875 1 0.0702273 0.961104 0
876 1 0.0867554 0.977899 0
877 1 0.108219 0.97074 0
7 1 0.103812 0.995782 0
878 1 0.125073 0.986808 0
848 1 0.130535 0.962169 0
849 1 0.152352 0.954027 0
879 1 0.147873 0.97935 0
881 1 0.164642 0.99712 0
850 1 0.170065 0.971099 0
11 1 0.186444 0.988812 0
852 1 0.191712 0.962541 0
882 1 0.208217 0.979996 0
883 1 0.213621 0.955668 0
884 1 0.231146 0.972107 0
886 1 0.247864 0.989857 0
13 1 0.225871 0.996467 0
885 1 0.253494 0.96557 0
17 1 0.270682 0.981635 0
887 1 0.277148 0.95748 0
888 1 0.293375 0.976532 0
858 1 0.313412 0.964007 0
889 1 0.319372 0.988557 0
890 1 0.342401 0.995148 0
891 1 0.335627 0.970667 0
862 1 0.358445 0.977193 0
864 1 0.374448 0.958087 0
893 1 0.381259 0.983063 0
895 1 0.396762 0.964251 0
896 1 0.404526 0.990287 0
866 1 0.419171 0.971083 0
897 1 0.426833 0.995534 0
868 1 0.441611 0.976499 0
870 1 0.457965 0.956859 0
899 1 0.465173 0.982652 0
18 1 0.286019 0.999227 0
471 1 0.342514 0.497761 0
902 1 0.516966 0.0178016 0
933 1 0.523217 0.0415994 0
904 1 0.539652 0.0235606 0
906 1 0.555634 0.00405191 0
935 1 0.562065 0.0284409 0
908 1 0.578141 0.0095776 0
937 1 0.58528 0.0348554 0
939 1 0.60047 0.014609 0
938 1 0.607067 0.0411205 0
940 1 0.622634 0.0214674 0
942 1 0.724524 0.0394641 0
943 1 0.746155 0.0316055 0
912 1 0.728213 0.0151343 0
913 1 0.750898 0.00645855 0
914 1 0.767784 0.0223497 0
947 1 0.785892 0.0397868 0
916 1 0.789923 0.0149513 0
918 1 0.807663 0.0313885 0
919 1 0.82926 0.0223564 0
917 1 0.812028 0.00711567 0
920 1 0.846942 0.038616 0
1790 1 0.85228 0.0138396 0
951 1 0.870374 0.031583 0
921 1 0.874915 0.00692401 0
922 1 0.893004 0.0237299 0
953 1 0.909813 0.0402166 0
924 1 0.914799 0.0159871 0
955 1 0.932389 0.0332527 0
926 1 0.95384 0.0253652 0
925 1 0.937673 0.00911397 0
957 1 0.970894 0.0419223 0
928 1 0.97617 0.0171309 0
959 1 0.992455 0.0342581 0
929 1 0.99884 0.00977094 0
932 1 0.506966 0.0613857 0
963 1 0.529469 0.0659821 0
962 1 0.513082 0.0855057 0
934 1 0.546631 0.0475191 0
965 1 0.552207 0.0713721 0
936 1 0.568697 0.0535549 0
966 1 0.575064 0.0789058 0
967 1 0.590992 0.0614341 0
968 1 0.597244 0.0857718 0
969 1 0.613606 0.0660995 0
970 1 0.714713 0.0903469 0
971 1 0.719149 0.0655236 0
944 1 0.741029 0.0573818 0
973 1 0.736466 0.082754 0
945 1 0.7632 0.0481209 0
975 1 0.7586 0.073346 0
974 1 0.775905 0.0884965 0
946 1 0.780566 0.064873 0
949 1 0.825489 0.0466646 0
976 1 0.798379 0.0803983 0
948 1 0.803034 0.0557916 0
977 1 0.820773 0.0724367 0
978 1 0.838011 0.0898972 0
979 1 0.842378 0.0639507 0
950 1 0.864222 0.0551637 0
980 1 0.859373 0.080738 0
952 1 0.887865 0.0481466 0
981 1 0.881312 0.0722677 0
982 1 0.899711 0.0896136 0
983 1 0.90418 0.065042 0
984 1 0.921278 0.0822977 0
954 1 0.925757 0.0579152 0
956 1 0.948971 0.0502845 0
985 1 0.943148 0.0746924 0
986 1 0.960621 0.0907661 0
987 1 0.965831 0.0660828 0
988 1 0.98323 0.084323 0
958 1 0.988204 0.0590883 0
964 1 0.535198 0.0907284 0
992 1 0.50409 0.129061 0
993 1 0.519854 0.110223 0
1023 1 0.526507 0.134717 0
994 1 0.542259 0.114918 0
995 1 0.558207 0.0964852 0
996 1 0.563732 0.122005 0
997 1 0.580069 0.10436 0
1027 1 0.586891 0.128316 0
998 1 0.60301 0.110462 0
1000 1 0.625645 0.115923 0
1030 1 0.647564 0.121707 0
999 1 0.663646 0.10306 0
1001 1 0.685312 0.111032 0
1032 1 0.669769 0.129079 0
1031 1 0.69251 0.134449 0
972 1 0.732012 0.107068 0
1002 1 0.708498 0.114981 0
1033 1 0.750118 0.122649 0
1003 1 0.753844 0.0977381 0
1004 1 0.771339 0.11337 0
1035 1 0.787939 0.129976 0
1005 1 0.792937 0.105173 0
1007 1 0.815013 0.0960982 0
1006 1 0.809772 0.121569 0
1008 1 0.832493 0.113568 0
1039 1 0.850417 0.13113 0
1009 1 0.855485 0.106394 0
1010 1 0.872379 0.122893 0
1011 1 0.877563 0.0976115 0
1012 1 0.894048 0.11423 0
1043 1 0.912447 0.130603 0
1013 1 0.916678 0.107271 0
1014 1 0.934687 0.123274 0
1015 1 0.938113 0.0988768 0
1017 1 0.955931 0.115605 0
1047 1 0.973485 0.133566 0
1018 1 0.977751 0.107958 0
1049 1 0.995342 0.125954 0
1022 1 0.510054 0.152795 0
1053 1 0.516767 0.17701 0
1024 1 0.531768 0.158677 0
1025 1 0.547981 0.13958 0
1055 1 0.554508 0.165204 0
1026 1 0.570544 0.14591 0
1057 1 0.576861 0.171024 0
1029 1 0.608993 0.134211 0
1028 1 0.593071 0.153721 0
1087 1 0.598918 0.177716 0
1058 1 0.615463 0.159922 0
1059 1 0.631429 0.140707 0
1060 1 0.636956 0.166211 0
1061 1 0.653606 0.1474 0
1091 1 0.660436 0.172067 0
1062 1 0.67645 0.152761 0
1093 1 0.683176 0.176794 0
1064 1 0.699136 0.157923 0
1063 1 0.716784 0.139477 0
1095 1 0.721923 0.164561 0
1034 1 0.738552 0.146292 0
1066 1 0.745567 0.169689 0
1065 1 0.761121 0.150436 0
1097 1 0.768019 0.175902 0
1037 1 0.827562 0.137741 0
1036 1 0.805771 0.145569 0
1067 1 0.822681 0.162528 0
1068 1 0.840022 0.17948 0
1038 1 0.844124 0.154383 0
1040 1 0.867486 0.147902 0
1069 1 0.862197 0.17184 0
1041 1 0.889465 0.139635 0
1071 1 0.885184 0.164317 0
1072 1 0.901332 0.180896 0
1042 1 0.906995 0.155694 0
1073 1 0.924361 0.172843 0
1044 1 0.929557 0.148348 0
1016 1 0.951261 0.141538 0
1045 1 0.946773 0.166174 0
1046 1 0.968456 0.157355 0
1077 1 0.985668 0.175208 0
1048 1 0.991021 0.150863 0
1075 1 0.964223 0.182601 0
931 1 0.499845 0.0368833 0
1083 1 0.52307 0.201646 0
1082 1 0.506727 0.220299 0
1054 1 0.538781 0.183998 0
1085 1 0.545229 0.20778 0
1056 1 0.560559 0.188854 0
1115 1 0.56709 0.21418 0
1086 1 0.583302 0.195686 0
1089 1 0.621387 0.184808 0
1117 1 0.589125 0.221616 0
1088 1 0.60534 0.202968 0
1119 1 0.628241 0.209467 0
1090 1 0.644843 0.189396 0
1121 1 0.651685 0.215281 0
1092 1 0.667234 0.196568 0
1122 1 0.674725 0.220241 0
1123 1 0.690481 0.201655 0
1124 1 0.696922 0.227189 0
1094 1 0.705893 0.182388 0
1125 1 0.71308 0.207427 0
1096 1 0.729332 0.188281 0
1126 1 0.735283 0.212694 0
1127 1 0.751583 0.193666 0