ITEM: TIMESTEP
0
ITEM: NUMBER OF ATOMS
1800
ITEM: BOX BOUNDS pp pp pp
1.1826529217466231e+00 1.6381734707825530e+02
1.1826529217466231e+00 1.6381734707825530e+02
0.0000000000000000e+00 5.5000000000000000e+00
ITEM: ATOMS id type xs ys zs
2 1 0.0158891 0.0133396 0
3 1 0.0407736 0.00783644 0
31 1 0.00919544 0.0385576 0
33 1 0.0333721 0.0309023 0
4 1 0.0578495 0.0256983 0
6 1 0.0833039 0.0195892 0
35 1 0.0761322 0.0428566 0
5 1 0.0651067 0.00172042 0
8 1 0.105969 0.0123805 0
37 1 0.100942 0.0363726 0
39 1 0.123201 0.0305991 0
880 1 0.131574 0.00564251 0
9 1 0.148693 0.0228453 0
10 1 0.172875 0.0167641 0
40 1 0.165652 0.0407405 0
41 1 0.189843 0.0347981 0
12 1 0.196311 0.0103419 0
14 1 0.213789 0.0280277 0
13 1 0.220611 0.00292351 0
15 1 0.237993 0.0226441 0
16 1 0.261732 0.0165179 0
46 1 0.255925 0.0421214 0
47 1 0.279028 0.0340152 0
18 1 0.286276 0.0104705 0
49 1 0.311541 0.0316335 0
19 1 0.309508 0.0040411 0
20 1 0.331924 0.0148365 0
21 1 0.356268 0.0209602 0
51 1 0.338165 0.0378971 0
22 1 0.364185 0.0436454 0
23 1 0.380164 0.0252947 0
894 1 0.396626 0.00701281 0
24 1 0.404499 0.0303635 0
892 1 0.373146 0.00204251 0
25 1 0.422433 0.0124837 0
27 1 0.447197 0.0181315 0
26 1 0.429284 0.0360104 0
28 1 0.454012 0.0424249 0
29 1 0.471465 0.0245644 0
900 1 0.488554 0.0064479 0
30 1 0.496369 0.0297498 0
32 1 0.0270099 0.0551873 0
62 1 0.0196165 0.0800003 0
61 1 0.00357191 0.0625267 0
63 1 0.0451119 0.0739061 0
34 1 0.0513215 0.0493664 0
65 1 0.0687408 0.0673443 0
66 1 0.0869163 0.0835793 0
36 1 0.0941315 0.0603885 0
38 1 0.11785 0.0546062 0
67 1 0.11091 0.0781588 0
68 1 0.135768 0.0714375 0
69 1 0.142227 0.0469377 0
71 1 0.160411 0.0650855 0
72 1 0.176935 0.0832626 0
70 1 0.152821 0.08977 0
42 1 0.183546 0.0586795 0
43 1 0.207591 0.0523255 0
73 1 0.201413 0.0766298 0
44 1 0.224915 0.0712295 0
45 1 0.231134 0.0461101 0
75 1 0.248319 0.0654678 0
76 1 0.265754 0.0834745 0
77 1 0.27331 0.0599722 0
48 1 0.296548 0.0501304 0
79 1 0.306241 0.0736041 0
78 1 0.289181 0.0903336 0
50 1 0.322132 0.0554547 0
81 1 0.33 0.0797268 0
52 1 0.347285 0.062062 0
82 1 0.354378 0.0861848 0
53 1 0.388625 0.0493962 0
83 1 0.371684 0.0680139 0
54 1 0.395907 0.072875 0
55 1 0.412295 0.0546151 0
57 1 0.43739 0.060251 0
56 1 0.420508 0.0786949 0
87 1 0.445262 0.0833591 0
59 1 0.479366 0.0479252 0
58 1 0.462402 0.0660924 0
89 1 0.486619 0.0722198 0
88 1 0.469642 0.0900572 0
92 1 0.0315052 0.12297 0
93 1 0.0377548 0.0977341 0
91 1 0.0132489 0.10445 0
121 1 0.00746997 0.129407 0
64 1 0.0621077 0.0915548 0
94 1 0.0552156 0.115846 0
95 1 0.0792135 0.109047 0
125 1 0.073073 0.133728 0
96 1 0.0967929 0.125928 0
97 1 0.104975 0.101535 0
98 1 0.12195 0.119825 0
99 1 0.128677 0.0951329 0
100 1 0.145962 0.113472 0
101 1 0.172684 0.106868 0
130 1 0.163023 0.12958 0
103 1 0.197173 0.102457 0
102 1 0.188699 0.127404 0
105 1 0.221269 0.0954886 0
74 1 0.245553 0.098322 0
106 1 0.229754 0.118468 0
137 1 0.253638 0.125372 0
107 1 0.271026 0.108076 0
109 1 0.295879 0.114411 0
108 1 0.278 0.131967 0
80 1 0.31368 0.0981571 0
110 1 0.320208 0.121455 0
111 1 0.337356 0.103989 0
141 1 0.345276 0.127647 0
113 1 0.362616 0.108867 0
84 1 0.379306 0.0916314 0
112 1 0.386967 0.114814 0
85 1 0.403447 0.097147 0
143 1 0.370077 0.131961 0
115 1 0.411339 0.120884 0
86 1 0.427752 0.101976 0
116 1 0.435169 0.126088 0
117 1 0.452128 0.107869 0
119 1 0.477121 0.114152 0
90 1 0.494489 0.0956851 0
118 1 0.459415 0.131752 0
122 1 0.0254892 0.147148 0
152 1 0.019138 0.17233 0
153 1 0.0431635 0.166532 0
151 1 0.00162196 0.154163 0
123 1 0.0491387 0.140893 0
124 1 0.0663687 0.158539 0
155 1 0.0840579 0.174495 0
126 1 0.0905322 0.150961 0
127 1 0.114317 0.143482 0
128 1 0.131626 0.160743 0
157 1 0.109107 0.170358 0
129 1 0.139781 0.138095 0
159 1 0.157375 0.166537 0
131 1 0.176333 0.149784 0
132 1 0.180702 0.173894 0
104 1 0.212889 0.136742 0
133 1 0.198708 0.157697 0
163 1 0.204794 0.180771 0
134 1 0.222682 0.163095 0
135 1 0.237895 0.143453 0
136 1 0.262077 0.150508 0
165 1 0.245932 0.168779 0
167 1 0.269611 0.175381 0
139 1 0.302399 0.138534 0
138 1 0.286111 0.157001 0
169 1 0.309161 0.1634 0
140 1 0.327845 0.145483 0
142 1 0.352082 0.15108 0
171 1 0.334127 0.169195 0
172 1 0.358664 0.175333 0
114 1 0.394285 0.139207 0
144 1 0.40079 0.163834 0
173 1 0.376836 0.156571 0
174 1 0.383309 0.181233 0
145 1 0.418116 0.145643 0
146 1 0.426193 0.168946 0
147 1 0.443476 0.150343 0
177 1 0.45123 0.174481 0
149 1 0.484056 0.13808 0
148 1 0.467278 0.156207 0
150 1 0.491459 0.162603 0
179 1 0.474271 0.181215 0
183 1 0.0363952 0.190844 0
182 1 0.0404004 0.215294 0
181 1 0.015544 0.207429 0
154 1 0.060984 0.184623 0
184 1 0.0631707 0.223705 0
185 1 0.0776483 0.203572 0
186 1 0.103644 0.217077 0
156 1 0.100199 0.192715 0
158 1 0.122882 0.200848 0
187 1 0.127278 0.224442 0
160 1 0.139546 0.184048 0
161 1 0.162684 0.191174 0
189 1 0.145712 0.208994 0
191 1 0.169001 0.214952 0
162 1 0.18705 0.198884 0
193 1 0.211013 0.204849 0
192 1 0.193468 0.222297 0
164 1 0.228493 0.187053 0
195 1 0.236332 0.211512 0
166 1 0.252055 0.192982 0
196 1 0.260458 0.218306 0
168 1 0.293133 0.182142 0
197 1 0.276962 0.2004 0
199 1 0.300853 0.206666 0
198 1 0.284161 0.224422 0
170 1 0.317614 0.18783 0
201 1 0.341996 0.194071 0
200 1 0.325179 0.212778 0
202 1 0.350144 0.217815 0
203 1 0.366273 0.198913 0
233 1 0.373661 0.223994 0
204 1 0.390439 0.205738 0
175 1 0.408413 0.187162 0
205 1 0.414961 0.21137 0
176 1 0.432655 0.192877 0
207 1 0.439545 0.217549 0
178 1 0.457351 0.198391 0
209 1 0.481275 0.204556 0
208 1 0.463717 0.222222 0
180 1 0.498629 0.186086 0
212 1 0.0256594 0.258203 0
211 1 0.0211277 0.232191 0
213 1 0.0436884 0.241819 0
1140 1 0.00241437 0.249765 0
243 1 0.0485131 0.266761 0
215 1 0.0855041 0.232684 0
214 1 0.0676875 0.249309 0
216 1 0.0919387 0.258451 0
217 1 0.109419 0.241292 0
218 1 0.116226 0.266563 0
188 1 0.133715 0.248682 0
190 1 0.152171 0.2323 0
221 1 0.176346 0.239669 0
220 1 0.15804 0.256324 0
222 1 0.181884 0.264208 0
194 1 0.217642 0.228973 0
223 1 0.200737 0.247531 0
253 1 0.206465 0.271429 0
224 1 0.224295 0.253958 0
225 1 0.241963 0.236031 0
227 1 0.266204 0.241903 0
226 1 0.248723 0.260325 0
257 1 0.272321 0.265958 0
229 1 0.307477 0.23081 0
228 1 0.289829 0.248723 0
230 1 0.314675 0.253817 0
259 1 0.296688 0.272578 0
231 1 0.332338 0.236485 0
232 1 0.356468 0.24242 0
261 1 0.338745 0.260099 0
263 1 0.362181 0.267082 0
235 1 0.398352 0.229819 0
234 1 0.380375 0.248721 0
265 1 0.404767 0.253942 0
264 1 0.387383 0.271971 0
206 1 0.422248 0.235104 0
237 1 0.446209 0.241009 0
236 1 0.428814 0.259733 0
238 1 0.452754 0.265569 0
210 1 0.488132 0.228104 0
239 1 0.471145 0.247248 0
240 1 0.494828 0.251713 0
269 1 0.477425 0.270776 0
241 1 0.00642082 0.274564 0
242 1 0.031365 0.28345 0
271 1 0.0128207 0.299996 0
273 1 0.0373532 0.308357 0
245 1 0.0731808 0.275051 0
244 1 0.0543468 0.291011 0
246 1 0.0786667 0.299129 0
275 1 0.0614245 0.315961 0
247 1 0.0983934 0.282548 0
249 1 0.121353 0.290573 0
248 1 0.103255 0.306949 0
279 1 0.127679 0.314444 0
219 1 0.140471 0.272829 0
251 1 0.164151 0.281185 0
250 1 0.146382 0.298055 0
281 1 0.169988 0.30606 0
252 1 0.187795 0.289162 0
254 1 0.213054 0.294965 0
283 1 0.195727 0.312498 0
255 1 0.230908 0.278655 0
256 1 0.254699 0.284478 0
285 1 0.236298 0.302562 0
287 1 0.261768 0.30838 0
258 1 0.279473 0.290078 0
288 1 0.285926 0.314219 0
289 1 0.303215 0.295991 0
260 1 0.320939 0.278009 0
262 1 0.344884 0.284528 0
291 1 0.327971 0.301872 0
292 1 0.351011 0.307994 0
293 1 0.369936 0.290521 0
295 1 0.393795 0.296648 0
294 1 0.376169 0.315323 0
266 1 0.411004 0.277732 0
267 1 0.435557 0.284444 0
297 1 0.418357 0.302453 0
298 1 0.442514 0.307547 0
268 1 0.460227 0.28923 0
270 1 0.484861 0.294011 0
299 1 0.467473 0.313155 0
1200 1 0.0183675 0.324044 0
272 1 0.0430188 0.332222 0
301 1 0.0248297 0.348863 0
1229 1 0.000488903 0.340693 0
303 1 0.0496163 0.356807 0
276 1 0.085917 0.323836 0
274 1 0.0683963 0.340195 0
305 1 0.0913649 0.34842 0
277 1 0.109792 0.331109 0
307 1 0.115988 0.354763 0
278 1 0.133548 0.337656 0
280 1 0.151774 0.321776 0
282 1 0.177488 0.329901 0
311 1 0.158508 0.345682 0
309 1 0.139731 0.362063 0
284 1 0.219334 0.319975 0
312 1 0.183201 0.353663 0
313 1 0.200646 0.33749 0
314 1 0.207615 0.361231 0
315 1 0.225626 0.344094 0
286 1 0.243482 0.326022 0
317 1 0.268185 0.332355 0
316 1 0.250865 0.350197 0
290 1 0.310082 0.319734 0
318 1 0.274649 0.355819 0
319 1 0.292794 0.337827 0
320 1 0.316723 0.344446 0
321 1 0.333598 0.327789 0
323 1 0.358964 0.333195 0
322 1 0.341434 0.350803 0
296 1 0.400423 0.320754 0
324 1 0.365067 0.357457 0
325 1 0.382523 0.340179 0
355 1 0.390144 0.363481 0
326 1 0.40755 0.34413 0
327 1 0.42573 0.326034 0
328 1 0.431494 0.350176 0
329 1 0.449346 0.331147 0
300 1 0.492464 0.318711 0
359 1 0.455564 0.355321 0
330 1 0.474296 0.336527 0
360 1 0.481067 0.360892 0
1201 1 0.499532 0.343141 0
1230 1 0.00597507 0.365191 0
302 1 0.0318395 0.373316 0
332 1 0.0365482 0.397497 0
331 1 0.0131051 0.388527 0
304 1 0.0742595 0.365259 0
333 1 0.0565228 0.382264 0
335 1 0.0797212 0.389267 0
334 1 0.0618395 0.40622 0
306 1 0.0979793 0.372155 0
308 1 0.121906 0.379571 0
337 1 0.103755 0.397544 0
338 1 0.128814 0.40419 0
310 1 0.164516 0.370619 0
339 1 0.146159 0.386936 0
341 1 0.1712 0.395181 0
343 1 0.188808 0.378669 0
342 1 0.195681 0.402872 0
344 1 0.214126 0.386087 0
345 1 0.232394 0.367448 0
347 1 0.256687 0.374347 0
346 1 0.237376 0.392195 0
377 1 0.261708 0.39809 0
349 1 0.298918 0.363765 0
348 1 0.280822 0.380959 0
350 1 0.304988 0.388303 0
378 1 0.286164 0.405053 0
351 1 0.32367 0.36879 0
381 1 0.329805 0.393644 0
353 1 0.348106 0.375832 0
352 1 0.354361 0.399747 0
354 1 0.372455 0.381126 0
385 1 0.379788 0.405189 0
356 1 0.396292 0.386576 0
387 1 0.420451 0.392068 0
357 1 0.414048 0.367809 0
358 1 0.439605 0.374475 0
389 1 0.446285 0.397395 0
1232 1 0.463873 0.379551 0
1262 1 0.488561 0.384438 0
1261 1 0.471198 0.403108 0
1293 1 0.496112 0.408486 0
361 1 0.0180433 0.414385 0
362 1 0.0240903 0.43883 0
363 1 0.0430325 0.423092 0
336 1 0.0853609 0.413723 0
364 1 0.0493081 0.446963 0
365 1 0.0674296 0.431418 0
366 1 0.0915828 0.438311 0
367 1 0.110435 0.42114 0
368 1 0.115874 0.446132 0
369 1 0.134456 0.429212 0
340 1 0.152731 0.412514 0
399 1 0.14097 0.452709 0
371 1 0.177787 0.419503 0
370 1 0.159794 0.436406 0
373 1 0.220611 0.410654 0
401 1 0.18376 0.444513 0
372 1 0.202004 0.427902 0
403 1 0.208162 0.45206 0
374 1 0.226266 0.435232 0
375 1 0.244651 0.416441 0
376 1 0.268416 0.422763 0
405 1 0.250601 0.441961 0
379 1 0.312983 0.411233 0
407 1 0.276088 0.44778 0
409 1 0.294363 0.429834 0
410 1 0.302074 0.454255 0
380 1 0.319661 0.435045 0
382 1 0.3369 0.417936 0
413 1 0.344514 0.441869 0
383 1 0.36242 0.42395 0
386 1 0.404472 0.410296 0
414 1 0.370116 0.447582 0
384 1 0.386511 0.428928 0
415 1 0.39547 0.452652 0
417 1 0.411593 0.434768 0
388 1 0.428299 0.41544 0
418 1 0.43644 0.439396 0
419 1 0.452806 0.420564 0
390 1 0.460664 0.444916 0
1291 1 0.477486 0.427176 0
1321 1 0.485362 0.450576 0
392 1 0.00718344 0.455528 0
393 1 0.0309796 0.464287 0
422 1 0.0141977 0.481714 0
423 1 0.0383407 0.488985 0
395 1 0.0737442 0.455888 0
394 1 0.0556446 0.472622 0
396 1 0.0798853 0.480088 0
425 1 0.0612543 0.497911 0
397 1 0.0983788 0.464355 0
398 1 0.123133 0.469892 0
427 1 0.103945 0.488566 0
428 1 0.128231 0.493865 0
400 1 0.165303 0.460978 0
429 1 0.146891 0.477002 0
431 1 0.171949 0.484446 0
402 1 0.190283 0.468931 0
432 1 0.195867 0.49381 0
433 1 0.2151 0.477787 0
404 1 0.232788 0.459746 0
406 1 0.257272 0.465589 0
435 1 0.240343 0.483944 0
436 1 0.265224 0.490528 0
408 1 0.282216 0.472108 0
439 1 0.290312 0.495912 0
441 1 0.307917 0.477459 0
440 1 0.317701 0.499961 0
411 1 0.326319 0.459346 0
412 1 0.35254 0.465249 0
442 1 0.334977 0.482503 0
473 1 0.359215 0.488458 0
443 1 0.377905 0.47166 0
444 1 0.384185 0.495543 0
445 1 0.401788 0.476231 0
446 1 0.427807 0.483163 0
448 1 0.453203 0.487448 0
416 1 0.419854 0.458846 0
447 1 0.443953 0.46327 0
420 1 0.468913 0.468602 0
450 1 0.49256 0.474839 0
449 1 0.477352 0.49325 0
454 1 0.0239665 0.530415 0
453 1 0.018622 0.505808 0
424 1 0.0427825 0.513891 0
485 1 0.0487392 0.540064 0
455 1 0.0661935 0.522443 0
426 1 0.0849091 0.505031 0
456 1 0.0897795 0.532641 0
457 1 0.108563 0.51303 0
458 1 0.113803 0.540919 0
459 1 0.132603 0.517359 0
489 1 0.138413 0.541474 0
460 1 0.15804 0.525042 0
461 1 0.1768 0.509589 0
430 1 0.152564 0.502099 0
462 1 0.18208 0.533748 0
434 1 0.221515 0.502282 0
493 1 0.205744 0.543214 0
463 1 0.201668 0.518268 0
464 1 0.226383 0.526552 0
466 1 0.251757 0.533258 0
465 1 0.245703 0.50919 0
437 1 0.26987 0.514808 0
467 1 0.284619 0.535277 0
468 1 0.308748 0.54368 0
438 1 0.301567 0.518146 0
469 1 0.325243 0.524618 0
470 1 0.349046 0.531891 0
471 1 0.342616 0.507506 0
472 1 0.366413 0.513813 0
503 1 0.373627 0.537967 0
474 1 0.392014 0.519173 0
505 1 0.398961 0.542598 0
475 1 0.409787 0.500119 0
476 1 0.416199 0.524885 0
477 1 0.435412 0.506624 0
507 1 0.442483 0.530159 0
478 1 0.45955 0.511998 0
480 1 0.466174 0.536219 0
479 1 0.484344 0.517899 0
510 1 0.490649 0.541284 0
483 1 0.00490343 0.545845 0
513 1 0.0297537 0.555924 0
514 1 0.0323794 0.580557 0
482 1 0.00868266 0.570836 0
486 1 0.0726502 0.549734 0
484 1 0.0528614 0.564492 0
515 1 0.0765754 0.575519 0
545 1 0.0551091 0.590612 0
487 1 0.0971792 0.559174 0
488 1 0.120537 0.572898 0
517 1 0.0995208 0.58677 0
491 1 0.162907 0.548262 0
490 1 0.143658 0.564323 0
520 1 0.143843 0.588172 0
521 1 0.166027 0.5729 0
492 1 0.186597 0.55876 0
523 1 0.189732 0.584255 0
494 1 0.210967 0.567691 0
495 1 0.230376 0.550762 0
496 1 0.249958 0.566682 0
525 1 0.230447 0.582426 0
497 1 0.268387 0.55272 0
527 1 0.272379 0.577734 0
498 1 0.291122 0.561469 0
529 1 0.295829 0.586587 0
500 1 0.315072 0.568061 0
499 1 0.332342 0.549083 0
501 1 0.356527 0.555802 0
531 1 0.339506 0.574438 0
533 1 0.364241 0.580775 0
502 1 0.381102 0.56104 0
504 1 0.406461 0.567 0
534 1 0.388817 0.584446 0
506 1 0.424857 0.549175 0
508 1 0.432053 0.57418 0
509 1 0.44952 0.554417 0
535 1 0.41338 0.590344 0
539 1 0.457207 0.578286 0
540 1 0.473819 0.559871 0
1441 1 0.498143 0.565243 0
569 1 0.481691 0.584225 0
512 1 0.0116192 0.595355 0
542 1 0.014136 0.619954 0
543 1 0.0339721 0.605421 0
544 1 0.0373168 0.629967 0
516 1 0.0788586 0.60103 0
546 1 0.0577409 0.615471 0
547 1 0.0809994 0.626094 0
519 1 0.121914 0.59919 0
518 1 0.101562 0.612488 0
548 1 0.123321 0.623949 0
522 1 0.166609 0.597499 0
549 1 0.14564 0.612426 0
551 1 0.167333 0.623783 0
524 1 0.210179 0.596805 0
553 1 0.18934 0.609671 0
554 1 0.212577 0.620783 0
552 1 0.190651 0.635759 0
526 1 0.252741 0.592802 0
555 1 0.232902 0.606716 0
556 1 0.235431 0.632775 0
557 1 0.256191 0.61787 0
528 1 0.276092 0.601964 0
559 1 0.300695 0.611696 0
558 1 0.280022 0.627964 0
530 1 0.320603 0.593398 0
561 1 0.326147 0.621029 0
532 1 0.344538 0.600022 0
562 1 0.354709 0.623212 0
563 1 0.370089 0.604559 0
565 1 0.379514 0.629091 0
536 1 0.395686 0.6091 0
566 1 0.405152 0.634611 0
537 1 0.437994 0.597133 0
567 1 0.42016 0.615064 0
568 1 0.447254 0.620587 0
538 1 0.462723 0.601647 0
570 1 0.488258 0.608284 0
600 1 0.471333 0.625575 0
1501 1 0.496072 0.632095 0
573 1 0.0189238 0.645177 0
603 1 0.0209147 0.670253 0
574 1 0.0406182 0.65676 0
575 1 0.0609467 0.641333 0
605 1 0.0627856 0.667188 0
576 1 0.0830303 0.65173 0
607 1 0.0850879 0.677835 0
577 1 0.10385 0.637841 0
578 1 0.10523 0.66422 0
579 1 0.126503 0.650325 0
609 1 0.12816 0.67552 0
550 1 0.14754 0.637637 0
581 1 0.16948 0.648335 0
580 1 0.14938 0.661899 0
611 1 0.170554 0.673414 0
583 1 0.214092 0.645965 0
582 1 0.192587 0.660015 0
584 1 0.214964 0.670898 0
587 1 0.257515 0.642679 0
585 1 0.235899 0.656884 0
586 1 0.258431 0.66695 0
560 1 0.303447 0.637638 0
589 1 0.280482 0.651723 0
588 1 0.28103 0.677632 0
590 1 0.302672 0.663571 0
591 1 0.325441 0.648651 0
593 1 0.346692 0.665817 0
621 1 0.324195 0.674825 0
564 1 0.362991 0.647311 0
594 1 0.372074 0.670846 0
595 1 0.389348 0.653255 0
625 1 0.396542 0.677072 0
596 1 0.413605 0.658891 0
597 1 0.429336 0.638652 0
598 1 0.438334 0.663135 0
599 1 0.454576 0.644395 0
629 1 0.479563 0.650082 0
628 1 0.463321 0.667708 0
630 1 0.488966 0.673815 0
602 1 0.000718372 0.683621 0
604 1 0.0427023 0.681952 0
632 1 0.00150972 0.709321 0
633 1 0.0218504 0.696356 0
634 1 0.0232825 0.720895 0
635 1 0.0452925 0.706334 0
606 1 0.0648338 0.692885 0
636 1 0.0666805 0.718158 0
637 1 0.0870378 0.702962 0
608 1 0.108179 0.689524 0
638 1 0.109041 0.715967 0
639 1 0.130114 0.702131 0
610 1 0.150592 0.687717 0
641 1 0.152085 0.712908 0
612 1 0.172561 0.698766 0
642 1 0.174331 0.724305 0
613 1 0.194316 0.684103 0
614 1 0.216842 0.696804 0
643 1 0.195551 0.710135 0
645 1 0.218239 0.721668 0
615 1 0.237182 0.682482 0
617 1 0.260039 0.69277 0
616 1 0.239386 0.70697 0
647 1 0.262359 0.717998 0
619 1 0.302427 0.688894 0
618 1 0.282675 0.703941 0
620 1 0.30438 0.714865 0
592 1 0.35773 0.690075 0
622 1 0.323503 0.699072 0
653 1 0.344345 0.710299 0
651 1 0.325119 0.725927 0
623 1 0.381632 0.696071 0
624 1 0.367457 0.716202 0
626 1 0.406425 0.70111 0
655 1 0.391296 0.720525 0
627 1 0.422564 0.682357 0
657 1 0.447675 0.687414 0
656 1 0.431013 0.705618 0
686 1 0.415843 0.725124 0
658 1 0.454932 0.711096 0
659 1 0.471449 0.692269 0
660 1 0.479582 0.715862 0
1531 1 0.496167 0.697708 0
663 1 0.00196478 0.734123 0
662 1 0.00474436 0.758304 0
664 1 0.0253961 0.745836 0
665 1 0.0451947 0.731257 0
694 1 0.0242176 0.772589 0
666 1 0.0678414 0.742388 0
695 1 0.0471093 0.756481 0
697 1 0.0696713 0.768809 0
667 1 0.0887718 0.728282 0
668 1 0.0902981 0.755982 0
640 1 0.130947 0.728 0
669 1 0.110304 0.740736 0
699 1 0.111784 0.7676 0
670 1 0.13235 0.752762 0
671 1 0.153653 0.738088 0
672 1 0.155888 0.764546 0
673 1 0.17633 0.748856 0
644 1 0.196907 0.736114 0
674 1 0.19932 0.760489 0
675 1 0.220501 0.747112 0
705 1 0.220953 0.772452 0
646 1 0.240866 0.732449 0
677 1 0.242802 0.756997 0
648 1 0.263457 0.743402 0
678 1 0.264611 0.768707 0
649 1 0.284771 0.729182 0
650 1 0.306204 0.741208 0
679 1 0.285407 0.75467 0
681 1 0.309327 0.766366 0
652 1 0.32945 0.751093 0
683 1 0.357609 0.756011 0
654 1 0.348991 0.734285 0
685 1 0.374913 0.739054 0
715 1 0.399591 0.743642 0
684 1 0.381745 0.762652 0
714 1 0.406874 0.767443 0
687 1 0.439306 0.730108 0
717 1 0.42342 0.749423 0
688 1 0.447918 0.75298 0
689 1 0.463796 0.734634 0
690 1 0.487576 0.739854 0
719 1 0.471403 0.758434 0
1591 1 0.495321 0.763226 0
693 1 0.00616896 0.790138 0
723 1 0.0232656 0.80935 0
696 1 0.0475076 0.780889 0
725 1 0.0478449 0.804618 0
727 1 0.0697232 0.79404 0
698 1 0.0906865 0.782082 0
728 1 0.0935108 0.808232 0
700 1 0.113786 0.793376 0
701 1 0.13459 0.778133 0
731 1 0.137273 0.801735 0
703 1 0.178422 0.77438 0
702 1 0.158525 0.788741 0
732 1 0.158951 0.815016 0
733 1 0.179992 0.801326 0
704 1 0.200499 0.786303 0
735 1 0.202317 0.812042 0
706 1 0.222654 0.798518 0
676 1 0.242948 0.783132 0
737 1 0.246018 0.808977 0
707 1 0.265708 0.794222 0
709 1 0.286908 0.77977 0
708 1 0.287499 0.805172 0
710 1 0.309695 0.812931 0
680 1 0.321011 0.789858 0
682 1 0.340546 0.774693 0
711 1 0.346702 0.798168 0
713 1 0.365133 0.780353 0
712 1 0.372773 0.804075 0
743 1 0.389775 0.78658 0
745 1 0.397289 0.809976 0
716 1 0.43135 0.772732 0
747 1 0.43944 0.796351 0
746 1 0.414395 0.790875 0
775 1 0.421589 0.814123 0
718 1 0.455705 0.777016 0
720 1 0.479423 0.782136 0
749 1 0.463161 0.802228 0
1621 1 0.486073 0.807221 0
751 1 0.0180404 0.832886 0
752 1 0.0127358 0.857772 0
753 1 0.0361981 0.851923 0
722 1 0.0424463 0.827649 0
726 1 0.0689966 0.81915 0
724 1 0.0613146 0.844042 0
755 1 0.0806191 0.860861 0
757 1 0.0868276 0.835916 0
729 1 0.110857 0.82768 0
756 1 0.104746 0.854693 0
759 1 0.127132 0.848563 0
730 1 0.136279 0.825841 0
761 1 0.158935 0.840061 0
763 1 0.18135 0.825873 0
762 1 0.180921 0.851864 0
760 1 0.146493 0.863632 0
734 1 0.204476 0.838069 0
736 1 0.225681 0.823368 0
765 1 0.226219 0.847573 0
764 1 0.206119 0.862391 0
738 1 0.268075 0.820412 0
767 1 0.247292 0.833321 0
766 1 0.249111 0.858567 0
768 1 0.271899 0.847296 0
739 1 0.290518 0.83103 0
769 1 0.295833 0.855271 0
740 1 0.315734 0.837363 0
741 1 0.332529 0.818335 0
742 1 0.356293 0.822145 0
771 1 0.340413 0.841501 0
770 1 0.324719 0.860741 0
773 1 0.364298 0.84605 0
744 1 0.380368 0.828267 0
803 1 0.389419 0.851738 0
774 1 0.40537 0.833252 0
748 1 0.445997 0.820405 0
777 1 0.430179 0.838683 0
776 1 0.414533 0.857069 0
778 1 0.439739 0.863198 0
779 1 0.453976 0.843649 0
1651 1 0.495203 0.83111 0
750 1 0.470431 0.826164 0
780 1 0.47951 0.850314 0
812 1 0.000570713 0.906971 0
783 1 0.0310167 0.876163 0
782 1 0.00630568 0.882547 0
813 1 0.0251152 0.900143 0
784 1 0.0490122 0.893369 0
754 1 0.0547009 0.869314 0
785 1 0.0734621 0.885597 0
786 1 0.090231 0.903431 0
758 1 0.122581 0.872975 0
787 1 0.0979812 0.879075 0
788 1 0.11535 0.89715 0
789 1 0.139844 0.890702 0
791 1 0.163682 0.88257 0
790 1 0.156848 0.90822 0
823 1 0.181388 0.901543 0
792 1 0.18692 0.877215 0
793 1 0.20543 0.893514 0
795 1 0.227907 0.875097 0
796 1 0.252979 0.882035 0
827 1 0.268821 0.90048 0
825 1 0.245946 0.907815 0
797 1 0.277132 0.875067 0
799 1 0.308044 0.877952 0
798 1 0.292918 0.896495 0
829 1 0.315411 0.904987 0
800 1 0.33269 0.884929 0
801 1 0.348962 0.865956 0
802 1 0.357291 0.889343 0
831 1 0.341752 0.908264 0
772 1 0.372684 0.870195 0
805 1 0.398032 0.875688 0
804 1 0.382085 0.894294 0
806 1 0.407255 0.899563 0
807 1 0.422748 0.880552 0
808 1 0.448043 0.887639 0
837 1 0.431259 0.904595 0
809 1 0.464299 0.868062 0
1681 1 0.488886 0.873967 0
810 1 0.473187 0.893104 0
1711 1 0.497824 0.898247 0
842 1 0.0109827 0.948609 0
843 1 0.0174783 0.924604 0
844 1 0.0359472 0.942095 0
814 1 0.0422296 0.917915 0
815 1 0.0666623 0.910062 0
816 1 0.0849774 0.926855 0
845 1 0.06059 0.934138 0
846 1 0.0790105 0.951301 0
819 1 0.13281 0.915357 0
817 1 0.108709 0.920328 0
818 1 0.126278 0.939716 0
847 1 0.101884 0.945197 0
821 1 0.174631 0.925921 0
820 1 0.149615 0.933357 0
851 1 0.168151 0.949645 0
794 1 0.222908 0.912138 0
824 1 0.198911 0.919567 0
822 1 0.19217 0.94315 0
853 1 0.216161 0.938005 0
855 1 0.240039 0.931615 0
826 1 0.263753 0.926156 0
856 1 0.257262 0.949325 0
828 1 0.287883 0.920133 0
857 1 0.281163 0.944511 0
859 1 0.305276 0.938893 0
830 1 0.325941 0.927463 0
832 1 0.349813 0.932785 0
860 1 0.326347 0.953724 0
833 1 0.366382 0.913163 0
863 1 0.373591 0.936623 0
834 1 0.390573 0.918068 0
865 1 0.399745 0.941464 0
835 1 0.416268 0.923667 0
838 1 0.43992 0.929008 0
836 1 0.424584 0.947891 0
867 1 0.449023 0.952904 0
839 1 0.456378 0.911942 0
1741 1 0.48984 0.939588 0
840 1 0.48209 0.916338 0
869 1 0.466035 0.9348 0
872 1 0.0219128 0.990039 0
873 1 0.0282231 0.966047 0
871 1 0.00424062 0.972949 0
874 1 0.045947 0.983292 0
875 1 0.0536864 0.958734 0
876 1 0.0708949 0.976543 0
7 1 0.088421 0.995138 0
877 1 0.0957164 0.969434 0
848 1 0.119524 0.963005 0
878 1 0.113788 0.987228 0
881 1 0.155291 0.998349 0
879 1 0.137166 0.98185 0
849 1 0.143266 0.957944 0
850 1 0.161385 0.974344 0
11 1 0.179142 0.991724 0
852 1 0.185235 0.967254 0
882 1 0.202627 0.986458 0
883 1 0.210143 0.962694 0
884 1 0.227813 0.979565 0
854 1 0.233772 0.95599 0
885 1 0.251061 0.973828 0
17 1 0.269222 0.992127 0
886 1 0.244253 0.997802 0
887 1 0.275793 0.968169 0
858 1 0.299655 0.96187 0
888 1 0.292858 0.986028 0
889 1 0.316738 0.979132 0
861 1 0.35659 0.955623 0
891 1 0.341252 0.974345 0
890 1 0.349854 0.997097 0
862 1 0.365336 0.978574 0
864 1 0.38148 0.960223 0
893 1 0.390078 0.983239 0
895 1 0.407236 0.965121 0
896 1 0.414184 0.988938 0
866 1 0.432485 0.971182 0
897 1 0.439543 0.994454 0
868 1 0.457225 0.976325 0
899 1 0.481323 0.982724 0
1771 1 0.497663 0.964127 0
870 1 0.473815 0.958371 0
898 1 0.463516 0.999844 0
902 1 0.538298 0.0164882 0
931 1 0.521045 0.0346018 0
901 1 0.513364 0.0111919 0
933 1 0.545942 0.039991 0
904 1 0.562154 0.0215508 0
906 1 0.579694 0.00465336 0
935 1 0.586062 0.0280768 0
908 1 0.604165 0.00846923 0
937 1 0.61036 0.0334827 0
939 1 0.627646 0.0149872 0
938 1 0.635433 0.0396223 0
940 1 0.651845 0.0212172 0
971 1 0.667231 0.0402232 0
942 1 0.675796 0.0145459 0
944 1 0.692951 0.0335207 0
945 1 0.718613 0.0273875 0
943 1 0.700586 0.00957443 0
914 1 0.724323 0.0021502 0
947 1 0.742263 0.0198827 0
948 1 0.761206 0.0376827 0
918 1 0.766648 0.0129517 0
946 1 0.737538 0.0453719 0
919 1 0.791823 0.00694761 0
949 1 0.784935 0.031586 0
920 1 0.808957 0.0248426 0
951 1 0.832917 0.017757 0
952 1 0.852138 0.0359535 0
922 1 0.857393 0.0118928 0
950 1 0.826538 0.0422253 0
953 1 0.876963 0.0296198 0
955 1 0.900107 0.023205 0
924 1 0.881961 0.00626786 0
926 1 0.924788 0.0166279 0
928 1 0.949297 0.0102121 0
957 1 0.943401 0.03439 0
956 1 0.919162 0.0414115 0
930 1 0.991969 0.0212304 0
959 1 0.968229 0.0270426 0
929 1 0.973329 0.00280308 0
932 1 0.528071 0.0577506 0
962 1 0.53537 0.0826486 0
961 1 0.51138 0.0768008 0
60 1 0.503451 0.0536089 0
934 1 0.570286 0.0463412 0
963 1 0.552071 0.063819 0
965 1 0.576511 0.0705717 0
964 1 0.558683 0.0880079 0
936 1 0.594137 0.0520692 0
966 1 0.601218 0.0756627 0
967 1 0.618839 0.057643 0
968 1 0.626487 0.081477 0
969 1 0.642534 0.0631107 0
970 1 0.666337 0.064663 0
999 1 0.65289 0.0871211 0
972 1 0.683027 0.0818571 0
975 1 0.713058 0.0502546 0
973 1 0.690328 0.0581464 0
1003 1 0.70781 0.0745156 0
974 1 0.731037 0.0688919 0
976 1 0.755027 0.0633365 0
1005 1 0.749907 0.0881691 0
1007 1 0.773639 0.0809664 0
979 1 0.802818 0.0495334 0
977 1 0.778839 0.0557674 0
978 1 0.796881 0.0733205 0
980 1 0.821045 0.0666272 0
981 1 0.845658 0.0595361 0
1011 1 0.840473 0.0829984 0
982 1 0.864057 0.0770934 0
954 1 0.894062 0.0471908 0
983 1 0.870443 0.0533232 0
984 1 0.887941 0.0711108 0
1015 1 0.905044 0.0881446 0
985 1 0.9123 0.0647133 0
986 1 0.929311 0.0822119 0
987 1 0.937339 0.0585175 0
988 1 0.954362 0.0757352 0
960 1 0.98533 0.0455039 0
958 1 0.961157 0.0518324 0
989 1 0.97881 0.0691364 0
990 1 0.996091 0.0862088 0
991 1 0.518435 0.101324 0
992 1 0.525436 0.124881 0
993 1 0.542102 0.106616 0
120 1 0.501361 0.119922 0
994 1 0.566958 0.112144 0
995 1 0.584297 0.0940705 0
1023 1 0.549772 0.130752 0
996 1 0.591555 0.118139 0
997 1 0.60742 0.0999553 0
1027 1 0.615512 0.123429 0
998 1 0.6313 0.104775 0
1000 1 0.655312 0.111778 0
1001 1 0.678338 0.104586 0
1029 1 0.639305 0.1299 0
1030 1 0.663221 0.135374 0
1031 1 0.695752 0.12195 0
1002 1 0.702352 0.0985149 0
1033 1 0.720124 0.11851 0
1004 1 0.725773 0.0934297 0
1035 1 0.744447 0.11219 0
1006 1 0.767705 0.105911 0
1036 1 0.760514 0.130588 0
1009 1 0.814542 0.0909765 0
1008 1 0.790793 0.097678 0
1037 1 0.785631 0.123098 0
1039 1 0.808356 0.115647 0
1040 1 0.826359 0.132899 0
1010 1 0.833265 0.108679 0
1012 1 0.857196 0.101385 0
1041 1 0.851467 0.125421 0
1043 1 0.875607 0.119156 0
1013 1 0.881404 0.095082 0
1014 1 0.899446 0.11276 0
1016 1 0.91753 0.132076 0
1017 1 0.923415 0.107187 0
1018 1 0.947096 0.0995047 0
1047 1 0.941086 0.124399 0
1019 1 0.971543 0.0930073 0
1020 1 0.98927 0.110805 0
1049 1 0.965015 0.117424 0
1050 1 0.983096 0.13593 0
1021 1 0.508154 0.143531 0
1022 1 0.532733 0.14903 0
1053 1 0.539806 0.173119 0
1051 1 0.515906 0.167235 0
1025 1 0.574312 0.13733 0
1024 1 0.557338 0.155374 0
1055 1 0.582268 0.161722 0
1054 1 0.564426 0.179041 0
1026 1 0.598441 0.14269 0
1028 1 0.623868 0.148728 0
1057 1 0.60609 0.166839 0
1058 1 0.630592 0.173545 0
1059 1 0.647014 0.155437 0
1061 1 0.671469 0.162312 0
1060 1 0.655102 0.180211 0
1032 1 0.687393 0.144271 0
1063 1 0.711571 0.14347 0
1062 1 0.696837 0.167216 0
1064 1 0.722002 0.171709 0
1034 1 0.736422 0.136512 0
1065 1 0.75397 0.154089 0
1095 1 0.747177 0.178582 0
1066 1 0.77138 0.172096 0
1038 1 0.803043 0.14075 0
1067 1 0.77843 0.148563 0
1068 1 0.796707 0.164792 0
1069 1 0.820844 0.157671 0
1071 1 0.845132 0.149721 0
1070 1 0.839619 0.174776 0
1072 1 0.864321 0.167731 0
1044 1 0.893216 0.137896 0
1042 1 0.869288 0.143271 0
1073 1 0.887744 0.161666 0
1074 1 0.904623 0.179896 0
1045 1 0.911758 0.156023 0
1075 1 0.929846 0.173813 0
1046 1 0.936575 0.150011 0
1077 1 0.95505 0.167337 0
1048 1 0.959462 0.142586 0
1079 1 0.978247 0.161943 0
1080 1 0.995869 0.178931 0
1052 1 0.522865 0.191837 0
1082 1 0.529434 0.215325 0
1081 1 0.505509 0.210126 0
1083 1 0.546831 0.197687 0
1085 1 0.571249 0.204115 0
1084 1 0.554555 0.222109 0
1056 1 0.5886 0.186113 0
1086 1 0.596542 0.210247 0
1087 1 0.612855 0.191671 0
1088 1 0.621076 0.21663 0
1089 1 0.638191 0.198317 0
1090 1 0.663385 0.204327 0
1119 1 0.646449 0.222684 0
1091 1 0.680855 0.186601 0
1092 1 0.688324 0.210057 0
1093 1 0.706286 0.190858 0
1123 1 0.713961 0.215466 0
1094 1 0.730553 0.197278 0
1096 1 0.757492 0.201792 0
1125 1 0.738875 0.221417 0
1126 1 0.763011 0.226552 0
1099 1 0.815997 0.181998 0
1097 1 0.791238 0.187989 0
1127 1 0.783457 0.211142 0
1098 1 0.808659 0.206327 0
1129 1 0.827644 0.223789 0
1100 1 0.834026 0.19927 0
1101 1 0.857363 0.192213 0
1131 1 0.851722 0.218243 0
1102 1 0.875245 0.210404 0
1103 1 0.881663 0.185915 0
1104 1 0.899636 0.203617 0
1133 1 0.894585 0.227101 0
1135 1 0.919094 0.223139 0
1105 1 0.923643 0.197748 0
1076 1 0.947479 0.191124 0
1107 1 0.970458 0.216543 0
1078 1 0.971985 0.185603 0
1109 1 0.99187 0.202227 0
1110 1 0.995908 0.225387 0
1111 1 0.512935 0.23436 0
1113 1 0.537554 0.239378 0
1112 1 0.519867 0.258108 0
1143 1 0.544059 0.263698 0
1115 1 0.578829 0.227979 0
1114 1 0.561676 0.246591 0
1116 1 0.585785 0.252062 0
1145 1 0.56872 0.27055 0
1117 1 0.604082 0.234183 0
1118 1 0.628278 0.240208 0
1147 1 0.610701 0.25775 0
1149 1 0.634922 0.264118 0
1121 1 0.671906 0.228243 0
1120 1 0.653691 0.246064 0
1151 1 0.678915 0.251395 0
1150 1 0.660382 0.269773 0
1122 1 0.6963 0.233328 0
1124 1 0.721939 0.239492 0
1153 1 0.704328 0.257312 0
1154 1 0.729237 0.263782 0
1155 1 0.747077 0.245806 0
1156 1 0.753912 0.270126 0
1157 1 0.771998 0.250947 0
1128 1 0.790446 0.23433 0
1159 1 0.813059 0.242453 0
1158 1 0.795233 0.259982 0
1160 1 0.820186 0.265806 0
1130 1 0.83738 0.247213 0
1161 1 0.862276 0.257264 0
1132 1 0.871375 0.235086 0
1163 1 0.888087 0.260274 0
1134 1 0.90904 0.246539 0
1165 1 0.916346 0.270085 0