ITEM: TIMESTEP
253000
ITEM: NUMBER OF ATOMS
1800
ITEM: BOX BOUNDS pp pp pp
-9.0060234416963834e+00 1.7400602344169829e+02
1.1826529217466231e+00 1.6381734707825530e+02
0.0000000000000000e+00 5.5000000000000000e+00
ITEM: ATOMS id type xs ys zs
930 1 0.0294064 0.0239799 0
929 1 0.0133213 0.00664697 0
959 1 0.00827796 0.0322104 0
31 1 0.0446507 0.0420762 0
2 1 0.0508104 0.0168671 0
33 1 0.065349 0.0341246 0
3 1 0.0720151 0.00912726 0
4 1 0.0871805 0.027265 0
6 1 0.109657 0.0181105 0
35 1 0.103988 0.0429079 0
5 1 0.0934554 0.00127284 0
37 1 0.125054 0.0360306 0
8 1 0.130782 0.0113938 0
39 1 0.146602 0.0287257 0
880 1 0.151861 0.00389261 0
9 1 0.167044 0.0219526 0
40 1 0.184103 0.0384573 0
10 1 0.1887 0.0143527 0
41 1 0.204926 0.032257 0
12 1 0.209448 0.00805893 0
14 1 0.226246 0.0246065 0
13 1 0.229722 0.000547229 0
15 1 0.246092 0.0151945 0
45 1 0.242925 0.0402926 0
46 1 0.26712 0.0154754 0
77 1 0.2716 0.0410623 0
47 1 0.287962 0.0224959 0
19 1 0.302817 0.00353962 0
49 1 0.309323 0.0285231 0
20 1 0.324686 0.0103658 0
51 1 0.330803 0.0350575 0
21 1 0.345804 0.0168502 0
23 1 0.367195 0.0233467 0
22 1 0.352179 0.0409662 0
894 1 0.383102 0.00617101 0
24 1 0.388465 0.0301911 0
25 1 0.404408 0.0127281 0
26 1 0.409927 0.0376017 0
27 1 0.425797 0.0211539 0
29 1 0.446383 0.0254919 0
28 1 0.430719 0.0460909 0
898 1 0.441676 0.00175137 0
900 1 0.462663 0.00916159 0
30 1 0.46834 0.0335204 0
901 1 0.484145 0.0155474 0
931 1 0.489488 0.0400618 0
960 1 0.02453 0.049622 0
989 1 0.0183818 0.0746455 0
958 1 0.00341658 0.0566389 0
990 1 0.0347719 0.0921522 0
61 1 0.0401851 0.0668516 0
62 1 0.0565795 0.0841928 0
32 1 0.0611741 0.0586574 0
63 1 0.0774736 0.0754039 0
34 1 0.0816583 0.0502272 0
65 1 0.0987328 0.0672458 0
66 1 0.11438 0.0848117 0
36 1 0.120268 0.0603126 0
67 1 0.136041 0.0776861 0
38 1 0.141394 0.0528034 0
69 1 0.162195 0.0463128 0
68 1 0.157693 0.0696347 0
70 1 0.173427 0.0873616 0
71 1 0.178495 0.0628748 0
72 1 0.194367 0.0804985 0
42 1 0.199845 0.0560568 0
43 1 0.221476 0.0490343 0
73 1 0.214772 0.0731708 0
44 1 0.23643 0.0670936 0
74 1 0.260543 0.0834187 0
75 1 0.256832 0.0592192 0
105 1 0.229675 0.0911142 0
76 1 0.278238 0.0654418 0
48 1 0.293688 0.0472983 0
79 1 0.299111 0.071615 0
50 1 0.315439 0.0530897 0
81 1 0.320435 0.0781353 0
52 1 0.336425 0.0597395 0
82 1 0.341877 0.0855606 0
83 1 0.357721 0.0671087 0
53 1 0.373422 0.0483242 0
54 1 0.378233 0.0735396 0
55 1 0.394063 0.0559034 0
56 1 0.400053 0.0801367 0
57 1 0.414846 0.0631241 0
87 1 0.422213 0.0877056 0
58 1 0.437366 0.0700974 0
59 1 0.45295 0.0516208 0
89 1 0.458877 0.0759678 0
932 1 0.49601 0.0639502 0
60 1 0.47423 0.0586609 0
961 1 0.480295 0.0826796 0
1020 1 0.0293329 0.11716 0
1019 1 0.0140412 0.0990202 0
1049 1 0.00797871 0.123174 0
121 1 0.0461881 0.133239 0
91 1 0.0501274 0.108517 0
92 1 0.0669211 0.125357 0
93 1 0.072352 0.100651 0
64 1 0.0936665 0.0927164 0
94 1 0.0889808 0.11728 0
95 1 0.109573 0.108627 0
125 1 0.104329 0.134448 0
96 1 0.125075 0.125009 0
99 1 0.151492 0.0939026 0
97 1 0.130509 0.101601 0
98 1 0.147041 0.118445 0
100 1 0.16679 0.110705 0
130 1 0.183202 0.128025 0
101 1 0.188779 0.103871 0
129 1 0.161681 0.136057 0
102 1 0.204308 0.120992 0
103 1 0.209197 0.0980402 0
104 1 0.227186 0.117574 0
106 1 0.247435 0.103771 0
137 1 0.251685 0.126859 0
107 1 0.267913 0.108463 0
78 1 0.283473 0.0902915 0
109 1 0.289189 0.114312 0
108 1 0.274001 0.133422 0
80 1 0.304774 0.0959897 0
110 1 0.310027 0.120353 0
111 1 0.326106 0.102679 0
141 1 0.332093 0.128157 0
84 1 0.363653 0.091906 0
113 1 0.348321 0.108997 0
112 1 0.369404 0.116277 0
143 1 0.353909 0.133709 0
85 1 0.384929 0.0979637 0
115 1 0.391334 0.121851 0
86 1 0.406549 0.10456 0
116 1 0.412577 0.129131 0
88 1 0.443762 0.0936059 0
117 1 0.428095 0.11175 0
119 1 0.449426 0.118235 0
118 1 0.43374 0.136177 0
90 1 0.465239 0.100246 0
120 1 0.470607 0.124573 0
991 1 0.486444 0.106965 0
992 1 0.492938 0.131362 0
1050 1 0.0247364 0.140965 0
1079 1 0.0202752 0.1654 0
1048 1 0.00363561 0.147473 0
1080 1 0.0369261 0.18189 0
151 1 0.0418861 0.157878 0
122 1 0.0627717 0.150327 0
152 1 0.0589564 0.175157 0
153 1 0.0793191 0.165276 0
123 1 0.0836046 0.14044 0
124 1 0.101679 0.172407 0
126 1 0.119099 0.154758 0
157 1 0.140541 0.165053 0
127 1 0.139969 0.141741 0
128 1 0.16155 0.168504 0
159 1 0.177733 0.152009 0
132 1 0.183852 0.175433 0
131 1 0.20012 0.158048 0
133 1 0.216466 0.141244 0
134 1 0.221201 0.165494 0
163 1 0.205668 0.18267 0
135 1 0.237962 0.14537 0
165 1 0.242269 0.168738 0
136 1 0.259178 0.151407 0
167 1 0.263738 0.175193 0
138 1 0.279977 0.156978 0
139 1 0.295789 0.139217 0
169 1 0.301445 0.162249 0
140 1 0.317415 0.144703 0
171 1 0.322522 0.169345 0
142 1 0.338486 0.152311 0
172 1 0.343675 0.176522 0
173 1 0.359558 0.158139 0
114 1 0.375083 0.140445 0
144 1 0.381102 0.164626 0
145 1 0.397142 0.146468 0
146 1 0.402664 0.172158 0
147 1 0.418421 0.154315 0
148 1 0.440303 0.159879 0
177 1 0.424783 0.17861 0
149 1 0.45584 0.142798 0
150 1 0.461427 0.166885 0
1051 1 0.482922 0.173986 0
1021 1 0.477367 0.148717 0
1022 1 0.498558 0.156403 0
1107 1 0.00983441 0.21275 0
1109 1 0.0332853 0.218361 0
1078 1 0.0147904 0.189031 0
181 1 0.0507805 0.200947 0
183 1 0.071399 0.209286 0
182 1 0.0554155 0.226468 0
154 1 0.0858437 0.189618 0
185 1 0.092399 0.215505 0
156 1 0.108413 0.197731 0
186 1 0.112903 0.22259 0
155 1 0.123644 0.180798 0
158 1 0.130019 0.205057 0
160 1 0.146086 0.187896 0
189 1 0.151588 0.211624 0
161 1 0.167976 0.193193 0
191 1 0.17366 0.217111 0
162 1 0.189322 0.199874 0
192 1 0.195783 0.224888 0
193 1 0.210543 0.206932 0
164 1 0.227149 0.189076 0
195 1 0.231897 0.213714 0
166 1 0.247945 0.194318 0
196 1 0.253487 0.219578 0
197 1 0.269651 0.200199 0
168 1 0.285824 0.181101 0
198 1 0.275596 0.224067 0
199 1 0.290877 0.205482 0
170 1 0.306791 0.187541 0
200 1 0.31231 0.211805 0
201 1 0.328438 0.193721 0
202 1 0.334017 0.218538 0
174 1 0.365355 0.182071 0
203 1 0.350013 0.20041 0
204 1 0.371904 0.207264 0
233 1 0.355388 0.225179 0
175 1 0.386369 0.189287 0
205 1 0.393011 0.213916 0
176 1 0.408655 0.196433 0
207 1 0.413981 0.220365 0
179 1 0.445838 0.184821 0
178 1 0.42942 0.203325 0
209 1 0.451088 0.209469 0
208 1 0.436069 0.228446 0
180 1 0.467093 0.192018 0
1081 1 0.474245 0.217437 0
1052 1 0.488467 0.198806 0
1082 1 0.494954 0.222794 0
1140 1 0.0253357 0.264003 0
1110 1 0.0181347 0.236304 0
1108 1 0.00507068 0.255411 0
211 1 0.0388732 0.244263 0
212 1 0.0464159 0.269143 0
213 1 0.0610371 0.251204 0
184 1 0.0770196 0.233162 0
214 1 0.0834859 0.257573 0
215 1 0.0985355 0.240295 0
216 1 0.104825 0.263968 0
217 1 0.120009 0.245947 0
218 1 0.126052 0.270419 0
187 1 0.135816 0.229155 0
188 1 0.141179 0.252533 0
190 1 0.158034 0.234748 0
220 1 0.16324 0.258481 0
221 1 0.179506 0.241561 0
222 1 0.185207 0.266509 0
223 1 0.200431 0.249103 0
194 1 0.21717 0.230996 0
224 1 0.222951 0.255333 0
253 1 0.206459 0.274426 0
225 1 0.237837 0.237565 0
226 1 0.243675 0.261184 0
227 1 0.259946 0.242839 0
257 1 0.265461 0.266947 0
228 1 0.281335 0.249808 0
229 1 0.29671 0.230795 0
230 1 0.302933 0.254413 0
231 1 0.318531 0.236404 0
261 1 0.325013 0.260394 0
232 1 0.340281 0.242696 0
263 1 0.345458 0.266938 0
234 1 0.361371 0.249381 0
235 1 0.378013 0.232075 0
265 1 0.382401 0.257388 0
206 1 0.398765 0.239418 0
236 1 0.404255 0.263542 0
237 1 0.42011 0.24519 0
239 1 0.44127 0.252887 0
238 1 0.426497 0.271821 0
210 1 0.457239 0.235625 0
1113 1 0.500244 0.248338 0
240 1 0.462695 0.259538 0
1111 1 0.478884 0.241475 0
1112 1 0.483809 0.266953 0
1139 1 0.00887605 0.279782 0
1169 1 0.0140804 0.305233 0
241 1 0.0302364 0.287766 0
271 1 0.0359425 0.311134 0
243 1 0.067992 0.275872 0
242 1 0.0522148 0.29298 0
244 1 0.0734488 0.30006 0
245 1 0.0892066 0.281942 0
246 1 0.0952914 0.306097 0
247 1 0.110589 0.28823 0
248 1 0.116824 0.313163 0
249 1 0.132107 0.295263 0
219 1 0.147433 0.276604 0
250 1 0.153124 0.301598 0
251 1 0.168824 0.28337 0
281 1 0.17468 0.308642 0
252 1 0.190453 0.2907 0
283 1 0.19666 0.313697 0
254 1 0.21275 0.298495 0
255 1 0.228641 0.279696 0
285 1 0.234567 0.303375 0
256 1 0.250454 0.285814 0
287 1 0.256037 0.309982 0
259 1 0.286969 0.273485 0
258 1 0.271264 0.291772 0
288 1 0.276638 0.316786 0
289 1 0.292708 0.29835 0
260 1 0.308521 0.278126 0
291 1 0.314052 0.30454 0
262 1 0.329456 0.284925 0
292 1 0.335137 0.310391 0
293 1 0.349699 0.292148 0
264 1 0.365806 0.274773 0
295 1 0.37138 0.298659 0
294 1 0.356292 0.316676 0
266 1 0.387858 0.282217 0
297 1 0.394017 0.305489 0
267 1 0.410386 0.28847 0
298 1 0.416116 0.312379 0
268 1 0.43265 0.295957 0
269 1 0.447976 0.278132 0
270 1 0.453537 0.301832 0
1141 1 0.468803 0.284159 0
300 1 0.474051 0.308365 0
1171 1 0.49069 0.290862 0
1172 1 0.495712 0.315077 0
1229 1 0.02536 0.353266 0
1170 1 0.0206632 0.329025 0
1199 1 0.00400516 0.346791 0
273 1 0.0576761 0.317134 0
1200 1 0.0429411 0.335811 0
301 1 0.0474186 0.360572 0
272 1 0.0638128 0.342277 0
275 1 0.0790962 0.324072 0
274 1 0.0851106 0.348654 0
276 1 0.100303 0.330626 0
305 1 0.106554 0.355642 0
279 1 0.138285 0.320274 0
277 1 0.121544 0.337921 0
278 1 0.142977 0.344008 0
307 1 0.127825 0.361194 0
280 1 0.158999 0.327307 0
311 1 0.165303 0.350003 0
282 1 0.180813 0.332299 0
312 1 0.186567 0.356528 0
313 1 0.202814 0.337209 0
284 1 0.219182 0.32166 0
315 1 0.223884 0.345963 0
286 1 0.239966 0.326909 0
316 1 0.245154 0.351132 0
317 1 0.261179 0.333853 0
318 1 0.267551 0.358461 0
319 1 0.282725 0.340829 0
290 1 0.297558 0.322329 0
320 1 0.304112 0.348091 0
321 1 0.319527 0.329228 0
322 1 0.325768 0.352555 0
323 1 0.341423 0.335141 0
325 1 0.363146 0.341322 0
324 1 0.347218 0.360038 0
296 1 0.377813 0.322976 0
326 1 0.384049 0.347601 0
327 1 0.40087 0.330174 0
328 1 0.405731 0.355006 0
329 1 0.422659 0.337546 0
299 1 0.437582 0.320133 0
359 1 0.443612 0.343594 0
330 1 0.459326 0.326848 0
358 1 0.427222 0.361733 0
360 1 0.465483 0.351363 0
1201 1 0.480196 0.33256 0
1231 1 0.486609 0.35806 0
1259 1 0.00984641 0.37176 0
1230 1 0.0307327 0.378619 0
331 1 0.0367736 0.40236 0
1260 1 0.0144103 0.394817 0
303 1 0.0685637 0.366921 0
302 1 0.0526305 0.384607 0
333 1 0.0745623 0.39068 0
304 1 0.0903644 0.372916 0
335 1 0.0960605 0.397012 0
306 1 0.112104 0.379548 0
337 1 0.116848 0.404847 0
308 1 0.133216 0.385774 0
309 1 0.149542 0.36736 0
339 1 0.154873 0.391879 0
310 1 0.170977 0.374769 0
341 1 0.176647 0.399861 0
343 1 0.192158 0.382024 0
314 1 0.207795 0.362885 0
342 1 0.198351 0.405923 0
344 1 0.212943 0.387521 0
345 1 0.22887 0.36935 0
346 1 0.234191 0.394842 0
347 1 0.250103 0.375828 0
377 1 0.255221 0.402077 0
348 1 0.271418 0.383366 0
349 1 0.28847 0.365812 0
378 1 0.277839 0.407106 0
350 1 0.292807 0.38945 0
351 1 0.310631 0.371788 0
381 1 0.315829 0.39685 0
353 1 0.331713 0.379245 0
352 1 0.336949 0.403279 0
354 1 0.353183 0.385373 0
355 1 0.368291 0.366732 0
356 1 0.37491 0.391115 0
385 1 0.359294 0.410142 0
357 1 0.391214 0.373054 0
386 1 0.396453 0.397853 0
387 1 0.412386 0.380072 0
388 1 0.417993 0.404666 0
389 1 0.433867 0.386388 0
1232 1 0.448524 0.367726 0
1261 1 0.455156 0.392356 0
1262 1 0.470982 0.375409 0
1293 1 0.475822 0.4005 0
1263 1 0.491299 0.382445 0
1294 1 0.497369 0.407416 0
1319 1 0.00407653 0.437019 0
391 1 0.0247084 0.443033 0
1290 1 0.0195378 0.418243 0
332 1 0.0588197 0.408058 0
361 1 0.0420492 0.426475 0
362 1 0.0479585 0.450014 0
363 1 0.0640128 0.432453 0
334 1 0.0803424 0.415586 0
365 1 0.0849101 0.439794 0
336 1 0.100812 0.422252 0
366 1 0.105939 0.446074 0
338 1 0.139211 0.410451 0
367 1 0.122155 0.428318 0
369 1 0.14446 0.435011 0
368 1 0.129183 0.452554 0
340 1 0.160368 0.416614 0
370 1 0.166296 0.441458 0
371 1 0.182217 0.423805 0
401 1 0.187176 0.449006 0
372 1 0.20304 0.431302 0
373 1 0.219262 0.412981 0
374 1 0.22465 0.43729 0
403 1 0.209003 0.454574 0
375 1 0.240695 0.41965 0
405 1 0.24603 0.442717 0
376 1 0.262268 0.425035 0
407 1 0.26782 0.448488 0
409 1 0.28387 0.431688 0
379 1 0.299606 0.413756 0
380 1 0.305511 0.437456 0
382 1 0.320966 0.420894 0
413 1 0.3271 0.44485 0
383 1 0.342472 0.427155 0
414 1 0.364199 0.434292 0
412 1 0.347711 0.452192 0
384 1 0.381137 0.415228 0
415 1 0.386086 0.439485 0
417 1 0.402384 0.421906 0
416 1 0.407436 0.446617 0
419 1 0.439087 0.410769 0
418 1 0.423618 0.429579 0
390 1 0.445407 0.435473 0
447 1 0.429698 0.453551 0
1291 1 0.460482 0.417692 0
1292 1 0.482586 0.42476 0
1321 1 0.466246 0.441209 0
1322 1 0.487234 0.448956 0
1320 1 0.00958468 0.461696 0
421 1 0.016047 0.485475 0
392 1 0.0310318 0.466657 0
422 1 0.0379105 0.491792 0
364 1 0.0692288 0.457159 0
393 1 0.0529979 0.474388 0
394 1 0.0750155 0.481698 0
423 1 0.0587638 0.499748 0
395 1 0.0905413 0.464246 0
396 1 0.0956619 0.488987 0
397 1 0.112434 0.470698 0
427 1 0.117785 0.495125 0
399 1 0.150369 0.4604 0
398 1 0.133354 0.476969 0
429 1 0.155265 0.48409 0
400 1 0.172266 0.467448 0
431 1 0.177114 0.491276 0
402 1 0.193531 0.473288 0
432 1 0.198812 0.49734 0
433 1 0.215001 0.478728 0
404 1 0.231134 0.460681 0
435 1 0.236933 0.484302 0
406 1 0.25215 0.466856 0
436 1 0.25915 0.490717 0
408 1 0.273936 0.473005 0
410 1 0.289551 0.455722 0
441 1 0.294634 0.480511 0
439 1 0.279922 0.499092 0
411 1 0.311142 0.461976 0
440 1 0.316318 0.486268 0
442 1 0.332457 0.469143 0
471 1 0.338519 0.492851 0
473 1 0.354981 0.476348 0
443 1 0.370207 0.458425 0
444 1 0.375678 0.48216 0
445 1 0.391554 0.464671 0
475 1 0.39767 0.489167 0
446 1 0.413335 0.471517 0
477 1 0.419303 0.495127 0
449 1 0.456851 0.484013 0
448 1 0.434886 0.477845 0
420 1 0.451143 0.460147 0
1353 1 0.493818 0.47287 0
1351 1 0.478149 0.490138 0
450 1 0.472204 0.466251 0
452 1 0.0276016 0.533666 0
451 1 0.0213304 0.509759 0
1380 1 0.00500361 0.529125 0
453 1 0.0429126 0.516237 0
454 1 0.0489516 0.541553 0
424 1 0.0653376 0.524328 0
425 1 0.0805085 0.505575 0
455 1 0.0866544 0.530702 0
426 1 0.101859 0.512285 0
456 1 0.108314 0.53684 0
457 1 0.124004 0.518433 0
459 1 0.145415 0.525195 0
428 1 0.139173 0.501032 0
458 1 0.13006 0.542785 0
430 1 0.161203 0.508777 0
460 1 0.167599 0.53227 0
461 1 0.183476 0.514335 0
462 1 0.189031 0.538293 0
463 1 0.205068 0.521419 0
434 1 0.220948 0.502351 0
464 1 0.226773 0.527176 0
465 1 0.243025 0.509471 0
466 1 0.248567 0.534077 0
437 1 0.263412 0.515618 0
497 1 0.270005 0.53967 0
467 1 0.285565 0.522931 0
438 1 0.301315 0.504547 0
468 1 0.306007 0.528786 0
469 1 0.321821 0.511542 0
499 1 0.327701 0.536172 0
470 1 0.343915 0.517262 0
503 1 0.36537 0.524075 0
501 1 0.349765 0.541559 0
474 1 0.381609 0.505938 0
472 1 0.360183 0.499264 0
505 1 0.387131 0.52998 0
476 1 0.403241 0.51358 0
506 1 0.408746 0.537293 0
507 1 0.423867 0.518801 0
480 1 0.445356 0.52595 0
478 1 0.441205 0.501751 0
509 1 0.4298 0.542363 0
479 1 0.462267 0.508527 0
510 1 0.467525 0.53279 0
1381 1 0.483686 0.513494 0
1411 1 0.488129 0.539198 0
481 1 0.0111141 0.55313 0
483 1 0.0335531 0.558439 0
1410 1 0.0174075 0.577038 0
482 1 0.0390394 0.583616 0
485 1 0.0704949 0.548167 0
513 1 0.0545101 0.565614 0
514 1 0.0608926 0.589249 0
484 1 0.0767315 0.572302 0
486 1 0.0923504 0.55464 0
515 1 0.098679 0.578974 0
487 1 0.114384 0.560472 0
517 1 0.120225 0.584655 0
489 1 0.152145 0.549745 0
488 1 0.136283 0.566765 0
490 1 0.157248 0.574767 0
491 1 0.173494 0.557092 0
521 1 0.179199 0.582101 0
493 1 0.210954 0.544774 0
492 1 0.195621 0.563489 0
523 1 0.200771 0.58739 0
494 1 0.216902 0.570138 0
495 1 0.232855 0.552105 0
525 1 0.238219 0.577349 0
496 1 0.254275 0.558859 0
526 1 0.259647 0.583254 0
527 1 0.275177 0.565508 0
498 1 0.290991 0.547831 0
529 1 0.296605 0.572798 0
528 1 0.281201 0.590771 0
500 1 0.31275 0.554399 0
530 1 0.318772 0.578408 0
531 1 0.334301 0.560212 0
532 1 0.339987 0.584047 0
533 1 0.35566 0.566678 0
502 1 0.371569 0.547812 0
534 1 0.376359 0.573319 0
504 1 0.392344 0.554783 0
535 1 0.397747 0.579424 0
508 1 0.414293 0.561291 0
537 1 0.419322 0.586149 0
539 1 0.435284 0.568468 0
540 1 0.451569 0.550098 0
569 1 0.457093 0.574004 0
1442 1 0.47834 0.581008 0
1441 1 0.472846 0.557171 0
1412 1 0.494556 0.562908 0
511 1 0.024703 0.601697 0
541 1 0.0301136 0.625612 0
1440 1 0.00750777 0.620099 0
1439 1 0.00370704 0.595747 0
512 1 0.0461785 0.607908 0
542 1 0.0527414 0.630845 0
543 1 0.0680594 0.613396 0
545 1 0.0833554 0.597704 0
546 1 0.0893448 0.621292 0
516 1 0.104758 0.602439 0
547 1 0.110471 0.628297 0
518 1 0.125551 0.609932 0
519 1 0.140964 0.591857 0
548 1 0.14707 0.616508 0
577 1 0.132659 0.634395 0
520 1 0.162316 0.598409 0
549 1 0.16914 0.622283 0
522 1 0.185618 0.605377 0
551 1 0.190296 0.629786 0
553 1 0.206472 0.61233 0
524 1 0.221769 0.594715 0
554 1 0.228372 0.619334 0
555 1 0.242898 0.600959 0
556 1 0.24938 0.625709 0
557 1 0.265407 0.608494 0
558 1 0.287742 0.615463 0
587 1 0.270993 0.632373 0
559 1 0.302966 0.596556 0
561 1 0.324898 0.603129 0
560 1 0.309364 0.621626 0
591 1 0.330675 0.62742 0
562 1 0.346158 0.609914 0
563 1 0.361344 0.591074 0
565 1 0.367246 0.614939 0
564 1 0.352784 0.633154 0
536 1 0.382748 0.597568 0
566 1 0.388576 0.621871 0
567 1 0.403902 0.604275 0
597 1 0.410744 0.629435 0
568 1 0.425405 0.611453 0
538 1 0.441297 0.593388 0
600 1 0.447503 0.617613 0
599 1 0.431787 0.635075 0
570 1 0.46253 0.599617 0
1501 1 0.468511 0.623812 0
1471 1 0.485009 0.605618 0
1472 1 0.489366 0.629729 0
1470 1 0.015831 0.643735 0
571 1 0.0379678 0.648454 0
1500 1 0.0122186 0.668691 0
572 1 0.0426901 0.672571 0
544 1 0.0736964 0.638294 0
573 1 0.0584476 0.655572 0
603 1 0.0633987 0.68007 0
574 1 0.0793766 0.663169 0
575 1 0.0952202 0.645872 0
605 1 0.100715 0.669416 0
576 1 0.116783 0.65181 0
607 1 0.121996 0.676537 0
578 1 0.138722 0.659195 0
579 1 0.154481 0.641509 0
609 1 0.159787 0.665951 0
550 1 0.175431 0.648453 0
580 1 0.180574 0.672544 0
552 1 0.212621 0.636144 0
581 1 0.197342 0.654118 0
611 1 0.202639 0.67869 0
582 1 0.218186 0.661909 0
583 1 0.234061 0.643898 0
584 1 0.24066 0.667164 0
585 1 0.255664 0.649837 0
615 1 0.26185 0.674437 0
586 1 0.276716 0.657107 0
589 1 0.293151 0.639595 0
588 1 0.298749 0.664023 0
617 1 0.282849 0.682143 0
590 1 0.313701 0.646147 0
621 1 0.320479 0.670165 0
593 1 0.335552 0.650768 0
592 1 0.341286 0.674941 0
594 1 0.3573 0.657475 0
595 1 0.374209 0.640223 0
625 1 0.378726 0.663854 0
596 1 0.395707 0.646697 0
627 1 0.401309 0.670663 0
598 1 0.417022 0.653143 0
657 1 0.422732 0.676944 0
628 1 0.43786 0.659141 0
629 1 0.453292 0.641993 0
630 1 0.460057 0.666226 0
1503 1 0.496117 0.653303 0
1502 1 0.474265 0.648189 0
1533 1 0.48107 0.673387 0
601 1 0.0260752 0.687583 0
631 1 0.0202049 0.710501 0
632 1 0.0368658 0.72622 0
1530 1 0.00473025 0.693046 0
1560 1 -0.00111882 0.717188 0
602 1 0.0459428 0.698508 0
633 1 0.0675796 0.705891 0
604 1 0.0841361 0.687867 0
635 1 0.0882041 0.712668 0
606 1 0.105988 0.694347 0
636 1 0.110338 0.719351 0
637 1 0.126995 0.702235 0
608 1 0.142528 0.684095 0
638 1 0.148328 0.707829 0
667 1 0.131681 0.726756 0
639 1 0.165107 0.690975 0
641 1 0.169185 0.71514 0
610 1 0.18629 0.697213 0
642 1 0.19122 0.721008 0
612 1 0.207751 0.703215 0
613 1 0.223679 0.685591 0
643 1 0.230194 0.709782 0
614 1 0.245405 0.691532 0
645 1 0.251012 0.716243 0
616 1 0.266608 0.698838 0
647 1 0.272683 0.723355 0
618 1 0.288056 0.705388 0
619 1 0.304344 0.688264 0
620 1 0.310652 0.712067 0
622 1 0.325847 0.695146 0
651 1 0.331919 0.719056 0
623 1 0.363467 0.682817 0
653 1 0.347219 0.700509 0
624 1 0.369784 0.707364 0
654 1 0.3546 0.725775 0
626 1 0.384793 0.688327 0
655 1 0.39122 0.71339 0
656 1 0.406839 0.694329 0
686 1 0.412756 0.718971 0
658 1 0.429131 0.700508 0
659 1 0.443573 0.683296 0
660 1 0.449699 0.708078 0
687 1 0.434424 0.725597 0
1531 1 0.464961 0.690622 0
1561 1 0.472224 0.714407 0
1532 1 0.486564 0.696677 0
1563 1 0.493076 0.721633 0
663 1 0.0315696 0.75037 0
661 1 0.0151286 0.733948 0
1590 1 0.00953551 0.757613 0
662 1 0.0475461 0.76806 0
634 1 0.0721709 0.730573 0
664 1 0.0528942 0.743145 0
695 1 0.0696586 0.761019 0
665 1 0.0938159 0.736339 0
697 1 0.098545 0.760049 0
666 1 0.115987 0.743918 0
668 1 0.120583 0.767333 0
669 1 0.137562 0.750517 0
640 1 0.154295 0.733149 0
670 1 0.158608 0.756971 0
671 1 0.175975 0.7394 0
672 1 0.182613 0.763577 0
644 1 0.214024 0.728733 0
673 1 0.197548 0.745757 0
703 1 0.204471 0.770234 0
674 1 0.219769 0.752834 0
675 1 0.235289 0.73405 0
705 1 0.240849 0.758438 0
646 1 0.257082 0.740456 0
677 1 0.262986 0.76519 0
648 1 0.278774 0.747566 0
649 1 0.294971 0.72942 0
679 1 0.300554 0.754538 0
650 1 0.316412 0.736511 0
681 1 0.322089 0.761117 0
652 1 0.337637 0.742809 0
682 1 0.343985 0.767917 0
683 1 0.359313 0.750372 0
685 1 0.375882 0.731413 0
684 1 0.380548 0.755191 0
715 1 0.397102 0.73821 0
714 1 0.402193 0.762638 0
717 1 0.418337 0.74423 0
716 1 0.423869 0.768639 0
688 1 0.43993 0.750057 0
689 1 0.454901 0.732652 0
719 1 0.461479 0.757186 0
690 1 0.475843 0.738548 0
1591 1 0.4829 0.763386 0
1562 1 0.49813 0.746625 0
691 1 0.025842 0.775248 0
721 1 0.019519 0.79983 0
1620 1 0.00427264 0.782696 0
692 1 0.0351816 0.818 0
693 1 0.0410478 0.792743 0
723 1 0.0565338 0.809413 0
694 1 0.062901 0.786053 0
725 1 0.0781662 0.805098 0
696 1 0.0843001 0.78059 0
727 1 0.100497 0.797028 0
728 1 0.114838 0.816461 0
698 1 0.122137 0.791455 0
699 1 0.140217 0.77638 0
700 1 0.135683 0.810624 0
731 1 0.152357 0.796876 0
701 1 0.166467 0.779848 0
702 1 0.187353 0.787513 0
732 1 0.173359 0.806352 0
763 1 0.194293 0.812886 0
733 1 0.210224 0.794821 0
704 1 0.226122 0.777171 0
706 1 0.23128 0.801689 0
676 1 0.247649 0.783228 0
737 1 0.253383 0.808945 0
707 1 0.269075 0.78928 0
678 1 0.286147 0.773143 0
738 1 0.275317 0.814768 0
708 1 0.291138 0.797377 0
709 1 0.306708 0.779508 0
710 1 0.312899 0.803196 0
680 1 0.328591 0.785706 0
741 1 0.334748 0.810588 0
713 1 0.365012 0.774476 0
711 1 0.349832 0.792182 0
712 1 0.370756 0.797983 0
742 1 0.35598 0.816489 0
743 1 0.386582 0.779815 0
745 1 0.392204 0.804704 0
746 1 0.407579 0.787259 0
775 1 0.41406 0.811722 0
718 1 0.444927 0.775484 0
747 1 0.429663 0.79294 0
749 1 0.451311 0.800724 0
748 1 0.434904 0.818765 0
720 1 0.466346 0.781613 0
1621 1 0.473311 0.806036 0
1592 1 0.488289 0.787922 0
1622 1 0.493865 0.8119 0
1680 1 0.0300044 0.841569 0
1650 1 0.0145665 0.824753 0
1709 1 0.00877033 0.849879 0
752 1 0.0458884 0.858597 0
751 1 0.0511918 0.83447 0
753 1 0.0667273 0.8526 0
722 1 0.071816 0.82848 0
726 1 0.0940329 0.821979 0
724 1 0.0876384 0.845925 0
757 1 0.110253 0.839237 0
756 1 0.125667 0.857247 0
729 1 0.13172 0.834255 0
759 1 0.149858 0.849361 0
730 1 0.154881 0.821924 0
761 1 0.177012 0.830792 0
792 1 0.183987 0.854405 0
762 1 0.199369 0.837701 0
735 1 0.21507 0.819951 0
734 1 0.22131 0.844955 0
764 1 0.205842 0.861584 0
736 1 0.236954 0.826953 0
765 1 0.244115 0.851263 0
767 1 0.258792 0.832112 0
766 1 0.265372 0.858 0
768 1 0.280857 0.839654 0
739 1 0.296252 0.821138 0
769 1 0.302633 0.844784 0
797 1 0.287316 0.863011 0
740 1 0.31895 0.828072 0
770 1 0.324005 0.852431 0
771 1 0.339923 0.834463 0
801 1 0.346245 0.858696 0
773 1 0.361509 0.840872 0
744 1 0.377269 0.823093 0
803 1 0.383327 0.8478 0
774 1 0.398807 0.829992 0
776 1 0.40406 0.855196 0
777 1 0.420223 0.837944 0
779 1 0.441818 0.842759 0
778 1 0.426038 0.861144 0
750 1 0.456578 0.824661 0
1651 1 0.478399 0.831664 0
780 1 0.462875 0.849501 0
1652 1 0.483821 0.855355 0
1710 1 0.00289371 0.873738 0
781 1 0.0240334 0.867182 0
811 1 0.0187576 0.891222 0
812 1 0.0343168 0.908745 0
782 1 0.0398444 0.885045 0
813 1 0.0563847 0.902196 0
783 1 0.0607477 0.876993 0
755 1 0.103666 0.863352 0
784 1 0.0773065 0.895046 0
754 1 0.0820047 0.870592 0
785 1 0.0982561 0.887411 0
786 1 0.115042 0.904684 0
787 1 0.119639 0.880557 0
788 1 0.136533 0.89755 0
758 1 0.14136 0.873316 0
760 1 0.164216 0.86623 0
789 1 0.157862 0.89114 0
790 1 0.174206 0.907065 0
791 1 0.182014 0.882358 0
823 1 0.196013 0.902022 0
793 1 0.212543 0.88575 0
795 1 0.229058 0.86892 0
794 1 0.234066 0.893668 0
796 1 0.24986 0.876401 0
825 1 0.25692 0.899526 0
827 1 0.271558 0.881642 0
826 1 0.278016 0.906326 0
798 1 0.29341 0.888784 0
799 1 0.309803 0.871542 0
829 1 0.31572 0.895098 0
800 1 0.330674 0.877755 0
831 1 0.336826 0.901459 0
802 1 0.352173 0.882901 0
772 1 0.367546 0.865209 0
804 1 0.373459 0.889873 0
833 1 0.358457 0.907505 0
805 1 0.388397 0.872446 0
806 1 0.394877 0.897367 0
807 1 0.410137 0.878432 0
837 1 0.417018 0.903924 0
809 1 0.447555 0.867397 0
808 1 0.431661 0.884755 0
810 1 0.453533 0.890911 0
1681 1 0.469047 0.874126 0
1711 1 0.47475 0.897798 0
1682 1 0.49036 0.880003 0
1713 1 0.496865 0.903917 0
841 1 0.0284266 0.932809 0
1740 1 0.0130706 0.915733 0
1769 1 0.00761297 0.940284 0
842 1 0.0447726 0.950717 0
843 1 0.050119 0.925909 0
844 1 0.0663966 0.942612 0
814 1 0.0723939 0.918472 0
815 1 0.0935608 0.911976 0
845 1 0.088178 0.936045 0
816 1 0.109819 0.92887 0
846 1 0.104777 0.953065 0
847 1 0.125774 0.945898 0
819 1 0.152312 0.914594 0
817 1 0.13126 0.921604 0
818 1 0.146462 0.939177 0
820 1 0.167505 0.93105 0
851 1 0.182694 0.949159 0
821 1 0.189812 0.925626 0
822 1 0.204559 0.943095 0
824 1 0.217132 0.910565 0
853 1 0.225331 0.933205 0
855 1 0.241305 0.917922 0
854 1 0.246776 0.9429 0
856 1 0.262918 0.925639 0
885 1 0.268283 0.949657 0
857 1 0.284168 0.930399 0
828 1 0.299858 0.912115 0
859 1 0.30544 0.937566 0
830 1 0.321379 0.919464 0
860 1 0.327058 0.943646 0
832 1 0.343464 0.925877 0
863 1 0.364636 0.933157 0
861 1 0.348474 0.951023 0
834 1 0.379554 0.915145 0
865 1 0.386113 0.939819 0
835 1 0.401895 0.92143 0
836 1 0.407261 0.945699 0
838 1 0.423412 0.928174 0
839 1 0.438922 0.909421 0
869 1 0.44519 0.933355 0
867 1 0.429226 0.952252 0
840 1 0.459568 0.915804 0
1712 1 0.481223 0.922337 0
1741 1 0.465378 0.940233 0
1742 1 0.486546 0.946949 0
1799 1 0.00278801 0.964245 0
1770 1 0.0236307 0.957648 0
1800 1 0.0185842 0.982186 0
1 1 0.0350034 0.999232 0
871 1 0.0392741 0.974681 0
872 1 0.056368 0.991363 0
873 1 0.0610402 0.967514 0
874 1 0.0766795 0.984915 0
875 1 0.0828744 0.959855 0
876 1 0.0984156 0.977095 0
7 1 0.114795 0.994172 0
877 1 0.120526 0.970656 0
878 1 0.136042 0.986855 0
848 1 0.141327 0.963047 0
849 1 0.161755 0.956276 0
879 1 0.157135 0.980592 0
881 1 0.172529 0.997062 0
850 1 0.17795 0.973267 0
11 1 0.193927 0.990219 0
852 1 0.198443 0.965982 0
883 1 0.221312 0.958144 0
882 1 0.21397 0.982571 0
884 1 0.235217 0.977233 0
886 1 0.253991 0.967587 0
16 1 0.258466 0.992362 0
18 1 0.281275 0.997735 0
887 1 0.289914 0.955615 0
17 1 0.27497 0.973439 0
888 1 0.296824 0.979079 0
858 1 0.311825 0.961354 0
889 1 0.318205 0.986041 0
891 1 0.333817 0.968585 0
890 1 0.339681 0.992774 0
862 1 0.354954 0.975224 0
864 1 0.37047 0.957118 0
893 1 0.377267 0.981102 0
892 1 0.360977 0.99873 0
895 1 0.392704 0.964222 0
896 1 0.398674 0.988719 0
866 1 0.414595 0.970277 0
897 1 0.42039 0.994527 0
868 1 0.435702 0.976837 0
899 1 0.456115 0.983289 0
870 1 0.450117 0.958991 0
1773 1 0.492674 0.971916 0
1771 1 0.471996 0.965374 0
1772 1 0.478133 0.99112 0
902 1 0.505627 0.023279 0
904 1 0.52724 0.0277052 0
905 1 0.521526 0.00402841 0
906 1 0.542864 0.00980748 0
935 1 0.549324 0.0333794 0
908 1 0.564927 0.0164284 0
937 1 0.570819 0.0408868 0
939 1 0.58614 0.0216834 0
940 1 0.60809 0.0273336 0
941 1 0.601118 0.00354231 0
938 1 0.592138 0.0474027 0
942 1 0.75271 0.0229986 0
944 1 0.7684 0.0405406 0
912 1 0.758191 -0.000403292 0
943 1 0.773913 0.0163288 0
945 1 0.790238 0.0340375 0
914 1 0.794921 0.0099896 0
947 1 0.811442 0.0276024 0
918 1 0.83217 0.0202157 0
916 1 0.816142 0.00339362 0
949 1 0.848389 0.0373127 0
919 1 0.853719 0.0128344 0
920 1 0.87054 0.0312543 0
1790 1 0.875182 0.00522043 0
951 1 0.891907 0.0245728 0
922 1 0.913687 0.0165928 0
952 1 0.907729 0.0420048 0
953 1 0.928898 0.033985 0
924 1 0.934333 0.0107139 0
955 1 0.94993 0.0277531 0
925 1 0.955184 0.00351431 0
926 1 0.971486 0.0205809 0
957 1 0.987556 0.0387668 0
928 1 0.99271 0.014263 0
933 1 0.511126 0.0470576 0
963 1 0.5175 0.0712206 0
934 1 0.53377 0.051757 0
962 1 0.501156 0.0888699 0
965 1 0.539147 0.0768427 0
936 1 0.555064 0.0593636 0
966 1 0.560696 0.0844121 0
967 1 0.576143 0.0659987 0
968 1 0.581846 0.0908497 0
969 1 0.598393 0.0716837 0
971 1 0.746394 0.0470239 0
970 1 0.740556 0.0712764 0
973 1 0.76211 0.0653578 0
975 1 0.784101 0.0591057 0
1003 1 0.777971 0.0828947 0
974 1 0.80045 0.07598 0
946 1 0.805364 0.0517608 0
948 1 0.826928 0.044545 0
976 1 0.821753 0.068498 0
1007 1 0.83729 0.0864925 0
977 1 0.843764 0.0611455 0
979 1 0.865206 0.0555862 0
978 1 0.858664 0.0799005 0
980 1 0.879833 0.0741038 0
950 1 0.886467 0.0501639 0
981 1 0.901508 0.0665403 0
982 1 0.917073 0.0842372 0
983 1 0.922628 0.0590095 0
984 1 0.938107 0.0773741 0
954 1 0.944282 0.0519951 0
985 1 0.959794 0.0706403 0
956 1 0.966465 0.0456698 0
987 1 0.980996 0.0630128 0
988 1 0.99748 0.0816419 0
986 1 0.974941 0.0879399 0
964 1 0.523992 0.0946245 0
993 1 0.509073 0.113142 0
994 1 0.530251 0.119868 0
995 1 0.545703 0.10147 0
996 1 0.550739 0.126698 0
997 1 0.567117 0.11012 0
1027 1 0.573107 0.133339 0
998 1 0.588653 0.115448 0
1000 1 0.610187 0.123529 0
1030 1 0.632079 0.12991 0
999 1 0.647262 0.111536 0
1001 1 0.669613 0.119091 0
1002 1 0.691297 0.126618 0
972 1 0.755466 0.0897196 0
1033 1 0.773115 0.106582 0
1065 1 0.788101 0.124434 0
1004 1 0.794422 0.100532 0
1035 1 0.80946 0.118762 0
1005 1 0.815355 0.094137 0
1006 1 0.831655 0.111961 0
1036 1 0.826964 0.136152 0
1037 1 0.848037 0.129418 0
1008 1 0.852297 0.105353 0
1039 1 0.869027 0.123251 0
1009 1 0.874013 0.0981116 0
1011 1 0.895837 0.0910511 0
1010 1 0.889837 0.116169 0
1012 1 0.910744 0.10804 0
1041 1 0.905578 0.134202 0
1015 1 0.95402 0.0947998 0
1043 1 0.927414 0.126649 0
1013 1 0.93161 0.101945 0
1014 1 0.948114 0.119439 0
1017 1 0.969763 0.111572 0
1018 1 0.991631 0.105468 0
1047 1 0.987138 0.130109 0
1023 1 0.514814 0.138183 0
1024 1 0.520583 0.162955 0
1025 1 0.535988 0.144422 0
1053 1 0.504135 0.179718 0
1055 1 0.54265 0.169347 0
1026 1 0.557694 0.151348 0
1057 1 0.563012 0.17597 0
1028 1 0.578459 0.158294 0
1029 1 0.594495 0.141229 0
1058 1 0.599854 0.165824 0
1059 1 0.61578 0.146651 0
1032 1 0.653618 0.135713 0
1060 1 0.622192 0.171642 0
1061 1 0.637537 0.154729 0
1091 1 0.643597 0.178219 0
1062 1 0.65875 0.15981 0