ITEM: TIMESTEP
315000
ITEM: NUMBER OF ATOMS
1800
ITEM: BOX BOUNDS pp pp pp
-1.1502853222461074e+01 1.7650285322246299e+02
1.1826529217466231e+00 1.6381734707825530e+02
0.0000000000000000e+00 5.5000000000000000e+00
ITEM: ATOMS id type xs ys zs
930 1 0.0350246 0.0247533 0
929 1 0.020211 0.00666934 0
959 1 0.0149278 0.0303953 0
31 1 0.0508127 0.040125 0
2 1 0.0555467 0.0156512 0
33 1 0.0714214 0.0332918 0
3 1 0.0770969 0.00822037 0
4 1 0.0927851 0.0256858 0
6 1 0.113726 0.0183439 0
5 1 0.0977961 0.000967223 0
35 1 0.108224 0.0431922 0
37 1 0.129147 0.0365928 0
8 1 0.134198 0.0120044 0
39 1 0.149671 0.0289029 0
880 1 0.155323 0.00526954 0
9 1 0.170541 0.0219501 0
40 1 0.186381 0.0395335 0
10 1 0.191076 0.0160167 0
41 1 0.206943 0.0337088 0
12 1 0.212011 0.00917079 0
14 1 0.227606 0.0268861 0
13 1 0.232535 0.00287653 0
15 1 0.247576 0.0195344 0
46 1 0.26754 0.0191769 0
45 1 0.24453 0.0442703 0
77 1 0.272383 0.0436226 0
47 1 0.287943 0.0258041 0
19 1 0.302649 0.00827985 0
49 1 0.309229 0.0315156 0
20 1 0.324485 0.0131355 0
51 1 0.329748 0.0379431 0
21 1 0.345865 0.0194772 0
23 1 0.366609 0.0261343 0
22 1 0.351634 0.0439626 0
894 1 0.381504 0.00706347 0
892 1 0.359998 0.000472305 0
24 1 0.386886 0.0323456 0
25 1 0.401752 0.0135255 0
26 1 0.408136 0.0393506 0
27 1 0.422616 0.01997 0
29 1 0.444738 0.0258615 0
898 1 0.438011 0.00174167 0
900 1 0.458536 0.00719809 0
28 1 0.429749 0.044707 0
30 1 0.465074 0.0322899 0
901 1 0.479846 0.0145661 0
931 1 0.485724 0.0392578 0
988 1 0.00451381 0.0801088 0
960 1 0.0298016 0.0484198 0
989 1 0.0255648 0.0730608 0
958 1 0.00914694 0.0550074 0
61 1 0.0455157 0.0653866 0
62 1 0.0612239 0.0828005 0
32 1 0.0666709 0.0579088 0
63 1 0.0821529 0.0752473 0
34 1 0.0868294 0.0503299 0
65 1 0.102402 0.068577 0
66 1 0.117618 0.0850937 0
36 1 0.122489 0.0600754 0
67 1 0.138545 0.0781937 0
38 1 0.14413 0.0539009 0
69 1 0.165109 0.0465378 0
68 1 0.159398 0.0712354 0
71 1 0.180749 0.0639767 0
70 1 0.174869 0.0878409 0
72 1 0.19545 0.0814104 0
42 1 0.201813 0.0574157 0
43 1 0.222683 0.0508157 0
73 1 0.216203 0.0748673 0
44 1 0.237465 0.0688462 0
74 1 0.263637 0.0860193 0
75 1 0.259336 0.0624523 0
76 1 0.280048 0.0674667 0
48 1 0.293871 0.0490395 0
79 1 0.300375 0.0745566 0
50 1 0.314958 0.0557659 0
81 1 0.320584 0.0809555 0
52 1 0.334941 0.0618801 0
82 1 0.341464 0.0868958 0
83 1 0.355977 0.0687744 0
53 1 0.372453 0.0502476 0
54 1 0.377481 0.0753168 0
55 1 0.392409 0.0568482 0
56 1 0.399245 0.0802871 0
57 1 0.414791 0.0629296 0
87 1 0.418871 0.0877504 0
58 1 0.435079 0.0704784 0
59 1 0.450623 0.0512224 0
89 1 0.456339 0.0754404 0
932 1 0.491433 0.0636284 0
60 1 0.471419 0.0570466 0
961 1 0.476728 0.0818831 0
962 1 0.497366 0.0872398 0
1020 1 0.0351804 0.11428 0
1019 1 0.0198192 0.0970116 0
1049 1 0.0149707 0.122362 0
990 1 0.0408198 0.0900967 0
121 1 0.0501962 0.131732 0
91 1 0.0565187 0.107105 0
92 1 0.0707384 0.125448 0
93 1 0.0760345 0.0999016 0
64 1 0.0963572 0.0926752 0
94 1 0.091634 0.118 0
95 1 0.112456 0.109724 0
125 1 0.107802 0.133845 0
96 1 0.12866 0.126989 0
97 1 0.133219 0.102861 0
98 1 0.149113 0.119021 0
99 1 0.154216 0.0954352 0
100 1 0.170733 0.112074 0
130 1 0.186468 0.129689 0
101 1 0.191004 0.104753 0
102 1 0.206734 0.123025 0
103 1 0.211545 0.099 0
104 1 0.229247 0.117852 0
105 1 0.231535 0.0927736 0
106 1 0.249262 0.105061 0
137 1 0.25474 0.128652 0
78 1 0.284405 0.0924419 0
107 1 0.269668 0.110422 0
109 1 0.291173 0.116488 0
108 1 0.276706 0.134559 0
80 1 0.305082 0.0987181 0
110 1 0.311898 0.123038 0
111 1 0.326463 0.105795 0
141 1 0.332899 0.12907 0
113 1 0.347699 0.111056 0
84 1 0.361404 0.0924877 0
112 1 0.36801 0.117612 0
85 1 0.382923 0.0998446 0
143 1 0.353271 0.136019 0
115 1 0.388651 0.124043 0
86 1 0.403856 0.10575 0
116 1 0.409643 0.129809 0
88 1 0.439933 0.0942812 0
117 1 0.425214 0.111784 0
119 1 0.446978 0.118615 0
90 1 0.460979 0.100897 0
120 1 0.468135 0.124672 0
991 1 0.482221 0.106112 0
992 1 0.488376 0.131249 0
1050 1 0.0310356 0.140415 0
1079 1 0.0257065 0.164942 0
1048 1 0.00953458 0.147139 0
1077 1 0.0044354 0.170772 0
151 1 0.0465367 0.158865 0
122 1 0.0660695 0.149383 0
152 1 0.0625257 0.177399 0
153 1 0.0824996 0.167211 0
123 1 0.0859502 0.141434 0
124 1 0.103208 0.158296 0
155 1 0.119646 0.174368 0
126 1 0.123952 0.149939 0
157 1 0.1403 0.167471 0
127 1 0.144042 0.143515 0
129 1 0.164951 0.136889 0
128 1 0.161229 0.162222 0
159 1 0.181539 0.152956 0
132 1 0.189652 0.176698 0
131 1 0.203718 0.155512 0
133 1 0.219933 0.141396 0
134 1 0.224076 0.164874 0
163 1 0.209859 0.183016 0
135 1 0.239926 0.146346 0
165 1 0.245478 0.170676 0
136 1 0.260964 0.152621 0
167 1 0.266539 0.177531 0
138 1 0.281966 0.158645 0
139 1 0.297134 0.140294 0
169 1 0.302565 0.164446 0
140 1 0.317747 0.147188 0
171 1 0.322442 0.171827 0
142 1 0.338044 0.154232 0
172 1 0.344415 0.177581 0
173 1 0.359243 0.160009 0
114 1 0.373713 0.141706 0
144 1 0.380049 0.165927 0
145 1 0.394695 0.147589 0
146 1 0.400989 0.172466 0
147 1 0.415604 0.153395 0
177 1 0.421867 0.178179 0
118 1 0.431222 0.136203 0
148 1 0.437113 0.160226 0
149 1 0.453108 0.14273 0
150 1 0.457801 0.16695 0
1051 1 0.479022 0.174546 0
1021 1 0.473454 0.149943 0
1022 1 0.494234 0.156216 0
1053 1 0.500343 0.181222 0
1107 1 0.0143293 0.214203 0
1078 1 0.0195293 0.189662 0
1109 1 0.0353498 0.210946 0
1080 1 0.0412618 0.182841 0
181 1 0.055907 0.201 0
182 1 0.0634 0.224376 0
183 1 0.0788208 0.203201 0
154 1 0.0968527 0.186085 0
185 1 0.0993408 0.213589 0
156 1 0.115645 0.198587 0
186 1 0.120645 0.221503 0
158 1 0.137003 0.202602 0
160 1 0.153866 0.185964 0
187 1 0.141568 0.228482 0
189 1 0.157955 0.210779 0
161 1 0.173582 0.193474 0
191 1 0.178781 0.217077 0
162 1 0.194115 0.200607 0
192 1 0.199743 0.224007 0
193 1 0.215654 0.207163 0
164 1 0.229924 0.189227 0
195 1 0.23633 0.212413 0
166 1 0.251427 0.194401 0
196 1 0.257022 0.219539 0
168 1 0.286723 0.183917 0
197 1 0.272053 0.201514 0
199 1 0.29266 0.208651 0
198 1 0.277819 0.226645 0
170 1 0.307289 0.190022 0
200 1 0.313716 0.214294 0
201 1 0.328469 0.195999 0
202 1 0.334116 0.220323 0
174 1 0.365311 0.184675 0
203 1 0.350191 0.201574 0
204 1 0.370987 0.209118 0
233 1 0.354999 0.227218 0
175 1 0.385677 0.190781 0
205 1 0.391272 0.215356 0
176 1 0.406472 0.196618 0
207 1 0.411928 0.220328 0
179 1 0.442955 0.184597 0
178 1 0.427569 0.202422 0
209 1 0.449105 0.208715 0
180 1 0.464521 0.192656 0
1081 1 0.469167 0.216506 0
1052 1 0.48526 0.198804 0
1082 1 0.489953 0.222941 0
1140 1 0.0324587 0.258821 0
1110 1 0.0268974 0.234656 0
1108 1 0.0110705 0.252983 0
211 1 0.0477657 0.240939 0
212 1 0.0545305 0.265396 0
213 1 0.0694673 0.248019 0
184 1 0.0846174 0.230446 0
214 1 0.0894405 0.254861 0
215 1 0.105705 0.238354 0
216 1 0.110226 0.262861 0
217 1 0.126311 0.245873 0
218 1 0.130617 0.270997 0
188 1 0.146383 0.252442 0
190 1 0.162837 0.234577 0
220 1 0.168385 0.258591 0
221 1 0.184193 0.241395 0
222 1 0.189131 0.266184 0
223 1 0.205474 0.247866 0
194 1 0.220756 0.231295 0
224 1 0.22534 0.25596 0
225 1 0.241125 0.237538 0
226 1 0.245942 0.262537 0
227 1 0.260859 0.244405 0
257 1 0.267564 0.268667 0
228 1 0.283153 0.250542 0
229 1 0.298145 0.232796 0
230 1 0.303617 0.256793 0
231 1 0.319297 0.23811 0
261 1 0.324488 0.262369 0
232 1 0.339795 0.24438 0
263 1 0.34567 0.268602 0
234 1 0.361129 0.250944 0
235 1 0.375842 0.232504 0
265 1 0.381179 0.257857 0
206 1 0.396303 0.239615 0
236 1 0.401811 0.26372 0
237 1 0.417327 0.246181 0
238 1 0.42269 0.271616 0
208 1 0.432848 0.227148 0
239 1 0.438368 0.252206 0
210 1 0.453289 0.233924 0
240 1 0.458499 0.258517 0
1111 1 0.474077 0.239422 0
1112 1 0.479387 0.264971 0
1113 1 0.494651 0.246375 0
1138 1 0.00164908 0.294638 0
1139 1 0.0172798 0.277224 0
1169 1 0.0221961 0.302589 0
241 1 0.0375531 0.284618 0
243 1 0.0744272 0.272602 0
271 1 0.043747 0.30909 0
242 1 0.0581729 0.290911 0
273 1 0.0642549 0.31576 0
244 1 0.0789541 0.297179 0
245 1 0.0949716 0.279544 0
246 1 0.100457 0.304386 0
247 1 0.11585 0.288114 0
248 1 0.12162 0.312055 0
249 1 0.137003 0.29488 0
219 1 0.152225 0.276809 0
279 1 0.143783 0.318761 0
250 1 0.158455 0.300912 0
251 1 0.173584 0.283096 0
281 1 0.179097 0.306634 0
253 1 0.210254 0.273928 0
252 1 0.194579 0.29023 0
283 1 0.200505 0.314258 0
254 1 0.216051 0.297601 0
255 1 0.231578 0.280881 0
285 1 0.236777 0.304919 0
256 1 0.252338 0.287177 0
287 1 0.257719 0.311205 0
259 1 0.288553 0.2748 0
258 1 0.272835 0.292797 0
288 1 0.277579 0.316973 0
289 1 0.293699 0.299508 0
260 1 0.309135 0.28044 0
291 1 0.314722 0.304674 0
262 1 0.330185 0.287258 0
292 1 0.335675 0.310843 0
293 1 0.351401 0.293409 0
264 1 0.366336 0.27564 0
295 1 0.37172 0.299826 0
266 1 0.386421 0.281883 0
297 1 0.392305 0.306781 0
267 1 0.407155 0.288767 0
298 1 0.413476 0.312947 0
268 1 0.428324 0.294617 0
269 1 0.443404 0.276305 0
270 1 0.449053 0.301037 0
1141 1 0.464714 0.28237 0
300 1 0.470139 0.30743 0
1171 1 0.485214 0.289327 0
1172 1 0.491318 0.314168 0
1168 1 0.00657208 0.320033 0
1229 1 0.0329139 0.351823 0
1170 1 0.0272538 0.326629 0
1199 1 0.0126416 0.344689 0
1200 1 0.0482859 0.334006 0
301 1 0.0545426 0.35845 0
272 1 0.0692535 0.3397 0
303 1 0.0755896 0.365122 0
275 1 0.0852997 0.321364 0
274 1 0.090219 0.345985 0
276 1 0.105508 0.329106 0
305 1 0.111198 0.351767 0
277 1 0.127696 0.335796 0
278 1 0.149528 0.342208 0
307 1 0.132834 0.359225 0
280 1 0.164728 0.32458 0
311 1 0.169842 0.349269 0
282 1 0.184528 0.331646 0
312 1 0.189779 0.357098 0
313 1 0.205908 0.340291 0
284 1 0.221102 0.322812 0
315 1 0.226366 0.346729 0
314 1 0.211395 0.363736 0
286 1 0.24184 0.329396 0
316 1 0.248307 0.352393 0
317 1 0.262852 0.335351 0
318 1 0.269168 0.359054 0
319 1 0.283243 0.340637 0
290 1 0.299254 0.322929 0
320 1 0.305952 0.346958 0
321 1 0.320424 0.328455 0
322 1 0.326041 0.354163 0
323 1 0.340555 0.335711 0
324 1 0.346817 0.36062 0
294 1 0.356468 0.318517 0
325 1 0.361602 0.342729 0
296 1 0.377379 0.324328 0
326 1 0.382253 0.349278 0
327 1 0.397863 0.331461 0
328 1 0.403227 0.356199 0
329 1 0.419245 0.338373 0
299 1 0.434289 0.320233 0
359 1 0.44001 0.344293 0
330 1 0.454947 0.325326 0
358 1 0.424997 0.3621 0
360 1 0.460762 0.350466 0
1202 1 0.496243 0.338973 0
1201 1 0.475771 0.33177 0
1231 1 0.481523 0.358195 0
1259 1 0.0181422 0.369119 0
1260 1 0.0240621 0.393718 0
1258 1 0.00374184 0.387868 0
1230 1 0.0392525 0.375601 0
331 1 0.0442524 0.400262 0
302 1 0.0595846 0.382963 0
332 1 0.0649972 0.406563 0
333 1 0.0805588 0.388332 0
304 1 0.0964958 0.370531 0
335 1 0.102024 0.394582 0
306 1 0.117183 0.376344 0
337 1 0.123456 0.400943 0
308 1 0.138685 0.384811 0
309 1 0.154446 0.36682 0
338 1 0.144159 0.409448 0
339 1 0.158978 0.391335 0
310 1 0.174613 0.3737 0
341 1 0.179569 0.397702 0
343 1 0.196114 0.380631 0
342 1 0.201052 0.404889 0
344 1 0.21643 0.387466 0
345 1 0.232596 0.370709 0
346 1 0.237686 0.394398 0
347 1 0.253611 0.376808 0
377 1 0.259394 0.401658 0
349 1 0.289601 0.364619 0
348 1 0.274521 0.383637 0
350 1 0.295057 0.389847 0
378 1 0.280968 0.408177 0
351 1 0.310208 0.372206 0
381 1 0.31597 0.395738 0
353 1 0.331724 0.378213 0
352 1 0.336739 0.402729 0
354 1 0.352387 0.384806 0
355 1 0.367821 0.368187 0
356 1 0.372817 0.392284 0
357 1 0.38818 0.374615 0
386 1 0.393683 0.398858 0
387 1 0.409227 0.380377 0
388 1 0.414358 0.405304 0
389 1 0.429919 0.386854 0
1232 1 0.446063 0.368888 0
1261 1 0.451158 0.393482 0
1262 1 0.4659 0.375671 0
1293 1 0.47147 0.400528 0
1263 1 0.485969 0.382078 0
1294 1 0.492437 0.405424 0
1289 1 0.00907307 0.412155 0
1319 1 0.0152388 0.436077 0
391 1 0.0360733 0.442403 0
1290 1 0.0298371 0.418336 0
361 1 0.0503402 0.424384 0
362 1 0.0562037 0.448128 0
363 1 0.0713365 0.429849 0
364 1 0.0770213 0.454645 0
334 1 0.0872159 0.41282 0
365 1 0.0924921 0.437531 0
336 1 0.107661 0.419979 0
366 1 0.113749 0.444273 0
367 1 0.128944 0.426111 0
369 1 0.150321 0.433862 0
368 1 0.133854 0.451043 0
340 1 0.164595 0.416135 0
370 1 0.171053 0.440868 0
371 1 0.185555 0.422367 0
401 1 0.191179 0.446677 0
372 1 0.206488 0.428467 0
373 1 0.221744 0.411801 0
374 1 0.227015 0.436761 0
403 1 0.211895 0.45385 0
375 1 0.243647 0.418489 0
405 1 0.248249 0.443252 0
376 1 0.264772 0.425423 0
407 1 0.269468 0.449857 0
409 1 0.285116 0.432095 0
379 1 0.301309 0.414682 0
380 1 0.305039 0.438633 0
382 1 0.321967 0.420746 0
413 1 0.326378 0.445439 0
383 1 0.341902 0.427035 0
385 1 0.356899 0.409332 0
414 1 0.361977 0.433537 0
412 1 0.347006 0.451477 0
384 1 0.378656 0.416165 0
415 1 0.383163 0.440692 0
417 1 0.398379 0.423997 0
416 1 0.403983 0.447478 0
418 1 0.41987 0.428913 0
419 1 0.435127 0.410499 0
390 1 0.440599 0.434888 0
1291 1 0.456752 0.417757 0
447 1 0.425833 0.453105 0
1321 1 0.461267 0.440613 0
1323 1 0.497926 0.430068 0
1292 1 0.477051 0.424359 0
1322 1 0.481797 0.448432 0
1320 1 0.0207283 0.461404 0
421 1 0.0252596 0.48582 0
1349 1 0.00498057 0.478324 0
392 1 0.0414468 0.468019 0
422 1 0.0462188 0.492296 0
393 1 0.0620143 0.474845 0
423 1 0.0673383 0.499105 0
394 1 0.0832252 0.480296 0
395 1 0.0985955 0.462798 0
396 1 0.103851 0.488004 0
397 1 0.119003 0.468397 0
427 1 0.124825 0.492914 0
398 1 0.139691 0.474621 0
399 1 0.155085 0.457535 0
429 1 0.160582 0.48154 0
400 1 0.175911 0.465274 0
431 1 0.181339 0.489785 0
402 1 0.196286 0.47121 0
432 1 0.201829 0.495817 0
433 1 0.217436 0.47771 0
404 1 0.232799 0.46064 0
435 1 0.238063 0.486032 0
406 1 0.253006 0.46724 0
436 1 0.258446 0.492247 0
408 1 0.273538 0.473167 0
410 1 0.289839 0.456745 0
441 1 0.295121 0.4804 0
439 1 0.279826 0.497336 0
411 1 0.310353 0.462426 0
440 1 0.316337 0.487499 0
442 1 0.33113 0.469335 0
471 1 0.336787 0.493725 0
473 1 0.351665 0.476096 0
443 1 0.36846 0.458621 0
444 1 0.373214 0.48255 0
445 1 0.389222 0.465923 0
475 1 0.3941 0.490405 0
446 1 0.409586 0.472059 0
477 1 0.415193 0.495406 0
449 1 0.451061 0.484606 0
420 1 0.446564 0.459703 0
448 1 0.430493 0.477947 0
1351 1 0.471748 0.490555 0
1352 1 0.491965 0.497875 0
450 1 0.466854 0.466824 0
1353 1 0.487169 0.473093 0
452 1 0.0360468 0.534535 0
451 1 0.0312782 0.510763 0
1380 1 0.0154974 0.52839 0
1350 1 0.0104283 0.502858 0
453 1 0.0517544 0.516686 0
454 1 0.0572502 0.539922 0
424 1 0.072773 0.522797 0
425 1 0.0875513 0.505314 0
455 1 0.0939553 0.52947 0
426 1 0.10914 0.512177 0
456 1 0.115028 0.535984 0
457 1 0.130196 0.516908 0
459 1 0.15079 0.524756 0
458 1 0.13485 0.542635 0
428 1 0.145599 0.499277 0
430 1 0.165714 0.506886 0
460 1 0.171408 0.531407 0
461 1 0.186575 0.51438 0
462 1 0.191946 0.539155 0
463 1 0.207349 0.520681 0
434 1 0.221992 0.501988 0
464 1 0.227736 0.527851 0
493 1 0.212799 0.545286 0
465 1 0.242701 0.510118 0
466 1 0.248415 0.534402 0
437 1 0.264358 0.516246 0
497 1 0.270053 0.541131 0
467 1 0.284766 0.5221 0
438 1 0.299924 0.504993 0
468 1 0.306203 0.529403 0
469 1 0.321021 0.512166 0
499 1 0.327211 0.535507 0
470 1 0.34199 0.51737 0
503 1 0.363197 0.523799 0
501 1 0.34874 0.542336 0
474 1 0.378431 0.50702 0
472 1 0.357344 0.49973 0
505 1 0.38415 0.532151 0
476 1 0.398823 0.514257 0
506 1 0.40547 0.538326 0
507 1 0.420243 0.519333 0
480 1 0.441646 0.526246 0
478 1 0.435896 0.502565 0
479 1 0.456648 0.508264 0
509 1 0.426875 0.544135 0
1382 1 0.498344 0.5228 0
510 1 0.461735 0.533024 0
1381 1 0.477556 0.516543 0
1411 1 0.481937 0.54059 0
481 1 0.0206356 0.551798 0
1410 1 0.0252417 0.576498 0
1408 1 0.00506254 0.569392 0
483 1 0.0409717 0.558178 0
482 1 0.045905 0.582575 0
513 1 0.0620232 0.564945 0
485 1 0.0786647 0.546545 0
484 1 0.0831261 0.572039 0
486 1 0.0992229 0.55378 0
515 1 0.103416 0.578162 0
487 1 0.120058 0.560737 0
517 1 0.124372 0.585657 0
488 1 0.140649 0.56715 0
489 1 0.156113 0.548988 0
490 1 0.160666 0.574481 0
491 1 0.176204 0.55644 0
521 1 0.182161 0.581111 0
492 1 0.197435 0.562828 0
523 1 0.203251 0.586502 0
494 1 0.218217 0.568336 0
495 1 0.233985 0.551826 0
525 1 0.239086 0.576227 0
496 1 0.254473 0.558657 0
526 1 0.260214 0.583627 0
527 1 0.275241 0.565811 0
498 1 0.290854 0.548297 0
529 1 0.296214 0.572137 0
528 1 0.28119 0.589848 0
500 1 0.312919 0.553105 0
530 1 0.317543 0.577413 0
531 1 0.33357 0.560676 0
532 1 0.337477 0.585539 0
533 1 0.353813 0.567094 0
502 1 0.368965 0.548971 0
534 1 0.37368 0.573435 0
504 1 0.390109 0.556023 0
535 1 0.395123 0.580227 0
508 1 0.410596 0.562354 0
537 1 0.416062 0.586922 0
539 1 0.431007 0.56856 0
540 1 0.447474 0.550773 0
569 1 0.451479 0.575614 0
1443 1 0.492578 0.589419 0
1442 1 0.472579 0.582341 0
1441 1 0.467919 0.558016 0
1412 1 0.488575 0.564797 0
511 1 0.0317392 0.60243 0
541 1 0.0360919 0.625985 0
1440 1 0.0140511 0.620903 0
1439 1 0.0105694 0.594671 0
514 1 0.0668675 0.589086 0
512 1 0.0517675 0.608075 0
542 1 0.0569757 0.633151 0
543 1 0.0720365 0.615072 0
545 1 0.0882225 0.596001 0
546 1 0.0937713 0.62162 0
516 1 0.109609 0.603346 0
547 1 0.116078 0.628299 0
519 1 0.144954 0.592548 0
518 1 0.130268 0.610421 0
548 1 0.151155 0.61651 0
577 1 0.136438 0.634746 0
520 1 0.16684 0.598835 0
549 1 0.172568 0.622774 0
522 1 0.18824 0.604811 0
551 1 0.193 0.629286 0
553 1 0.208648 0.611159 0
524 1 0.224306 0.593138 0
554 1 0.228632 0.618428 0
555 1 0.24439 0.601059 0
556 1 0.248898 0.625599 0
557 1 0.264824 0.607723 0
558 1 0.285459 0.613925 0
587 1 0.269249 0.632528 0
559 1 0.301528 0.596588 0
560 1 0.306852 0.621196 0
561 1 0.321967 0.60221 0
591 1 0.327707 0.627005 0
562 1 0.343013 0.609903 0
563 1 0.358786 0.59116 0
565 1 0.363757 0.616172 0
564 1 0.348653 0.634438 0
536 1 0.37925 0.597328 0
566 1 0.384952 0.621764 0
567 1 0.400455 0.604122 0
597 1 0.405351 0.628369 0
568 1 0.421366 0.610452 0
538 1 0.436332 0.59328 0
600 1 0.441664 0.618129 0
570 1 0.457052 0.599786 0
599 1 0.426821 0.635406 0
1501 1 0.462768 0.624525 0
1471 1 0.478488 0.607262 0
1472 1 0.483829 0.630841 0
1473 1 0.499256 0.611756 0
1470 1 0.0216804 0.644272 0
1500 1 0.0176639 0.669118 0
1499 1 0.00113482 0.651729 0
571 1 0.0422168 0.649918 0
572 1 0.0493989 0.674425 0
573 1 0.0643842 0.656949 0
603 1 0.0688052 0.681424 0
544 1 0.0786994 0.638566 0
574 1 0.0851439 0.664048 0
575 1 0.0989649 0.645045 0
605 1 0.105466 0.670475 0
576 1 0.119649 0.652542 0
607 1 0.12646 0.676917 0
578 1 0.140886 0.659301 0
579 1 0.157084 0.642193 0
609 1 0.162241 0.666024 0
550 1 0.17807 0.647898 0
580 1 0.182922 0.67226 0
552 1 0.213793 0.636245 0
581 1 0.198687 0.654139 0
611 1 0.203812 0.678765 0
582 1 0.218946 0.661157 0
583 1 0.23417 0.644382 0
584 1 0.240034 0.667684 0
585 1 0.25505 0.650378 0
615 1 0.260271 0.674682 0
586 1 0.276268 0.656275 0
589 1 0.290818 0.639023 0
588 1 0.29667 0.663336 0
617 1 0.282235 0.681011 0
590 1 0.311834 0.645251 0
621 1 0.317854 0.66967 0
593 1 0.333261 0.651145 0
592 1 0.339527 0.676745 0
594 1 0.355185 0.658976 0
595 1 0.369792 0.640349 0
625 1 0.376321 0.664548 0
623 1 0.360628 0.683074 0
596 1 0.391068 0.646824 0
627 1 0.395834 0.670841 0
598 1 0.41146 0.653262 0
657 1 0.416866 0.679132 0
628 1 0.431986 0.660483 0
629 1 0.4469 0.643118 0
630 1 0.45338 0.667155 0
1503 1 0.488672 0.654607 0
1502 1 0.467942 0.648369 0
1533 1 0.473249 0.672792 0
1504 1 0.494109 0.678356 0
601 1 0.0320182 0.687368 0
631 1 0.0283472 0.710975 0
1530 1 0.0117892 0.693351 0
1560 1 0.00686804 0.718469 0
602 1 0.0513008 0.69991 0
633 1 0.0731383 0.707247 0
632 1 0.0453609 0.72766 0
604 1 0.0902171 0.687789 0
635 1 0.0939369 0.713226 0
606 1 0.110112 0.695069 0
636 1 0.115506 0.718984 0
608 1 0.147262 0.683458 0
637 1 0.130419 0.701303 0
638 1 0.152787 0.708055 0
667 1 0.136817 0.726128 0
639 1 0.168401 0.690367 0
641 1 0.173921 0.714119 0
610 1 0.189709 0.696238 0
642 1 0.194689 0.721712 0
612 1 0.209119 0.703228 0
613 1 0.225047 0.685052 0
643 1 0.230119 0.710146 0
614 1 0.245596 0.692696 0
645 1 0.2519 0.716776 0
616 1 0.266357 0.698819 0
647 1 0.273079 0.723014 0
618 1 0.288263 0.70577 0
619 1 0.303262 0.688233 0
620 1 0.309279 0.712747 0
622 1 0.323706 0.694484 0
651 1 0.328952 0.718591 0
653 1 0.344309 0.700873 0
624 1 0.365568 0.707823 0
626 1 0.380994 0.689745 0
654 1 0.351301 0.725757 0
655 1 0.3861 0.713887 0
656 1 0.4018 0.695644 0
686 1 0.406754 0.719631 0
658 1 0.422571 0.702283 0
659 1 0.438161 0.684592 0
660 1 0.443191 0.709522 0
1531 1 0.459029 0.691208 0
687 1 0.427549 0.726484 0
1561 1 0.465563 0.714521 0
1532 1 0.480417 0.697113 0
1563 1 0.486159 0.720484 0
1589 1 0.00114652 0.742393 0
661 1 0.0224232 0.735614 0
1590 1 0.0171336 0.759585 0
663 1 0.0391015 0.752163 0
662 1 0.0525412 0.770433 0
664 1 0.060817 0.746361 0
634 1 0.0790239 0.731092 0
695 1 0.0831739 0.75517 0
665 1 0.0998158 0.738045 0
697 1 0.10489 0.761403 0
666 1 0.120632 0.74282 0
668 1 0.125869 0.766863 0
669 1 0.142533 0.750939 0
640 1 0.157856 0.732923 0
670 1 0.163339 0.757318 0
671 1 0.179064 0.739572 0
672 1 0.185563 0.763615 0
644 1 0.21504 0.728063 0
673 1 0.200406 0.745585 0
703 1 0.206464 0.770777 0
674 1 0.221406 0.752174 0
675 1 0.236774 0.734153 0
705 1 0.24248 0.758433 0
646 1 0.257439 0.740491 0
677 1 0.263813 0.765575 0
648 1 0.278921 0.747171 0
649 1 0.294496 0.730231 0
679 1 0.300584 0.754933 0
678 1 0.28476 0.772459 0
650 1 0.315123 0.73705 0
681 1 0.321005 0.761542 0
652 1 0.335108 0.744038 0
682 1 0.341821 0.767762 0
683 1 0.356026 0.750196 0
685 1 0.372201 0.732498 0
684 1 0.376928 0.756477 0
715 1 0.392319 0.737765 0
714 1 0.39847 0.761761 0
717 1 0.412442 0.744275 0
716 1 0.418777 0.769327 0
688 1 0.433903 0.751415 0
689 1 0.449312 0.733356 0
719 1 0.455488 0.758139 0
690 1 0.470856 0.739484 0
1591 1 0.476725 0.764493 0
1562 1 0.491795 0.745531 0
1593 1 0.497328 0.770242 0
691 1 0.0320279 0.776948 0
721 1 0.0272441 0.801467 0
1620 1 0.011368 0.783492 0
1649 1 0.0064527 0.807813 0
693 1 0.0473008 0.793998 0
723 1 0.0625481 0.810499 0
694 1 0.0688863 0.785827 0
692 1 0.0427131 0.818015 0
725 1 0.0838837 0.803788 0
696 1 0.0903455 0.779676 0
727 1 0.104962 0.796054 0
728 1 0.119035 0.815512 0
698 1 0.126737 0.791532 0
699 1 0.145913 0.776564 0
700 1 0.139512 0.811396 0
731 1 0.156448 0.798395 0
701 1 0.170401 0.780469 0
732 1 0.175354 0.808287 0
702 1 0.190432 0.788179 0
763 1 0.196536 0.81341 0
733 1 0.211125 0.795313 0
704 1 0.227566 0.776959 0
706 1 0.233054 0.801525 0
676 1 0.248044 0.78332 0
737 1 0.253926 0.807369 0
707 1 0.268839 0.790371 0
738 1 0.274556 0.814365 0
708 1 0.290038 0.797146 0
709 1 0.306156 0.779677 0
710 1 0.3111 0.804454 0
680 1 0.326592 0.785966 0
741 1 0.331976 0.810558 0
713 1 0.362403 0.774721 0
711 1 0.347617 0.792639 0
712 1 0.368447 0.798843 0
742 1 0.353161 0.816682 0
743 1 0.3835 0.781013 0
745 1 0.389645 0.804444 0
746 1 0.404502 0.78679 0
775 1 0.410103 0.812194 0
718 1 0.440525 0.775591 0
747 1 0.424906 0.793994 0
749 1 0.446126 0.799954 0
720 1 0.461863 0.782524 0
748 1 0.431029 0.818666 0
1621 1 0.468193 0.806739 0
1592 1 0.482877 0.788692 0
1622 1 0.4881 0.814503 0
1680 1 0.0372577 0.84179 0
1650 1 0.0213003 0.825121 0
1709 1 0.016674 0.848672 0
752 1 0.0525751 0.859649 0
751 1 0.0576365 0.834708 0
753 1 0.0727949 0.853039 0
722 1 0.0780512 0.828587 0
726 1 0.0990157 0.822365 0
724 1 0.0935022 0.846808 0
757 1 0.114288 0.839769 0
755 1 0.109604 0.863717 0
756 1 0.129569 0.856931 0
729 1 0.134761 0.833904 0
759 1 0.151705 0.849004 0
730 1 0.157765 0.825073 0
761 1 0.179479 0.832687 0
792 1 0.186458 0.856365 0
735 1 0.217397 0.819794 0
762 1 0.202235 0.837463 0
734 1 0.223174 0.843874 0
736 1 0.237805 0.825604 0
765 1 0.244968 0.851146 0
767 1 0.259141 0.8332 0
766 1 0.265108 0.858303 0
768 1 0.280356 0.839995 0
739 1 0.296087 0.821579 0
769 1 0.302383 0.846408 0
740 1 0.317497 0.829108 0
770 1 0.323975 0.85231 0
771 1 0.339051 0.835268 0
801 1 0.344784 0.859951 0
773 1 0.359738 0.842051 0
744 1 0.374192 0.823677 0
803 1 0.380746 0.847271 0
774 1 0.394825 0.829632 0
776 1 0.40207 0.854226 0
777 1 0.416546 0.836239 0
778 1 0.422231 0.861157 0
779 1 0.437628 0.842241 0
750 1 0.452195 0.824105 0
780 1 0.458191 0.848945 0
1651 1 0.472581 0.831609 0
1652 1 0.478482 0.856206 0
1653 1 0.49397 0.838428 0
781 1 0.0316737 0.867447 0
1710 1 0.0111941 0.872967 0
811 1 0.0268679 0.891259 0
1739 1 0.00612899 0.897247 0
782 1 0.047098 0.884357 0
813 1 0.0636081 0.901752 0
783 1 0.0677014 0.876417 0
812 1 0.0422127 0.907616 0
784 1 0.083066 0.895167 0
754 1 0.0886331 0.870474 0
785 1 0.104127 0.888089 0
786 1 0.119841 0.905423 0
787 1 0.124767 0.881146 0
788 1 0.140695 0.897709 0
758 1 0.145496 0.873956 0
760 1 0.166979 0.866906 0
789 1 0.161197 0.890753 0
791 1 0.184629 0.882507 0
790 1 0.176411 0.908293 0
764 1 0.207785 0.862895 0
823 1 0.198286 0.902433 0
793 1 0.21415 0.887203 0
795 1 0.22968 0.868885 0
794 1 0.235155 0.894697 0
796 1 0.249641 0.876678 0
825 1 0.257098 0.90029 0
797 1 0.288056 0.864389 0
827 1 0.27247 0.881203 0
826 1 0.278333 0.906365 0
798 1 0.293451 0.888794 0
799 1 0.309003 0.870738 0
829 1 0.314487 0.896234 0
800 1 0.329342 0.878001 0
831 1 0.335936 0.902732 0
802 1 0.350439 0.883772 0
772 1 0.366191 0.866196 0
804 1 0.371804 0.891049 0
805 1 0.386728 0.871812 0
806 1 0.392434 0.896598 0
807 1 0.407224 0.879373 0
837 1 0.413468 0.904026 0
809 1 0.443081 0.866094 0
808 1 0.428483 0.88494 0
810 1 0.449827 0.892049 0
1681 1 0.463777 0.872986 0
1711 1 0.470155 0.898073 0
1682 1 0.484693 0.880224 0
1713 1 0.491304 0.905912 0
841 1 0.0368168 0.93275 0
1740 1 0.021198 0.914692 0
1769 1 0.0157637 0.939499 0
1738 1 -5.37429e-05 0.922002 0
842 1 0.0524135 0.94983 0
843 1 0.0566229 0.92602 0
844 1 0.0728594 0.942869 0
814 1 0.0779676 0.919554 0
815 1 0.0991374 0.912422 0
845 1 0.0937026 0.935925 0
816 1 0.114283 0.929332 0
846 1 0.108577 0.95364 0
847 1 0.129315 0.946618 0
817 1 0.13602 0.923046 0
818 1 0.151011 0.940295 0
819 1 0.156065 0.915423 0
820 1 0.17193 0.93236 0
851 1 0.18723 0.950164 0
821 1 0.192948 0.925643 0
822 1 0.207826 0.94326 0
824 1 0.219854 0.912513 0
853 1 0.228376 0.936576 0
855 1 0.243051 0.919156 0
854 1 0.248618 0.944516 0
856 1 0.263169 0.925981 0
885 1 0.269771 0.949552 0
857 1 0.284455 0.930733 0
828 1 0.299265 0.913057 0
859 1 0.30537 0.939563 0
830 1 0.32069 0.921053 0
860 1 0.326643 0.945178 0
832 1 0.341949 0.92598 0
833 1 0.356494 0.908521 0
863 1 0.3629 0.933004 0
861 1 0.347878 0.950123 0
834 1 0.377107 0.914749 0
865 1 0.38375 0.939676 0
835 1 0.397969 0.921424 0
836 1 0.404894 0.946021 0
838 1 0.419866 0.92884 0
839 1 0.434145 0.910559 0
869 1 0.441184 0.934227 0
840 1 0.455379 0.916146 0
867 1 0.42594 0.952459 0
1741 1 0.462059 0.940154 0
1743 1 0.497812 0.93014 0
1712 1 0.47713 0.923151 0
1742 1 0.483244 0.948415 0
1770 1 0.0302557 0.957212 0
1799 1 0.00903209 0.964019 0
1800 1 0.0248433 0.981643 0
1798 1 0.00498177 0.989295 0
871 1 0.0460178 0.973755 0
872 1 0.0617254 0.991358 0
873 1 0.0672346 0.967299 0
1 1 0.0404872 0.99945 0
874 1 0.0823306 0.984158 0
875 1 0.0881553 0.959944 0
876 1 0.102946 0.977581 0
7 1 0.118389 0.994143 0
877 1 0.123217 0.970269 0
878 1 0.139076 0.98856 0
848 1 0.145139 0.962843 0
849 1 0.166701 0.956724 0
879 1 0.159947 0.980584 0
850 1 0.181331 0.975357 0
881 1 0.175038 0.99823 0
11 1 0.196787 0.991953 0
852 1 0.201935 0.967812 0
883 1 0.223531 0.960548 0
882 1 0.217459 0.98519 0
884 1 0.238539 0.978799 0
886 1 0.256747 0.968046 0
16 1 0.257771 0.995073 0
887 1 0.289984 0.957213 0
17 1 0.27596 0.976593 0
888 1 0.297014 0.981814 0
18 1 0.281129 1.0006 0
858 1 0.311198 0.962643 0
889 1 0.318054 0.989567 0
891 1 0.333169 0.969687 0
890 1 0.339275 0.993768 0
862 1 0.354108 0.975216 0
864 1 0.368305 0.957781 0
893 1 0.375041 0.982011 0
895 1 0.389642 0.963894 0
896 1 0.396056 0.988308 0
866 1 0.410923 0.970436 0
897 1 0.417213 0.995976 0
868 1 0.43175 0.977256 0
899 1 0.452406 0.982776 0
870 1 0.44693 0.958618 0
903 1 0.494353 0.997519 0
1773 1 0.490053 0.97256 0
1771 1 0.468379 0.965852 0
1772 1 0.47346 0.989243 0
904 1 0.521556 0.0281594 0
905 1 0.515931 0.00319274 0
906 1 0.536227 0.00993529 0
902 1 0.500501 0.0218134 0
935 1 0.542074 0.0343595 0
908 1 0.557032 0.0164681 0
937 1 0.562831 0.0404975 0
939 1 0.578269 0.0221694 0
940 1 0.600065 0.0267238 0
941 1 0.593865 0.003388 0
942 1 0.764525 0.0217844 0
943 1 0.785728 0.0157434 0
945 1 0.800264 0.033831 0
944 1 0.77878 0.0393772 0
914 1 0.807339 0.00990746 0
947 1 0.821801 0.0272166 0
918 1 0.843009 0.0207495 0
948 1 0.836829 0.0449177 0
916 1 0.828504 0.00276516 0
949 1 0.858694 0.0379231 0
919 1 0.863833 0.0133134 0
920 1 0.879547 0.0307534 0
1790 1 0.88467 0.00563796 0
951 1 0.900257 0.0237102 0
922 1 0.92196 0.0176977 0
952 1 0.915456 0.0418236 0
953 1 0.936686 0.0350446 0
924 1 0.942791 0.01046 0
955 1 0.957523 0.0281881 0
925 1 0.962553 0.00398573 0
926 1 0.97872 0.0199638 0
957 1 0.993119 0.0376179 0
956 1 0.973075 0.0461655 0
928 1 0.998756 0.0132591 0
933 1 0.506448 0.0455141 0
963 1 0.512189 0.0699948 0
934 1 0.526902 0.052511 0
965 1 0.533013 0.0771654 0
936 1 0.547094 0.0591835 0
966 1 0.554606 0.0834456 0
967 1 0.568929 0.064589 0
938 1 0.584606 0.0465268 0
969 1 0.589898 0.0703572 0
971 1 0.758085 0.0470466 0
970 1 0.754047 0.0720406 0
972 1 0.769192 0.0896047 0
973 1 0.774195 0.0642267 0
975 1 0.794748 0.057658 0
1003 1 0.790171 0.0818438 0
974 1 0.811111 0.0754928 0
946 1 0.815633 0.0517693 0
976 1 0.831979 0.0679881 0
977 1 0.852903 0.0615079 0
979 1 0.874699 0.0548064 0
978 1 0.869423 0.0794541 0
1007 1 0.848221 0.0856347 0
980 1 0.889809 0.0720754 0
950 1 0.894395 0.0485699 0
981 1 0.911438 0.0653887 0
1011 1 0.905488 0.0894984 0
982 1 0.926014 0.0831502 0
983 1 0.931345 0.0590798 0
984 1 0.946199 0.0765341 0
954 1 0.952278 0.0523039 0
985 1 0.96798 0.0697866 0
987 1 0.98871 0.0627629 0
986 1 0.982952 0.087467 0
964 1 0.517389 0.0942362 0
993 1 0.50397 0.113887 0
994 1 0.524659 0.120444 0
968 1 0.574959 0.0892002 0
995 1 0.53853 0.102188 0
996 1 0.546282 0.126161 0
997 1 0.562031 0.109161 0
1027 1 0.566577 0.133163 0
998 1 0.582624 0.114159 0
1000 1 0.60297 0.122819 0
1030 1 0.62361 0.128911 0
999 1 0.639486 0.112097 0
1001 1 0.661334 0.118533 0
1002 1 0.683317 0.125262 0
1033 1 0.785751 0.106094 0
1065 1 0.802017 0.124249 0
1004 1 0.806106 0.0998408 0
1005 1 0.827045 0.0926499 0
1035 1 0.822872 0.117114 0
1006 1 0.843434 0.110543 0
1036 1 0.837275 0.135091 0
1037 1 0.858825 0.127383 0
1008 1 0.86376 0.103023 0
1039 1 0.879224 0.120901 0
1009 1 0.884321 0.0968697 0