ITEM: TIMESTEP
498000
ITEM: NUMBER OF ATOMS
1800
ITEM: BOX BOUNDS pp pp pp
-1.8872528220524593e+01 1.8387252822052650e+02
1.1826529217466231e+00 1.6381734707825530e+02
0.0000000000000000e+00 5.5000000000000000e+00
ITEM: ATOMS id type xs ys zs
928 1 0.0208785 0.0136317 0
957 1 0.0161939 0.0373198 0
926 1 0.00157133 0.0205593 0
959 1 0.0356533 0.0298888 0
929 1 0.0399658 0.00581595 0
930 1 0.0551121 0.0222299 0
31 1 0.0684093 0.0417478 0
2 1 0.0736975 0.0158811 0
33 1 0.0874837 0.033722 0
3 1 0.0927221 0.00961399 0
4 1 0.107091 0.0272227 0
6 1 0.126105 0.0197653 0
37 1 0.140766 0.0373612 0
35 1 0.121116 0.044412 0
5 1 0.111945 0.00172978 0
8 1 0.145317 0.011773 0
39 1 0.159397 0.0292573 0
880 1 0.163804 0.0055819 0
9 1 0.178899 0.0228067 0
40 1 0.193289 0.0399447 0
10 1 0.198148 0.0164574 0
41 1 0.212747 0.0339126 0
12 1 0.217401 0.00910737 0
14 1 0.232746 0.0271758 0
45 1 0.24863 0.0430839 0
13 1 0.235816 0.00244185 0
15 1 0.250618 0.0177668 0
46 1 0.269994 0.0177016 0
77 1 0.274296 0.0430566 0
47 1 0.288629 0.024212 0
19 1 0.301171 0.00451478 0
49 1 0.307697 0.030188 0
20 1 0.320173 0.0123773 0
51 1 0.327349 0.0369284 0
21 1 0.340172 0.0191114 0
22 1 0.346684 0.044289 0
23 1 0.359662 0.0252527 0
894 1 0.374252 0.0077151 0
24 1 0.379935 0.0317758 0
25 1 0.393416 0.0135322 0
26 1 0.399091 0.0379554 0
27 1 0.413481 0.0209895 0
28 1 0.419143 0.0445011 0
898 1 0.426574 0.00282823 0
29 1 0.432548 0.026734 0
900 1 0.446286 0.00772653 0
30 1 0.451895 0.0322733 0
902 1 0.485687 0.0199868 0
901 1 0.46578 0.0140389 0
931 1 0.471994 0.0391538 0
905 1 0.498423 0.00207461 0
988 1 0.025596 0.0784586 0
958 1 0.0302664 0.0546693 0
987 1 0.0113162 0.0617339 0
986 1 0.00592165 0.0859584 0
960 1 0.0493649 0.0483383 0
989 1 0.044644 0.0720581 0
61 1 0.0640999 0.0650533 0
990 1 0.0593814 0.08941 0
62 1 0.0788598 0.0824754 0
32 1 0.0828971 0.0581368 0
63 1 0.0981706 0.0765838 0
34 1 0.101938 0.0514884 0
65 1 0.117126 0.0688148 0
66 1 0.131661 0.0860673 0
36 1 0.135821 0.06154 0
69 1 0.174067 0.0464006 0
67 1 0.150624 0.0782252 0
38 1 0.155456 0.0546364 0
68 1 0.169374 0.070789 0
71 1 0.188564 0.0636475 0
72 1 0.203333 0.0806556 0
42 1 0.208255 0.0570298 0
70 1 0.184104 0.0881995 0
43 1 0.228194 0.0502781 0
73 1 0.222342 0.074125 0
44 1 0.242337 0.066999 0
74 1 0.265894 0.0861961 0
75 1 0.261477 0.0622481 0
76 1 0.280442 0.0680486 0
48 1 0.293295 0.0487773 0
79 1 0.299235 0.0729039 0
50 1 0.313281 0.0539439 0
81 1 0.319141 0.0782182 0
52 1 0.333219 0.0614192 0
82 1 0.337602 0.0863564 0
83 1 0.352164 0.0681812 0
53 1 0.366145 0.0497439 0
54 1 0.3714 0.0742445 0
55 1 0.385176 0.0558124 0
56 1 0.390631 0.0810316 0
57 1 0.404515 0.061928 0
87 1 0.410281 0.0861971 0
58 1 0.424687 0.0692976 0
59 1 0.43836 0.0507413 0
89 1 0.44446 0.0757517 0
60 1 0.457163 0.0568441 0
961 1 0.462994 0.082449 0
933 1 0.490904 0.0446145 0
963 1 0.495503 0.0703352 0
932 1 0.476581 0.0629969 0
962 1 0.482185 0.0897465 0
1047 1 0.0167543 0.126915 0
1018 1 0.0204972 0.102925 0
1017 1 0.00152024 0.110691 0
1049 1 0.0358088 0.120318 0
1019 1 0.0407782 0.0964411 0
1020 1 0.0550165 0.113827 0
121 1 0.0691466 0.130955 0
91 1 0.0739743 0.106132 0
92 1 0.0881522 0.123943 0
93 1 0.0933212 0.100029 0
94 1 0.106493 0.117946 0
64 1 0.113164 0.0930262 0
95 1 0.126045 0.110769 0
96 1 0.141102 0.127098 0
125 1 0.121056 0.134323 0
97 1 0.14515 0.103268 0
98 1 0.159816 0.11983 0
99 1 0.163852 0.0955715 0
100 1 0.180161 0.112149 0
130 1 0.194389 0.129478 0
101 1 0.199345 0.104714 0
102 1 0.213483 0.122166 0
105 1 0.237534 0.0901875 0
103 1 0.218481 0.0979836 0
104 1 0.232682 0.115382 0
78 1 0.28585 0.0929458 0
106 1 0.251976 0.105677 0
137 1 0.257541 0.129155 0
107 1 0.272256 0.111077 0
108 1 0.276959 0.134636 0
109 1 0.291027 0.117266 0
80 1 0.305026 0.0965206 0
110 1 0.310313 0.122198 0
111 1 0.323921 0.104742 0
141 1 0.3298 0.128489 0
113 1 0.343702 0.110569 0
143 1 0.348514 0.13549 0
84 1 0.356785 0.0927643 0
112 1 0.362962 0.117124 0
85 1 0.376388 0.0979553 0
115 1 0.382183 0.122768 0
86 1 0.395907 0.104708 0
116 1 0.401124 0.130293 0
117 1 0.415095 0.111061 0
88 1 0.430128 0.0926789 0
119 1 0.434031 0.118273 0
90 1 0.449012 0.100637 0
120 1 0.453274 0.124887 0
991 1 0.467641 0.107454 0
992 1 0.472971 0.132427 0
993 1 0.487338 0.113993 0
1075 1 0.00766255 0.17696 0
1048 1 0.0304395 0.144756 0
1077 1 0.0259483 0.169285 0
1046 1 0.0121798 0.151707 0
1079 1 0.0448396 0.162836 0
1050 1 0.0496042 0.137865 0
151 1 0.0632643 0.156474 0
152 1 0.0787469 0.173993 0
122 1 0.0830642 0.148546 0
153 1 0.0976118 0.166376 0
123 1 0.102685 0.142208 0
124 1 0.116991 0.158449 0
126 1 0.135623 0.151202 0
155 1 0.130677 0.175009 0
129 1 0.17449 0.137286 0
157 1 0.149662 0.168408 0
127 1 0.155424 0.143894 0
128 1 0.170654 0.162889 0
159 1 0.189797 0.153172 0
132 1 0.196158 0.175834 0
131 1 0.20975 0.157348 0
133 1 0.225211 0.141133 0
134 1 0.229342 0.164732 0
135 1 0.243891 0.147622 0
165 1 0.248086 0.170901 0
163 1 0.2155 0.181491 0
136 1 0.262955 0.152926 0
167 1 0.267746 0.177273 0
138 1 0.282218 0.159745 0
139 1 0.296356 0.140736 0
169 1 0.301279 0.16456 0
140 1 0.315851 0.14657 0
171 1 0.320392 0.170744 0
142 1 0.334696 0.152999 0
172 1 0.340434 0.177678 0
173 1 0.354228 0.159553 0
114 1 0.368502 0.142479 0
144 1 0.373328 0.166573 0
145 1 0.386949 0.14887 0
146 1 0.393185 0.173151 0
118 1 0.420804 0.136882 0
147 1 0.40662 0.15447 0
177 1 0.412766 0.17958 0
148 1 0.42582 0.161404 0
149 1 0.440003 0.143104 0
150 1 0.445229 0.167991 0
1021 1 0.459117 0.149502 0
1051 1 0.464584 0.173944 0
1023 1 0.492811 0.137921 0
1022 1 0.478908 0.15642 0
1024 1 0.498361 0.162038 0
1076 1 0.0219215 0.19534 0
1106 1 0.018392 0.219158 0
1105 1 0.00231561 0.2027 0
1080 1 0.0598998 0.180905 0
1107 1 0.0376432 0.210757 0
1078 1 0.0406256 0.187163 0
1109 1 0.0593348 0.215071 0
181 1 0.0745417 0.198374 0
182 1 0.0801586 0.22186 0
183 1 0.0936461 0.202929 0
154 1 0.110799 0.186251 0
185 1 0.113073 0.214653 0
156 1 0.127762 0.199283 0
186 1 0.133824 0.222014 0
158 1 0.147419 0.203174 0
160 1 0.162215 0.186591 0
189 1 0.167287 0.20974 0
187 1 0.153097 0.227326 0
161 1 0.181795 0.192282 0
191 1 0.186105 0.216231 0
162 1 0.200855 0.199142 0
192 1 0.205651 0.223415 0
193 1 0.219984 0.206216 0
164 1 0.234319 0.189345 0
195 1 0.239146 0.213372 0
166 1 0.253794 0.195947 0
196 1 0.25913 0.22008 0
197 1 0.272989 0.202773 0
198 1 0.278522 0.225899 0
168 1 0.28675 0.184371 0
199 1 0.292778 0.20771 0
170 1 0.306288 0.18849 0
200 1 0.312126 0.212856 0
201 1 0.325759 0.194956 0
202 1 0.330988 0.219492 0
203 1 0.344779 0.202127 0
233 1 0.350266 0.226155 0
174 1 0.359333 0.184255 0
204 1 0.364009 0.208448 0
175 1 0.378735 0.19082 0
205 1 0.383477 0.215198 0
176 1 0.398364 0.197883 0
207 1 0.40343 0.221644 0
178 1 0.417666 0.203818 0
179 1 0.432048 0.185757 0
209 1 0.436252 0.211666 0
180 1 0.450433 0.19406 0
1081 1 0.456354 0.217476 0
1053 1 0.483745 0.179965 0
1052 1 0.470046 0.199555 0
1082 1 0.475213 0.223542 0
1083 1 0.48915 0.205756 0
1108 1 0.0323947 0.24968 0
1136 1 0.0130896 0.242912 0
1137 1 0.0185422 0.26726 0
1110 1 0.0465349 0.232862 0
1140 1 0.0516223 0.257173 0
211 1 0.0658093 0.240183 0
212 1 0.0709354 0.265006 0
213 1 0.0851683 0.247829 0
184 1 0.098646 0.230351 0
214 1 0.104244 0.256264 0
243 1 0.0896595 0.272993 0
215 1 0.11873 0.238203 0
216 1 0.123736 0.263402 0
217 1 0.138311 0.245455 0
218 1 0.142863 0.269777 0
188 1 0.158036 0.251266 0
190 1 0.172409 0.234087 0
220 1 0.177592 0.257814 0
221 1 0.191372 0.239998 0
222 1 0.196816 0.265048 0
223 1 0.211317 0.247235 0
194 1 0.225084 0.230152 0
224 1 0.230504 0.253712 0
225 1 0.244614 0.23678 0
253 1 0.215857 0.27228 0
226 1 0.249432 0.260049 0
227 1 0.264454 0.242904 0
257 1 0.268663 0.267653 0
228 1 0.282873 0.250022 0
229 1 0.297977 0.231547 0
230 1 0.303097 0.256943 0
231 1 0.316419 0.238216 0
261 1 0.322398 0.262653 0
232 1 0.335936 0.245125 0
263 1 0.341915 0.269005 0
234 1 0.356213 0.251589 0
235 1 0.369685 0.2331 0
265 1 0.37502 0.259191 0
206 1 0.388138 0.2401 0
208 1 0.421881 0.229826 0
236 1 0.393505 0.263969 0
237 1 0.406981 0.246487 0
238 1 0.412542 0.271988 0
239 1 0.426856 0.25377 0
210 1 0.441229 0.235887 0
240 1 0.446732 0.260511 0
1111 1 0.460136 0.241214 0
1112 1 0.466353 0.266834 0
1113 1 0.480317 0.248176 0
1084 1 0.494862 0.229603 0
1143 1 0.499852 0.25571 0
1138 1 0.024114 0.292875 0
1197 1 0.00860233 0.309857 0
1167 1 0.00514761 0.285486 0
1168 1 0.0286573 0.317853 0
1139 1 0.0372433 0.275709 0
1169 1 0.0429151 0.300229 0
241 1 0.0573955 0.282801 0
271 1 0.0620804 0.308779 0
242 1 0.0755603 0.290207 0
244 1 0.0950462 0.29854 0
273 1 0.0809355 0.31487 0
245 1 0.108952 0.279828 0
246 1 0.114952 0.304392 0
247 1 0.129102 0.287437 0
248 1 0.134505 0.310935 0
249 1 0.148691 0.293583 0
219 1 0.162125 0.275756 0
250 1 0.16756 0.299203 0
279 1 0.153608 0.317377 0
251 1 0.182226 0.282825 0
281 1 0.187133 0.306735 0
252 1 0.201538 0.290359 0
283 1 0.20601 0.313614 0
254 1 0.220412 0.296747 0
255 1 0.235749 0.278242 0
285 1 0.240696 0.301933 0
256 1 0.255181 0.285329 0
287 1 0.259692 0.310516 0
258 1 0.274328 0.293084 0
288 1 0.279536 0.317368 0
259 1 0.288329 0.274554 0
289 1 0.293341 0.29829 0
260 1 0.308297 0.280021 0
291 1 0.313074 0.304333 0
262 1 0.327487 0.287346 0
292 1 0.332873 0.311875 0
293 1 0.346915 0.293616 0
294 1 0.351992 0.318279 0
264 1 0.36067 0.276098 0
295 1 0.365765 0.300933 0
266 1 0.379635 0.283553 0
297 1 0.385149 0.306869 0
267 1 0.398687 0.289175 0
298 1 0.40441 0.313647 0
268 1 0.41833 0.29637 0
269 1 0.43231 0.27798 0
270 1 0.437129 0.303512 0
1141 1 0.451465 0.284443 0
300 1 0.457219 0.308759 0
1142 1 0.485818 0.27297 0
1171 1 0.469999 0.290791 0
1172 1 0.475998 0.315052 0
1173 1 0.49011 0.297682 0
1199 1 0.0331804 0.342793 0
1198 1 0.0133949 0.335591 0
1228 1 0.0188646 0.360334 0
1170 1 0.0476656 0.326386 0
1229 1 0.0520683 0.350722 0
1200 1 0.0668009 0.333217 0
301 1 0.0720987 0.357518 0
272 1 0.0856517 0.33972 0
275 1 0.100228 0.322188 0
274 1 0.105111 0.345736 0
276 1 0.119659 0.328443 0
305 1 0.124402 0.352726 0
277 1 0.138321 0.334968 0
307 1 0.143921 0.359416 0
278 1 0.15893 0.341971 0
280 1 0.173065 0.322928 0
311 1 0.177859 0.348326 0
282 1 0.191905 0.330496 0
312 1 0.197389 0.354696 0
313 1 0.212331 0.337603 0
284 1 0.226252 0.320864 0
315 1 0.230941 0.345344 0
286 1 0.245836 0.328177 0
314 1 0.216979 0.362319 0
316 1 0.24977 0.352144 0
317 1 0.265441 0.333724 0
318 1 0.269402 0.358026 0
319 1 0.28467 0.341686 0
290 1 0.299329 0.322809 0
320 1 0.304161 0.34662 0
321 1 0.319161 0.329261 0
322 1 0.323141 0.354154 0
323 1 0.337646 0.335955 0
324 1 0.342797 0.360453 0
325 1 0.356489 0.34233 0
296 1 0.370859 0.324424 0
326 1 0.376023 0.348807 0
327 1 0.389989 0.331119 0
299 1 0.423115 0.320639 0
328 1 0.395142 0.356575 0
329 1 0.408589 0.338239 0
358 1 0.414197 0.362938 0
359 1 0.428033 0.344823 0
330 1 0.442565 0.327374 0
360 1 0.447491 0.351146 0
1201 1 0.461431 0.333312 0
1202 1 0.48075 0.340692 0
1231 1 0.466799 0.35821 0
1203 1 0.494909 0.321658 0
1287 1 0.010049 0.402534 0
1258 1 0.0242168 0.384866 0
1257 1 0.00453702 0.377893 0
1259 1 0.0373426 0.367307 0
1260 1 0.0427046 0.392275 0
1230 1 0.0563296 0.374852 0
331 1 0.0623506 0.399813 0
303 1 0.091311 0.364529 0
302 1 0.0769083 0.381993 0
333 1 0.0962856 0.388349 0
332 1 0.0821882 0.405845 0
304 1 0.110563 0.370257 0
335 1 0.115652 0.395718 0
306 1 0.129908 0.377628 0
337 1 0.134843 0.401648 0
308 1 0.148892 0.384323 0
309 1 0.163208 0.366837 0
339 1 0.168736 0.39038 0
310 1 0.182586 0.372117 0
341 1 0.188043 0.396349 0
343 1 0.20256 0.379319 0
342 1 0.206956 0.404255 0
344 1 0.221426 0.38743 0
345 1 0.235134 0.369212 0
346 1 0.240817 0.393735 0
347 1 0.255254 0.376648 0
377 1 0.260034 0.40072 0
348 1 0.274437 0.382522 0
378 1 0.279989 0.407039 0
349 1 0.289203 0.365576 0
350 1 0.294485 0.390008 0
351 1 0.308281 0.371841 0
381 1 0.314125 0.396246 0
353 1 0.327524 0.378031 0
352 1 0.332476 0.402158 0
354 1 0.347139 0.385151 0
355 1 0.361873 0.367577 0
356 1 0.365727 0.391857 0
357 1 0.380482 0.373779 0
386 1 0.385018 0.397645 0
387 1 0.400073 0.380175 0
388 1 0.405003 0.404647 0
389 1 0.419006 0.386591 0
1232 1 0.433567 0.369266 0
1261 1 0.438786 0.393291 0
1262 1 0.453282 0.375622 0
1293 1 0.458019 0.399757 0
1233 1 0.486172 0.364416 0
1263 1 0.472416 0.3833 0
1294 1 0.477352 0.406882 0
1264 1 0.491409 0.388468 0
1317 1 0.00135109 0.443636 0
1289 1 0.0287676 0.410343 0
1319 1 0.034618 0.433609 0
1288 1 0.0151816 0.42723 0
1318 1 0.0209352 0.451124 0
1290 1 0.0480525 0.416233 0
391 1 0.0532987 0.441387 0
361 1 0.0679163 0.42356 0
362 1 0.0727972 0.448245 0
363 1 0.0875163 0.430665 0
334 1 0.101416 0.412724 0
365 1 0.106738 0.438026 0
336 1 0.120653 0.419474 0
366 1 0.125456 0.443198 0
367 1 0.139225 0.426145 0
338 1 0.15444 0.408347 0
368 1 0.144228 0.450533 0
369 1 0.159012 0.432499 0
340 1 0.174015 0.414875 0
370 1 0.177896 0.439609 0
371 1 0.192936 0.422244 0
401 1 0.197245 0.446751 0
372 1 0.212826 0.429612 0
373 1 0.226437 0.411883 0
374 1 0.231672 0.436933 0
375 1 0.245985 0.418903 0
403 1 0.217089 0.454098 0
405 1 0.25109 0.442951 0
376 1 0.265256 0.424659 0
407 1 0.271288 0.449735 0
409 1 0.285263 0.431885 0
379 1 0.298817 0.413819 0
380 1 0.304739 0.438201 0
382 1 0.318692 0.420488 0
385 1 0.351654 0.41088 0
413 1 0.323267 0.4453 0
383 1 0.337137 0.427063 0
412 1 0.342553 0.451087 0
414 1 0.355973 0.43406 0
384 1 0.370976 0.415993 0
415 1 0.376025 0.439898 0
417 1 0.389905 0.421902 0
419 1 0.424234 0.411812 0
416 1 0.395364 0.446352 0
418 1 0.410112 0.429389 0
390 1 0.429556 0.436261 0
1291 1 0.443873 0.417793 0
1321 1 0.448131 0.442034 0
1292 1 0.463234 0.424364 0
1323 1 0.48168 0.431805 0
1322 1 0.466944 0.449169 0
1295 1 0.496342 0.413207 0
1348 1 0.00670445 0.468586 0
1349 1 0.0255177 0.476664 0
1379 1 0.00948132 0.493033 0
1320 1 0.039706 0.458777 0
421 1 0.0441833 0.483704 0
392 1 0.0590604 0.466482 0
422 1 0.0637695 0.490892 0
393 1 0.0787268 0.471975 0
364 1 0.0922837 0.454874 0
394 1 0.0983045 0.479314 0
423 1 0.0831736 0.496653 0
395 1 0.111831 0.461839 0
396 1 0.117009 0.486482 0
397 1 0.130677 0.467968 0
427 1 0.136295 0.492578 0
398 1 0.149967 0.474874 0
399 1 0.163822 0.456231 0
429 1 0.169378 0.481961 0
400 1 0.183827 0.464446 0
431 1 0.189242 0.48898 0
402 1 0.203288 0.470942 0
432 1 0.208411 0.495624 0
433 1 0.222752 0.477687 0
404 1 0.23677 0.460208 0
435 1 0.241544 0.484862 0
406 1 0.256153 0.466716 0
436 1 0.261384 0.490826 0
408 1 0.276167 0.473469 0
439 1 0.28019 0.497726 0
410 1 0.290573 0.455584 0
441 1 0.294815 0.480825 0
411 1 0.309082 0.463017 0
440 1 0.314387 0.487825 0
442 1 0.328523 0.469386 0
471 1 0.334104 0.493159 0
473 1 0.348353 0.475414 0
443 1 0.362653 0.457753 0
444 1 0.367439 0.481888 0
445 1 0.381637 0.464657 0
475 1 0.386445 0.488066 0
447 1 0.414788 0.453443 0
446 1 0.400741 0.471364 0
477 1 0.406677 0.495229 0
448 1 0.420935 0.47811 0
450 1 0.453737 0.467302 0
449 1 0.440059 0.48463 0
420 1 0.434651 0.46016 0
1351 1 0.459893 0.491074 0
1354 1 0.492367 0.479812 0
1352 1 0.478586 0.49809 0
1324 1 0.486831 0.455733 0
1353 1 0.472716 0.473498 0
1380 1 0.0351653 0.526812 0
1350 1 0.0293553 0.501812 0
1409 1 0.0202458 0.54483 0
451 1 0.0489283 0.507906 0
452 1 0.0545595 0.532882 0
453 1 0.0685035 0.514665 0
454 1 0.0739666 0.539176 0
424 1 0.0878147 0.521796 0
425 1 0.102483 0.504378 0
455 1 0.107357 0.527655 0
426 1 0.122231 0.510811 0
456 1 0.126963 0.536021 0
457 1 0.140989 0.517734 0
458 1 0.146692 0.542415 0
459 1 0.160273 0.524935 0
430 1 0.174476 0.505786 0
428 1 0.155287 0.500101 0
460 1 0.180142 0.531059 0
461 1 0.193528 0.512909 0
462 1 0.199095 0.537299 0
463 1 0.212854 0.520173 0
434 1 0.227114 0.503261 0
464 1 0.232498 0.527414 0
465 1 0.246972 0.508791 0
493 1 0.21943 0.545409 0
466 1 0.251892 0.533718 0
437 1 0.266954 0.516606 0
497 1 0.271556 0.5412 0
467 1 0.286399 0.522893 0
438 1 0.300534 0.505497 0
468 1 0.305496 0.530871 0
469 1 0.320358 0.512588 0
499 1 0.325108 0.537007 0
470 1 0.339144 0.519042 0
501 1 0.344293 0.543174 0
472 1 0.353279 0.500472 0
503 1 0.358572 0.524886 0
474 1 0.372928 0.506743 0
505 1 0.377789 0.53126 0
476 1 0.392422 0.512872 0
506 1 0.397606 0.539042 0
507 1 0.412672 0.519618 0
478 1 0.42658 0.502573 0
509 1 0.417615 0.545938 0
480 1 0.432014 0.528319 0
479 1 0.446034 0.509299 0
510 1 0.450703 0.534133 0
1381 1 0.464842 0.51557 0
1382 1 0.484177 0.521474 0
1411 1 0.47028 0.540134 0
1383 1 0.497743 0.504451 0
1408 1 0.0252012 0.57008 0
481 1 0.0396263 0.550535 0
1410 1 0.0443797 0.574992 0
483 1 0.058525 0.55755 0
482 1 0.0640251 0.582222 0
485 1 0.0923612 0.54578 0
513 1 0.0784025 0.564061 0
484 1 0.0976431 0.570403 0
514 1 0.0830995 0.588164 0
486 1 0.111938 0.552684 0
515 1 0.116415 0.577857 0
487 1 0.131601 0.560601 0
517 1 0.137042 0.585481 0
488 1 0.15083 0.567194 0
489 1 0.165565 0.550285 0
490 1 0.171496 0.573818 0
519 1 0.15648 0.591746 0
491 1 0.18483 0.55492 0
521 1 0.190453 0.579918 0
492 1 0.204352 0.562295 0
523 1 0.209444 0.587177 0
494 1 0.224388 0.569942 0
495 1 0.238479 0.551527 0
525 1 0.244022 0.576995 0
496 1 0.257106 0.559641 0
526 1 0.263018 0.584565 0
527 1 0.276832 0.565985 0
528 1 0.282173 0.590594 0
498 1 0.290525 0.547861 0
529 1 0.296154 0.571447 0
500 1 0.310207 0.554355 0
530 1 0.315371 0.578099 0
531 1 0.329399 0.561449 0
532 1 0.335028 0.585532 0
533 1 0.349346 0.568129 0
502 1 0.362993 0.549738 0
534 1 0.36897 0.573842 0
504 1 0.383331 0.555417 0
535 1 0.388136 0.580958 0
508 1 0.402982 0.56295 0
537 1 0.407794 0.58861 0
539 1 0.421963 0.570149 0
540 1 0.436352 0.55192 0
569 1 0.440672 0.57599 0
1441 1 0.454773 0.558585 0
1442 1 0.460265 0.582407 0
1413 1 0.489419 0.545664 0
1443 1 0.481101 0.588885 0
1412 1 0.475305 0.564221 0
1414 1 0.49531 0.570524 0
1439 1 0.0313264 0.593621 0
1440 1 0.0361856 0.617454 0
1438 1 0.0163879 0.609454 0
1469 1 0.00992838 0.63335 0
511 1 0.0504818 0.600135 0
541 1 0.0553334 0.624378 0
512 1 0.0700721 0.606438 0
542 1 0.0749519 0.631565 0
543 1 0.0888595 0.613977 0
545 1 0.102673 0.596124 0
546 1 0.109355 0.620042 0
516 1 0.12284 0.603098 0
547 1 0.128677 0.626995 0
518 1 0.14336 0.610343 0
548 1 0.161876 0.616604 0
520 1 0.175448 0.598606 0
577 1 0.14744 0.635359 0
549 1 0.181566 0.622416 0
522 1 0.195371 0.604846 0
551 1 0.200229 0.629966 0
553 1 0.215016 0.6114 0
524 1 0.229258 0.594071 0
554 1 0.23409 0.619441 0
555 1 0.248158 0.601451 0
552 1 0.220026 0.637782 0
556 1 0.253954 0.626253 0
557 1 0.267777 0.608579 0
587 1 0.273216 0.632335 0
558 1 0.288199 0.614256 0
559 1 0.301464 0.595973 0
560 1 0.307108 0.621624 0
561 1 0.321109 0.603771 0
563 1 0.354597 0.591677 0
591 1 0.326518 0.627562 0
562 1 0.340665 0.609094 0
564 1 0.345358 0.635085 0
565 1 0.359332 0.616734 0
536 1 0.373947 0.599336 0
566 1 0.379041 0.623786 0
567 1 0.392771 0.605442 0
597 1 0.398313 0.62972 0
568 1 0.412894 0.613248 0
538 1 0.426526 0.594723 0
599 1 0.418147 0.637894 0
600 1 0.43222 0.619335 0
570 1 0.445942 0.600294 0
1501 1 0.451825 0.625029 0
1471 1 0.465642 0.606173 0
1472 1 0.471509 0.631235 0
1473 1 0.485137 0.613472 0
1444 1 0.500096 0.594655 0
1528 1 -0.0014918 0.680399 0
1529 1 0.0183017 0.674335 0
1499 1 0.0237316 0.651263 0
1498 1 0.00436008 0.656382 0
1500 1 0.0382454 0.667117 0
1470 1 0.0411457 0.641746 0
571 1 0.0598447 0.649464 0
572 1 0.0667623 0.67274 0
544 1 0.094904 0.638077 0
573 1 0.0804012 0.655492 0
574 1 0.0993142 0.662567 0
603 1 0.0857915 0.679322 0
575 1 0.113926 0.645306 0
605 1 0.119328 0.670089 0
576 1 0.132677 0.651673 0
607 1 0.138133 0.677172 0
578 1 0.152272 0.659283 0
579 1 0.167394 0.64109 0
609 1 0.171815 0.665466 0
550 1 0.186401 0.647953 0
580 1 0.190782 0.67245 0
581 1 0.205996 0.655797 0
611 1 0.211379 0.679211 0
582 1 0.225233 0.660891 0
583 1 0.239344 0.643982 0
584 1 0.244387 0.667875 0
585 1 0.258505 0.650916 0
615 1 0.263938 0.673732 0
586 1 0.278269 0.656148 0
589 1 0.292182 0.638452 0
588 1 0.297699 0.663688 0
590 1 0.311001 0.645578 0
621 1 0.316816 0.669226 0
593 1 0.331121 0.651649 0
592 1 0.335713 0.677851 0
594 1 0.34985 0.659388 0
595 1 0.364423 0.641164 0
625 1 0.369117 0.666309 0
596 1 0.384059 0.647577 0
627 1 0.389181 0.673582 0
598 1 0.40335 0.655242 0
657 1 0.408386 0.679527 0
628 1 0.422675 0.661521 0
629 1 0.437183 0.643269 0
630 1 0.442862 0.66674 0
1502 1 0.457585 0.649578 0
1533 1 0.462807 0.673905 0
1474 1 0.491397 0.63733 0
1505 1 0.496116 0.662404 0
1503 1 0.476887 0.65537 0
1504 1 0.481394 0.679931 0
1558 1 0.00783429 0.723219 0
1559 1 0.0126466 0.699332 0
1530 1 0.0318323 0.692588 0
1560 1 0.0268788 0.716454 0
631 1 0.0468456 0.709399 0
601 1 0.0508385 0.686148 0
602 1 0.0694242 0.698608 0
632 1 0.0628313 0.726522 0
633 1 0.089071 0.704325 0
604 1 0.104229 0.687391 0
635 1 0.108348 0.711719 0
606 1 0.123664 0.694231 0
636 1 0.127044 0.719042 0
637 1 0.142362 0.7009 0
608 1 0.157576 0.683324 0
638 1 0.16132 0.708507 0
639 1 0.176801 0.689421 0
667 1 0.146825 0.725708 0
641 1 0.181789 0.713906 0
610 1 0.196423 0.696634 0
642 1 0.201075 0.720892 0
612 1 0.21568 0.703526 0
613 1 0.230228 0.686078 0
643 1 0.235488 0.710198 0
617 1 0.283612 0.680905 0
614 1 0.249553 0.692237 0
645 1 0.255648 0.716794 0
616 1 0.269404 0.699522 0
647 1 0.27495 0.723189 0
618 1 0.288901 0.705655 0
619 1 0.30307 0.68861 0
620 1 0.308486 0.71262 0
622 1 0.32206 0.695572 0
651 1 0.327186 0.719599 0
653 1 0.340774 0.702165 0
654 1 0.346986 0.726041 0
623 1 0.355357 0.684352 0
624 1 0.360534 0.70844 0
626 1 0.374563 0.690182 0
655 1 0.380189 0.714937 0
656 1 0.393862 0.697878 0
686 1 0.400137 0.721894 0
658 1 0.413897 0.703194 0
687 1 0.419329 0.727236 0
659 1 0.428096 0.684982 0
660 1 0.43406 0.709987 0
1531 1 0.447442 0.691129 0
1561 1 0.452768 0.716028 0
1532 1 0.46676 0.69794 0
1563 1 0.471461 0.723477 0
1534 1 0.485833 0.705163 0
1619 1 0.0179301 0.764402 0
1589 1 0.0228512 0.740256 0
1588 1 0.00344982 0.747101 0
1590 1 0.0371682 0.757636 0
661 1 0.0426794 0.733265 0
663 1 0.0576504 0.751025 0
662 1 0.072278 0.767346 0
664 1 0.0776425 0.743446 0
695 1 0.0975715 0.75431 0
634 1 0.0934276 0.729032 0
665 1 0.11199 0.736093 0
697 1 0.118001 0.761339 0
666 1 0.13179 0.742786 0
668 1 0.136564 0.766654 0
669 1 0.152259 0.750895 0
640 1 0.165954 0.732123 0
670 1 0.172344 0.755172 0
671 1 0.1867 0.7391 0
672 1 0.193386 0.76307 0
673 1 0.207075 0.74556 0
703 1 0.212579 0.771137 0
644 1 0.221047 0.727922 0
674 1 0.227451 0.752485 0
675 1 0.241419 0.734636 0
705 1 0.246685 0.759053 0
646 1 0.260427 0.74142 0
677 1 0.265411 0.766376 0
648 1 0.27863 0.748141 0
678 1 0.285124 0.773069 0
649 1 0.293512 0.731067 0
679 1 0.298142 0.755109 0
650 1 0.312939 0.737996 0
681 1 0.317588 0.762185 0
652 1 0.332712 0.745034 0
682 1 0.337725 0.768614 0
683 1 0.35265 0.750645 0
685 1 0.366325 0.733164 0
684 1 0.371567 0.757733 0
715 1 0.385858 0.739599 0
714 1 0.391189 0.763643 0
717 1 0.40578 0.745548 0
716 1 0.410593 0.770291 0
688 1 0.42475 0.751364 0
689 1 0.438957 0.734336 0
719 1 0.444714 0.760179 0
690 1 0.457708 0.740588 0
1591 1 0.463418 0.765854 0
1565 1 0.491642 0.728934 0
1562 1 0.477056 0.747848 0
1593 1 0.482814 0.772226 0
1564 1 0.496841 0.754078 0
1620 1 0.0324115 0.781066 0
1649 1 0.027439 0.806065 0
1618 1 0.013058 0.789135 0
1648 1 0.0081371 0.813465 0
691 1 0.052021 0.775092 0
721 1 0.0464902 0.799008 0
693 1 0.0662823 0.792883 0
723 1 0.0794102 0.810555 0
694 1 0.0847961 0.785995 0
725 1 0.0987399 0.804684 0
696 1 0.10368 0.779668 0
727 1 0.118253 0.796385 0
728 1 0.132573 0.814813 0
698 1 0.137649 0.790193 0
699 1 0.1571 0.776379 0
700 1 0.151373 0.807471 0
731 1 0.169363 0.799573 0
701 1 0.178006 0.778213 0
702 1 0.197951 0.789606 0
763 1 0.204334 0.813212 0
732 1 0.184663 0.814475 0
733 1 0.217932 0.794613 0
704 1 0.233156 0.777295 0
706 1 0.237184 0.801618 0
676 1 0.252209 0.785038 0
737 1 0.256771 0.808619 0
707 1 0.271327 0.790823 0
738 1 0.27645 0.816256 0
708 1 0.291229 0.798103 0
709 1 0.304395 0.78022 0
710 1 0.309994 0.804687 0
680 1 0.323845 0.78579 0
741 1 0.329196 0.810254 0
711 1 0.343948 0.793552 0
742 1 0.348719 0.817705 0
713 1 0.357791 0.775146 0
712 1 0.363154 0.800607 0
743 1 0.377894 0.781733 0
745 1 0.382838 0.8066 0
746 1 0.396463 0.788615 0
775 1 0.401749 0.812748 0
747 1 0.415712 0.794079 0
718 1 0.429841 0.776646 0
749 1 0.435681 0.801696 0
720 1 0.449013 0.783895 0
1621 1 0.454915 0.807541 0
1623 1 0.487782 0.796587 0
1592 1 0.468319 0.789612 0
1622 1 0.473928 0.814459 0
1679 1 0.0218711 0.830471 0
1678 1 0.0174689 0.855858 0
1677 1 0.00240409 0.837163 0
692 1 0.0605008 0.816617 0
1709 1 0.0363419 0.848035 0
1650 1 0.0412606 0.824082 0
1680 1 0.0557796 0.841297 0
752 1 0.0696473 0.859886 0
751 1 0.0745819 0.834961 0
753 1 0.0888037 0.852705 0
722 1 0.0932336 0.828343 0
724 1 0.107623 0.84537 0
726 1 0.113614 0.821443 0
757 1 0.127755 0.838619 0
755 1 0.122173 0.862275 0
756 1 0.141742 0.856275 0
729 1 0.147174 0.83195 0
759 1 0.162183 0.848699 0
730 1 0.166169 0.824068 0
761 1 0.181989 0.840864 0
792 1 0.19608 0.856685 0
762 1 0.208822 0.838184 0
735 1 0.223061 0.818859 0
734 1 0.22895 0.843539 0
736 1 0.242467 0.825667 0
765 1 0.247847 0.850852 0
764 1 0.215819 0.861663 0
767 1 0.261662 0.833567 0
766 1 0.267298 0.857801 0
768 1 0.281989 0.840024 0
739 1 0.296748 0.822557 0
769 1 0.301221 0.847699 0
740 1 0.316181 0.828459 0
770 1 0.320607 0.853142 0
771 1 0.335331 0.835691 0
801 1 0.339208 0.860843 0
773 1 0.353488 0.843255 0
744 1 0.368186 0.825141 0
803 1 0.373227 0.849028 0
774 1 0.387355 0.831668 0
748 1 0.420552 0.818962 0
776 1 0.392675 0.855107 0
777 1 0.407072 0.837184 0
779 1 0.42641 0.843012 0
750 1 0.440932 0.825769 0
780 1 0.445467 0.849562 0
1651 1 0.45998 0.832617 0
1624 1 0.493498 0.821049 0
1652 1 0.465905 0.856952 0
1653 1 0.479958 0.838818 0
1683 1 0.486216 0.86322 0
1654 1 0.499306 0.843912 0
1710 1 0.0321114 0.873105 0
1739 1 0.0260962 0.897814 0
1708 1 0.0126445 0.880566 0
1737 1 0.0065649 0.904909 0
781 1 0.0509776 0.866097 0
811 1 0.0449349 0.890902 0
782 1 0.064189 0.88499 0
812 1 0.059526 0.90859 0
813 1 0.0790684 0.901886 0
783 1 0.0829738 0.876997 0
784 1 0.0981083 0.893752 0
754 1 0.102912 0.86978 0
785 1 0.118613 0.886908 0
786 1 0.132639 0.904491 0
787 1 0.13712 0.879935 0
760 1 0.17678 0.8662 0
788 1 0.151519 0.897218 0
758 1 0.156795 0.873264 0
789 1 0.171275 0.888869 0
791 1 0.192231 0.882162 0
823 1 0.204917 0.901721 0
790 1 0.185326 0.90632 0
793 1 0.219392 0.885811 0
795 1 0.234033 0.868864 0
794 1 0.238812 0.893705 0
796 1 0.253204 0.876211 0
825 1 0.257461 0.900981 0
827 1 0.27184 0.884076 0
826 1 0.277184 0.907875 0
797 1 0.286792 0.864807 0
798 1 0.291878 0.88948 0
799 1 0.307062 0.871434 0
829 1 0.311504 0.895678 0
800 1 0.325826 0.878197 0
831 1 0.330763 0.902967 0
802 1 0.345607 0.884948 0
833 1 0.350736 0.909788 0
772 1 0.358682 0.866761 0
804 1 0.365356 0.892011 0
805 1 0.378338 0.873731 0
806 1 0.385486 0.897274 0
778 1 0.41265 0.861144 0
807 1 0.398618 0.87868 0
837 1 0.404168 0.904954 0
808 1 0.418373 0.88619 0
809 1 0.432002 0.86724 0
810 1 0.437759 0.89247 0
1681 1 0.452309 0.874425 0
1711 1 0.457966 0.898747 0
1684 1 0.490861 0.887965 0
1682 1 0.472062 0.880429 0
1713 1 0.476562 0.905079 0
1767 1 0.000761781 0.928773 0
1738 1 0.0209558 0.921855 0
1768 1 0.0155921 0.946387 0
1769 1 0.03505 0.940184 0
1740 1 0.0402993 0.91542 0
841 1 0.054229 0.932486 0
842 1 0.068372 0.950003 0
843 1 0.0741078 0.925851 0
844 1 0.0878559 0.943596 0
814 1 0.093544 0.918678 0
845 1 0.107732 0.935129 0
815 1 0.113023 0.911419 0
816 1 0.127261 0.928333 0
847 1 0.140977 0.946361 0
846 1 0.122148 0.952882 0
817 1 0.14681 0.921687 0
818 1 0.1612 0.93847 0
819 1 0.166133 0.914191 0
820 1 0.180196 0.931805 0
851 1 0.193588 0.94953 0
821 1 0.199371 0.925466 0
822 1 0.212012 0.944029 0
824 1 0.223325 0.911637 0
853 1 0.23008 0.935011 0
855 1 0.243714 0.918111 0
854 1 0.248294 0.944176 0
856 1 0.26235 0.926781 0
885 1 0.270075 0.949285 0
857 1 0.28361 0.931151 0
828 1 0.297868 0.913477 0
859 1 0.302906 0.938102 0
830 1 0.317098 0.920292 0
860 1 0.32313 0.944171 0
832 1 0.337842 0.928275 0
861 1 0.343523 0.952869 0
863 1 0.35723 0.93472 0
834 1 0.37144 0.916023 0
865 1 0.376446 0.940599 0
835 1 0.389953 0.922535 0
839 1 0.423376 0.910998 0
836 1 0.396058 0.948092 0
838 1 0.410012 0.928968 0
867 1 0.415424 0.95389 0
869 1 0.429272 0.935221 0
840 1 0.443652 0.916286 0
1741 1 0.448189 0.940738 0
1712 1 0.462547 0.923317 0
1714 1 0.496608 0.912207 0
1743 1 0.481827 0.929271 0
1742 1 0.46847 0.948169 0
1744 1 0.488093 0.952992 0
1799 1 0.0300331 0.964197 0
1798 1 0.0253149 0.988469 0
1797 1 0.0104984 0.97105 0
927 1 0.00691062 0.995308 0
1770 1 0.0491626 0.957953 0
1800 1 0.0439841 0.981783 0
871 1 0.0636088 0.975203 0
1 1 0.0593662 0.999042 0
872 1 0.0785191 0.991966 0
873 1 0.0832473 0.967728 0
874 1 0.0973132 0.984612 0
875 1 0.102132 0.960111 0
876 1 0.116731 0.97779 0
7 1 0.131135 0.99452 0
877 1 0.135971 0.970698 0
849 1 0.174802 0.957429 0
878 1 0.15043 0.987831 0
848 1 0.155334 0.963151 0
879 1 0.16952 0.981764 0
850 1 0.188996 0.974957 0
11 1 0.202999 0.992259 0
852 1 0.207812 0.96765 0
881 1 0.183484 0.998713 0
883 1 0.22711 0.961864 0
882 1 0.22099 0.984814 0
884 1 0.240436 0.979533 0
886 1 0.257411 0.967887 0
16 1 0.26074 0.994571 0
17 1 0.275666 0.974615 0
18 1 0.281675 0.998944 0
887 1 0.2892 0.956482 0
888 1 0.295164 0.980181 0
858 1 0.309723 0.962889 0
889 1 0.315456 0.987432 0
891 1 0.329136 0.969457 0
890 1 0.335208 0.994189 0
862 1 0.348674 0.977156 0
892 1 0.354052 1.00156 0
864 1 0.362301 0.959094 0
893 1 0.368026 0.983734 0
895 1 0.381552 0.965998 0
896 1 0.387831 0.989798 0
866 1 0.401071 0.972393 0
897 1 0.406998 0.996163 0
868 1 0.420442 0.9787 0
870 1 0.434723 0.960344 0
1771 1 0.453754 0.965692 0
899 1 0.439552 0.984063 0
1772 1 0.459859 0.989717 0
1774 1 0.493492 0.97749 0
1773 1 0.474294 0.971597 0
903 1 0.47937 0.995314 0
904 1 0.504376 0.0272474 0
906 1 0.517582 0.00918701 0
935 1 0.524455 0.0337389 0
908 1 0.538375 0.0159597 0
937 1 0.544022 0.0401707 0
939 1 0.557984 0.0219859 0
941 1 0.571288 0.00399338 0
940 1 0.5767 0.0282752 0
942 1 0.805068 0.0235785 0
944 1 0.820163 0.040113 0
943 1 0.824288 0.0159209 0