ITEM: TIMESTEP
434000
ITEM: NUMBER OF ATOMS
1800
ITEM: BOX BOUNDS pp pp pp
-1.6295155543606203e+01 1.8129515554360813e+02
1.1826529217466231e+00 1.6381734707825530e+02
0.0000000000000000e+00 5.5000000000000000e+00
ITEM: ATOMS id type xs ys zs
929 1 0.0341634 0.00581073 0
959 1 0.029261 0.0295935 0
928 1 0.0143844 0.0133774 0
957 1 0.0097354 0.0382008 0
930 1 0.0489581 0.0237089 0
31 1 0.0632356 0.04079 0
2 1 0.0679627 0.0167006 0
33 1 0.0819682 0.0345192 0
3 1 0.0871252 0.00899738 0
4 1 0.101853 0.0269536 0
5 1 0.106426 0.00208731 0
6 1 0.120827 0.0204168 0
37 1 0.135645 0.0375586 0
8 1 0.142208 0.0141161 0
39 1 0.156105 0.0312919 0
880 1 0.16156 0.00659422 0
9 1 0.175541 0.0238953 0
40 1 0.190974 0.041087 0
10 1 0.195265 0.017215 0
41 1 0.210336 0.0354943 0
12 1 0.21499 0.0104096 0
14 1 0.229448 0.0287579 0
13 1 0.235722 0.00495477 0
45 1 0.244131 0.0462194 0
15 1 0.24961 0.0225308 0
46 1 0.269378 0.0173151 0
77 1 0.2729 0.0420109 0
47 1 0.288144 0.0245523 0
19 1 0.301633 0.00686454 0
49 1 0.307805 0.0310989 0
20 1 0.321403 0.0126958 0
51 1 0.327693 0.0376893 0
21 1 0.341262 0.018315 0
22 1 0.347645 0.0428287 0
892 1 0.355844 -0.000454725 0
23 1 0.361886 0.0233166 0
894 1 0.37662 0.00678963 0
24 1 0.382186 0.0311656 0
25 1 0.39584 0.0131284 0
26 1 0.400858 0.0373681 0
27 1 0.415876 0.0173553 0
28 1 0.420807 0.0431306 0
29 1 0.435534 0.0255295 0
900 1 0.449832 0.00780157 0
30 1 0.45555 0.0324618 0
898 1 0.429839 0.000495684 0
902 1 0.489532 0.0206942 0
901 1 0.469777 0.0133982 0
931 1 0.475362 0.0385884 0
933 1 0.495674 0.0444321 0
988 1 0.0196273 0.0801814 0
958 1 0.0243133 0.0541566 0
987 1 0.00419699 0.0620806 0
989 1 0.0385314 0.0730625 0
960 1 0.0430977 0.0481531 0
61 1 0.0578997 0.0652451 0
62 1 0.0730877 0.0831653 0
990 1 0.0532348 0.0901501 0
32 1 0.0780683 0.0591526 0
63 1 0.0919769 0.0767215 0
34 1 0.0972374 0.0519761 0
35 1 0.11626 0.0447379 0
65 1 0.11218 0.0695368 0
66 1 0.127031 0.0869657 0
36 1 0.131828 0.0613684 0
67 1 0.146281 0.0791026 0
38 1 0.150916 0.0548501 0
69 1 0.170993 0.0483925 0
68 1 0.166114 0.0727812 0
71 1 0.185512 0.0654989 0
72 1 0.199699 0.0831298 0
42 1 0.204621 0.0595864 0
43 1 0.224308 0.0524956 0
73 1 0.219375 0.0757298 0
44 1 0.239348 0.0705108 0
74 1 0.264351 0.0850778 0
75 1 0.259741 0.0615201 0
76 1 0.279675 0.0663981 0
48 1 0.293953 0.0486159 0
79 1 0.298462 0.073595 0
50 1 0.313295 0.0555792 0
81 1 0.318656 0.0803523 0
52 1 0.33338 0.0621329 0
82 1 0.338449 0.0864671 0
83 1 0.35299 0.068519 0
53 1 0.367552 0.0477039 0
54 1 0.37246 0.0735787 0
55 1 0.38762 0.0557685 0
56 1 0.392544 0.0807035 0
57 1 0.406857 0.0623204 0
87 1 0.41206 0.086714 0
58 1 0.426701 0.069277 0
59 1 0.440759 0.050148 0
89 1 0.446999 0.0738861 0
60 1 0.4617 0.0562271 0
932 1 0.481341 0.0624459 0
961 1 0.466759 0.080254 0
962 1 0.48658 0.0876115 0
1047 1 0.00943808 0.129183 0
1019 1 0.0336223 0.0971402 0
1049 1 0.0295519 0.121699 0
1018 1 0.0140227 0.1061 0
1020 1 0.0488822 0.115105 0
121 1 0.063089 0.132913 0
91 1 0.0678506 0.106708 0
92 1 0.0826878 0.125891 0
93 1 0.0882419 0.100735 0
94 1 0.102601 0.118515 0
64 1 0.107495 0.0938521 0
95 1 0.122785 0.111412 0
96 1 0.136809 0.128728 0
97 1 0.142034 0.104343 0
125 1 0.11674 0.136253 0
98 1 0.156118 0.121896 0
99 1 0.160666 0.0971438 0
100 1 0.175296 0.1135 0
70 1 0.180578 0.0895841 0
130 1 0.190053 0.131239 0
101 1 0.19473 0.107308 0
102 1 0.210255 0.12334 0
103 1 0.214015 0.0994293 0
105 1 0.232979 0.0938748 0
104 1 0.233999 0.121458 0
78 1 0.284736 0.0915042 0
106 1 0.251171 0.104535 0
137 1 0.255209 0.12903 0
107 1 0.270387 0.10879 0
108 1 0.275144 0.134216 0
109 1 0.28978 0.115958 0
80 1 0.304827 0.0983503 0
110 1 0.309605 0.123435 0
111 1 0.324326 0.103919 0
141 1 0.328815 0.129822 0
113 1 0.342881 0.110736 0
143 1 0.348924 0.135045 0
84 1 0.35808 0.0931936 0
112 1 0.36297 0.117778 0
85 1 0.377416 0.0984706 0
115 1 0.38294 0.123041 0
86 1 0.397871 0.105541 0
116 1 0.402819 0.130039 0
117 1 0.417657 0.110596 0
118 1 0.423562 0.13457 0
88 1 0.431968 0.0922542 0
119 1 0.4375 0.116121 0
90 1 0.451596 0.0980165 0
120 1 0.457501 0.122641 0
991 1 0.471854 0.10467 0
992 1 0.477283 0.129223 0
993 1 0.491412 0.11133 0
1048 1 0.02435 0.147004 0
1077 1 0.018835 0.171582 0
1046 1 0.00430551 0.153077 0
1079 1 0.0383988 0.165027 0
1050 1 0.043446 0.140256 0
151 1 0.0579686 0.158018 0
152 1 0.0728098 0.175629 0
122 1 0.0779159 0.150929 0
153 1 0.0915775 0.169079 0
123 1 0.0970634 0.142987 0
124 1 0.111116 0.160685 0
155 1 0.12663 0.177539 0
126 1 0.13239 0.153376 0
157 1 0.146419 0.171842 0
127 1 0.151827 0.146708 0
129 1 0.170843 0.138322 0
128 1 0.166449 0.165047 0
159 1 0.185173 0.154663 0
132 1 0.192665 0.177561 0
131 1 0.206677 0.158208 0
133 1 0.222315 0.141895 0
134 1 0.227729 0.16598 0
135 1 0.241577 0.147333 0
165 1 0.246783 0.17141 0
136 1 0.261412 0.153305 0
167 1 0.266756 0.178194 0
138 1 0.281266 0.159627 0
139 1 0.294504 0.141388 0
169 1 0.300244 0.167333 0
140 1 0.314804 0.147956 0
171 1 0.320245 0.17184 0
142 1 0.334196 0.152783 0
172 1 0.33978 0.176338 0
173 1 0.354817 0.159079 0
114 1 0.368822 0.141576 0
144 1 0.374124 0.165245 0
145 1 0.388629 0.147946 0
146 1 0.39414 0.172854 0
147 1 0.408661 0.153303 0
177 1 0.414135 0.178118 0
148 1 0.429431 0.160349 0
149 1 0.443321 0.141002 0
150 1 0.448801 0.166095 0
1021 1 0.462815 0.147518 0
1051 1 0.468494 0.172705 0
1022 1 0.482609 0.154534 0
1053 1 0.488107 0.179574 0
1023 1 0.497018 0.136545 0
1076 1 0.0129475 0.196255 0
1107 1 0.0276542 0.212916 0
1078 1 0.0327362 0.189076 0
1106 1 0.00733108 0.219483 0
1080 1 0.0533977 0.181972 0
1109 1 0.0467559 0.207729 0
181 1 0.0667449 0.201202 0
182 1 0.0765385 0.224035 0
183 1 0.0872827 0.194222 0
185 1 0.104036 0.210351 0
154 1 0.107293 0.184364 0
156 1 0.123226 0.20153 0
186 1 0.129608 0.223744 0
158 1 0.143988 0.204986 0
160 1 0.159238 0.18964 0
189 1 0.163059 0.213399 0
161 1 0.178365 0.195864 0
163 1 0.212922 0.182578 0
191 1 0.182969 0.219243 0
162 1 0.198162 0.200987 0
192 1 0.203175 0.224895 0
193 1 0.21762 0.20799 0
164 1 0.232123 0.190453 0
195 1 0.237509 0.214682 0
166 1 0.25128 0.196178 0
196 1 0.256974 0.220193 0
197 1 0.271726 0.202023 0
198 1 0.2771 0.226068 0
168 1 0.286032 0.18426 0
199 1 0.290991 0.208263 0
170 1 0.306287 0.191063 0
200 1 0.31048 0.214723 0
201 1 0.326162 0.196323 0
202 1 0.330832 0.220687 0
203 1 0.345624 0.201944 0
233 1 0.350964 0.225883 0
174 1 0.360166 0.18348 0
204 1 0.365538 0.207968 0
175 1 0.380109 0.190635 0
205 1 0.385558 0.213954 0
176 1 0.400295 0.196584 0
207 1 0.405687 0.220299 0
178 1 0.419797 0.202519 0
208 1 0.425351 0.227397 0
179 1 0.433889 0.184184 0
209 1 0.439558 0.209506 0
180 1 0.453289 0.191159 0
1081 1 0.459919 0.215558 0
1052 1 0.474271 0.196774 0
1082 1 0.480008 0.221803 0
1083 1 0.49352 0.203885 0
1084 1 0.499595 0.229488 0
1108 1 0.0249921 0.250588 0
1137 1 0.0106515 0.267798 0
1136 1 0.00442326 0.243389 0
1110 1 0.0407471 0.233034 0
1140 1 0.0453004 0.25761 0
211 1 0.0596027 0.24058 0
212 1 0.0640306 0.265898 0
213 1 0.0787468 0.248986 0
184 1 0.0949604 0.232593 0
214 1 0.0998759 0.257638 0
215 1 0.114079 0.240362 0
216 1 0.119102 0.263887 0
217 1 0.134189 0.247516 0
218 1 0.139536 0.271674 0
187 1 0.14902 0.230904 0
188 1 0.154522 0.254836 0
190 1 0.168646 0.236842 0
220 1 0.173927 0.26036 0
221 1 0.188502 0.243495 0
222 1 0.193314 0.268151 0
223 1 0.208378 0.250481 0
194 1 0.222674 0.232259 0
224 1 0.228045 0.256554 0
225 1 0.242536 0.238173 0
226 1 0.247919 0.261735 0
227 1 0.262169 0.244144 0
257 1 0.26822 0.269139 0
228 1 0.282003 0.250623 0
229 1 0.29674 0.232851 0
230 1 0.302939 0.256403 0
231 1 0.316463 0.238604 0
261 1 0.322214 0.263347 0
232 1 0.336311 0.244034 0
263 1 0.341809 0.26877 0
234 1 0.356243 0.251339 0
235 1 0.371096 0.23197 0
265 1 0.376292 0.257129 0
206 1 0.390762 0.238607 0
236 1 0.396276 0.263145 0
237 1 0.410585 0.245959 0
238 1 0.4163 0.269725 0
239 1 0.430899 0.252335 0
210 1 0.44518 0.233672 0
240 1 0.451034 0.258579 0
1111 1 0.46556 0.239217 0
1112 1 0.470785 0.264301 0
1113 1 0.485305 0.24692 0
1142 1 0.489888 0.27206 0
1138 1 0.0170841 0.294431 0
1139 1 0.0306523 0.275232 0
1354 1 0.498028 0.47953 0
1169 1 0.0358122 0.301177 0
241 1 0.0494241 0.28442 0
271 1 0.0558433 0.309278 0
242 1 0.0698729 0.290697 0
243 1 0.0841146 0.273861 0
273 1 0.0757401 0.316017 0
244 1 0.0897542 0.298776 0
245 1 0.104843 0.282047 0
246 1 0.109651 0.305963 0
247 1 0.125044 0.289122 0
248 1 0.13038 0.313026 0
249 1 0.145037 0.29656 0
219 1 0.158878 0.278084 0
250 1 0.16468 0.302926 0
251 1 0.178568 0.285546 0
281 1 0.184065 0.309464 0
252 1 0.199666 0.292539 0
283 1 0.204115 0.316033 0
253 1 0.213162 0.274178 0
254 1 0.21932 0.297759 0
255 1 0.233485 0.280099 0
285 1 0.238229 0.304236 0
256 1 0.253232 0.286269 0
287 1 0.258032 0.310395 0
258 1 0.27372 0.293027 0
288 1 0.278301 0.316797 0
259 1 0.287877 0.274575 0
289 1 0.293567 0.298616 0
260 1 0.307931 0.28056 0
291 1 0.313692 0.305122 0
262 1 0.327561 0.287562 0
292 1 0.332686 0.311496 0
293 1 0.347277 0.293444 0
264 1 0.361365 0.27489 0
295 1 0.366564 0.300425 0
266 1 0.380789 0.281697 0
297 1 0.386289 0.306288 0
267 1 0.401456 0.287656 0
298 1 0.406467 0.312065 0
268 1 0.42195 0.29421 0
299 1 0.426432 0.319539 0
269 1 0.436056 0.27699 0
270 1 0.441521 0.300973 0
1141 1 0.455595 0.282033 0
300 1 0.461079 0.306334 0
1171 1 0.475148 0.289503 0
1172 1 0.481458 0.313877 0
1173 1 0.495492 0.296867 0
1168 1 0.0205492 0.319771 0
1199 1 0.0251992 0.344024 0
1198 1 0.00556026 0.336663 0
1228 1 0.0105192 0.361394 0
1170 1 0.0403856 0.326262 0
1229 1 0.0446819 0.349986 0
1200 1 0.0605107 0.33338 0
301 1 0.0652453 0.358526 0
272 1 0.0798272 0.340565 0
275 1 0.0951945 0.323014 0
274 1 0.0998497 0.347203 0
276 1 0.115462 0.330999 0
305 1 0.119788 0.355619 0
277 1 0.134371 0.337757 0
307 1 0.140509 0.361932 0
279 1 0.149545 0.320907 0
278 1 0.153851 0.34515 0
280 1 0.169227 0.326706 0
311 1 0.174667 0.351169 0
282 1 0.189057 0.333506 0
312 1 0.194645 0.35727 0
313 1 0.208447 0.339812 0
284 1 0.224516 0.322266 0
315 1 0.2292 0.345519 0
286 1 0.243784 0.327777 0
316 1 0.24892 0.352269 0
317 1 0.263275 0.334287 0
318 1 0.269177 0.358718 0
319 1 0.283131 0.340367 0
290 1 0.297856 0.323124 0
320 1 0.303105 0.347002 0
321 1 0.31782 0.32947 0
294 1 0.352363 0.317367 0
322 1 0.322791 0.354507 0
323 1 0.337803 0.335516 0
324 1 0.342772 0.359663 0
325 1 0.357409 0.342355 0
296 1 0.372041 0.324929 0
326 1 0.377207 0.348394 0
327 1 0.391773 0.330447 0
328 1 0.397087 0.354956 0
329 1 0.411583 0.33704 0
358 1 0.416681 0.360477 0
359 1 0.431621 0.343817 0
330 1 0.446079 0.324543 0
360 1 0.451041 0.349466 0
1202 1 0.485288 0.338034 0
1201 1 0.465895 0.331548 0
1231 1 0.471093 0.356409 0
1233 1 0.490397 0.363301 0
1287 1 0.000945781 0.403466 0
1259 1 0.0297212 0.368436 0
1258 1 0.0159594 0.385614 0
1260 1 0.0359277 0.392298 0
1230 1 0.0502225 0.375242 0
331 1 0.0556394 0.400461 0
302 1 0.0697667 0.382345 0
303 1 0.0850973 0.365043 0
332 1 0.0760026 0.406959 0
333 1 0.0904158 0.389426 0
304 1 0.105356 0.372362 0
335 1 0.109996 0.397281 0
306 1 0.124758 0.380322 0
337 1 0.1299 0.403689 0
308 1 0.144975 0.385926 0
309 1 0.160008 0.368739 0
339 1 0.165064 0.393409 0
314 1 0.214364 0.36318 0
310 1 0.179383 0.374902 0
341 1 0.184887 0.399828 0
343 1 0.199753 0.382068 0
342 1 0.205168 0.406944 0
344 1 0.219628 0.387844 0
345 1 0.233769 0.369795 0
346 1 0.240275 0.394362 0
347 1 0.254556 0.376009 0
377 1 0.259821 0.400459 0
348 1 0.27418 0.383268 0
378 1 0.279602 0.406671 0
349 1 0.288407 0.36493 0
350 1 0.29398 0.389076 0
351 1 0.308541 0.372046 0
381 1 0.313668 0.395909 0
353 1 0.328263 0.378432 0
352 1 0.333101 0.403047 0
354 1 0.347985 0.385307 0
355 1 0.363103 0.36692 0
356 1 0.368198 0.391094 0
357 1 0.383294 0.372614 0
386 1 0.387886 0.397433 0
387 1 0.402117 0.379535 0
388 1 0.407548 0.402737 0
389 1 0.4221 0.385505 0
1232 1 0.437319 0.368555 0
1261 1 0.442084 0.392683 0
1262 1 0.456798 0.373473 0
1293 1 0.462273 0.398879 0
1263 1 0.476111 0.380994 0
1294 1 0.48156 0.404886 0
1264 1 0.497002 0.387363 0
1289 1 0.020833 0.409418 0
1319 1 0.026958 0.434598 0
1288 1 0.00663722 0.427771 0
1318 1 0.012118 0.452366 0
1290 1 0.0410102 0.417115 0
391 1 0.046917 0.442359 0
361 1 0.061483 0.425088 0
362 1 0.0670626 0.449682 0
363 1 0.0813323 0.431414 0
334 1 0.0952023 0.414605 0
365 1 0.100945 0.439801 0
336 1 0.115551 0.422164 0
366 1 0.120718 0.446162 0
367 1 0.135801 0.428084 0
368 1 0.14071 0.452859 0
338 1 0.150577 0.410669 0
369 1 0.155874 0.435469 0
340 1 0.17004 0.418066 0
370 1 0.175802 0.442607 0
371 1 0.190349 0.42429 0
401 1 0.195058 0.448268 0
372 1 0.209725 0.431344 0
373 1 0.224892 0.413001 0
374 1 0.229421 0.43722 0
375 1 0.244271 0.419545 0
405 1 0.249956 0.443488 0
376 1 0.26396 0.424224 0
407 1 0.270537 0.448539 0
409 1 0.285209 0.431385 0
379 1 0.299706 0.414982 0
380 1 0.305139 0.438565 0
382 1 0.31941 0.420605 0
385 1 0.353583 0.409094 0
413 1 0.324958 0.444845 0
383 1 0.339892 0.427333 0
412 1 0.344893 0.450823 0
414 1 0.359381 0.433377 0
384 1 0.373477 0.415119 0
415 1 0.379148 0.438968 0
417 1 0.393818 0.4217 0
416 1 0.399139 0.445967 0
418 1 0.413701 0.427125 0
447 1 0.41839 0.452088 0
419 1 0.428211 0.409776 0
390 1 0.433013 0.43385 0
1291 1 0.448127 0.416776 0
1321 1 0.453293 0.441351 0
1323 1 0.488129 0.428976 0
1292 1 0.467634 0.423168 0
1322 1 0.473426 0.448368 0
1324 1 0.493312 0.454436 0
1320 1 0.0318908 0.459497 0
1349 1 0.0171376 0.476202 0
1379 1 0.00254219 0.493725 0
421 1 0.0374595 0.48382 0
392 1 0.0526247 0.467392 0
422 1 0.0568957 0.491265 0
393 1 0.0722372 0.474144 0
364 1 0.0866635 0.457204 0
394 1 0.0921441 0.481014 0
423 1 0.077185 0.498363 0
395 1 0.106452 0.463602 0
396 1 0.111586 0.488048 0
397 1 0.125842 0.470318 0
427 1 0.130998 0.494873 0
398 1 0.145855 0.477439 0
399 1 0.160268 0.459471 0
429 1 0.166408 0.483388 0
400 1 0.180796 0.466969 0
431 1 0.186289 0.490498 0
402 1 0.200841 0.472542 0
432 1 0.206204 0.497217 0
403 1 0.214862 0.455687 0
433 1 0.22015 0.479471 0
404 1 0.234962 0.461909 0
435 1 0.239584 0.485892 0
406 1 0.254773 0.467399 0
436 1 0.260918 0.49175 0
408 1 0.275844 0.47314 0
439 1 0.280442 0.497476 0
410 1 0.291207 0.455736 0
441 1 0.295425 0.48005 0
411 1 0.310564 0.462905 0
440 1 0.315961 0.487305 0
442 1 0.330159 0.469322 0
471 1 0.335519 0.492918 0
473 1 0.350171 0.475853 0
472 1 0.355458 0.499192 0
443 1 0.364891 0.457781 0
444 1 0.369791 0.481834 0
445 1 0.384118 0.463854 0
475 1 0.389243 0.488682 0
446 1 0.403055 0.470636 0
477 1 0.409331 0.494432 0
448 1 0.423174 0.476568 0
1351 1 0.46407 0.489531 0
450 1 0.458633 0.465644 0
449 1 0.443909 0.482538 0
420 1 0.438076 0.458796 0
1352 1 0.483287 0.497374 0
1353 1 0.478732 0.471813 0
1203 1 0.500813 0.321494 0
881 1 0.181799 -3.35447e-06 0
1380 1 0.0275228 0.526709 0
1350 1 0.0225826 0.501534 0
1409 1 0.0135196 0.54744 0
451 1 0.0420841 0.508743 0
452 1 0.0486267 0.534303 0
453 1 0.0619559 0.515047 0
454 1 0.0681754 0.54015 0
424 1 0.0816654 0.523014 0
425 1 0.0963818 0.505367 0
455 1 0.10106 0.529856 0
426 1 0.116357 0.512498 0
456 1 0.122502 0.536142 0
457 1 0.137007 0.518558 0
458 1 0.142221 0.542421 0
459 1 0.157359 0.525538 0
430 1 0.170883 0.507547 0
460 1 0.176599 0.532901 0
428 1 0.151079 0.501057 0
461 1 0.190965 0.51475 0
462 1 0.196775 0.539711 0
463 1 0.210758 0.521247 0
434 1 0.225496 0.504784 0
464 1 0.230763 0.528158 0
465 1 0.245228 0.509034 0
466 1 0.250993 0.533481 0
437 1 0.265607 0.516388 0
497 1 0.272059 0.541303 0
467 1 0.286614 0.522836 0
438 1 0.301578 0.504762 0
468 1 0.306629 0.529082 0
469 1 0.32185 0.511188 0
499 1 0.326361 0.535027 0
470 1 0.341978 0.517366 0
501 1 0.346118 0.541692 0
503 1 0.361308 0.524645 0
474 1 0.375144 0.506026 0
505 1 0.380591 0.530723 0
476 1 0.395073 0.513165 0
506 1 0.401064 0.537632 0
507 1 0.414587 0.519193 0
509 1 0.420281 0.543871 0
480 1 0.435199 0.525574 0
479 1 0.450223 0.507229 0
510 1 0.454837 0.532163 0
478 1 0.42961 0.500119 0
1382 1 0.488552 0.521178 0
1381 1 0.469251 0.515707 0
1411 1 0.474316 0.539043 0
1413 1 0.493906 0.54558 0
481 1 0.0345665 0.552557 0
1408 1 0.0195661 0.570563 0
1410 1 0.039601 0.576931 0
483 1 0.0548045 0.559143 0
482 1 0.0594263 0.583954 0
485 1 0.0878537 0.548136 0
513 1 0.0745729 0.567143 0
484 1 0.0949546 0.572851 0
486 1 0.108387 0.553981 0
515 1 0.114169 0.578909 0
487 1 0.127456 0.560386 0
517 1 0.133132 0.586051 0
488 1 0.147388 0.567496 0
489 1 0.161413 0.54935 0
490 1 0.167218 0.573812 0
491 1 0.182156 0.557372 0
521 1 0.1882 0.581275 0
492 1 0.202775 0.563903 0
523 1 0.207802 0.588092 0
493 1 0.217223 0.545787 0
494 1 0.22283 0.570056 0
495 1 0.237695 0.552084 0
525 1 0.243372 0.576806 0
496 1 0.257163 0.558161 0
526 1 0.262649 0.584107 0
527 1 0.277921 0.566432 0
528 1 0.282448 0.590577 0
498 1 0.292006 0.547468 0
529 1 0.297381 0.572099 0
500 1 0.313067 0.554258 0
530 1 0.317614 0.578977 0
531 1 0.332384 0.559482 0
532 1 0.337562 0.585396 0
533 1 0.352055 0.56748 0
502 1 0.366615 0.549477 0
534 1 0.372571 0.573437 0
504 1 0.386679 0.554815 0
535 1 0.391724 0.581077 0
508 1 0.405917 0.562079 0
537 1 0.411934 0.586199 0
539 1 0.425566 0.568242 0
540 1 0.44017 0.550736 0
569 1 0.445578 0.574489 0
1441 1 0.459628 0.555871 0
1443 1 0.485667 0.588689 0
1442 1 0.465846 0.580764 0
1412 1 0.479768 0.563202 0
903 1 0.484527 0.996342 0
1439 1 0.0246461 0.595098 0
1440 1 0.029126 0.61877 0
1438 1 0.00743844 0.610513 0
1469 1 0.00077131 0.634072 0
511 1 0.0441336 0.602317 0
541 1 0.0499033 0.627096 0
512 1 0.064532 0.608619 0
542 1 0.0698952 0.632575 0
514 1 0.079352 0.590877 0
543 1 0.0857012 0.616347 0
545 1 0.0987493 0.597068 0
546 1 0.105664 0.62271 0
516 1 0.118664 0.603708 0
547 1 0.124483 0.628563 0
518 1 0.138472 0.610257 0
519 1 0.153154 0.592896 0
548 1 0.158635 0.617 0
520 1 0.17242 0.599084 0
577 1 0.14411 0.635377 0
549 1 0.17835 0.623802 0
522 1 0.192893 0.605876 0
551 1 0.198776 0.630538 0
553 1 0.213036 0.613021 0
524 1 0.227644 0.594915 0
554 1 0.232812 0.618891 0
555 1 0.247514 0.600928 0
556 1 0.252479 0.625507 0
557 1 0.267434 0.608219 0
587 1 0.273258 0.631992 0
558 1 0.287596 0.614701 0
559 1 0.30237 0.59616 0
560 1 0.308173 0.620477 0
561 1 0.32281 0.603194 0
591 1 0.327793 0.62792 0
562 1 0.342869 0.609826 0
564 1 0.347895 0.634715 0
563 1 0.357547 0.591614 0
565 1 0.362717 0.616643 0
536 1 0.377339 0.598503 0
566 1 0.383162 0.62243 0
567 1 0.398477 0.604246 0
597 1 0.40261 0.629057 0
568 1 0.41732 0.611454 0
538 1 0.431639 0.59343 0
600 1 0.436605 0.617759 0
570 1 0.45096 0.599308 0
1501 1 0.45625 0.624092 0
1471 1 0.471039 0.60541 0
1472 1 0.47543 0.63017 0
1473 1 0.490614 0.612407 0
1529 1 0.0110411 0.674883 0
1470 1 0.0355249 0.644615 0
1500 1 0.0306462 0.668179 0
1499 1 0.0155401 0.651268 0
571 1 0.0557207 0.65071 0
572 1 0.0620141 0.674189 0
573 1 0.0755987 0.656356 0
544 1 0.0900587 0.640094 0
574 1 0.0949382 0.664478 0
575 1 0.110398 0.646571 0
605 1 0.114968 0.671568 0
576 1 0.130154 0.65324 0
607 1 0.134578 0.678177 0
578 1 0.150006 0.65962 0
579 1 0.163795 0.641591 0
609 1 0.169268 0.665365 0
550 1 0.184343 0.648312 0
580 1 0.189331 0.672153 0
581 1 0.204689 0.654157 0
611 1 0.209619 0.679325 0
552 1 0.218914 0.63711 0
582 1 0.223676 0.66251 0
583 1 0.238493 0.643834 0
584 1 0.243876 0.669015 0
585 1 0.257354 0.649206 0
615 1 0.264145 0.674917 0
586 1 0.277143 0.656769 0
617 1 0.284261 0.681952 0
589 1 0.293053 0.638989 0
588 1 0.297736 0.663602 0
590 1 0.313196 0.645739 0
621 1 0.318158 0.670619 0
593 1 0.333334 0.65227 0
592 1 0.338595 0.676113 0
594 1 0.352735 0.658714 0
595 1 0.36806 0.641167 0
625 1 0.371224 0.666004 0
596 1 0.387955 0.646748 0
627 1 0.391604 0.671108 0
599 1 0.422565 0.635987 0
598 1 0.407567 0.653562 0
657 1 0.412677 0.677735 0
628 1 0.427509 0.660388 0
629 1 0.441968 0.642456 0
630 1 0.44728 0.665936 0
1502 1 0.461675 0.648366 0
1474 1 0.494682 0.637113 0
1503 1 0.480962 0.655117 0
1533 1 0.466347 0.672456 0
1504 1 0.48629 0.679588 0
1559 1 0.00630834 0.699501 0
1530 1 0.0264091 0.693326 0
1560 1 0.0212237 0.71715 0
1558 1 0.00164158 0.723325 0
631 1 0.0418364 0.710423 0
601 1 0.0449427 0.685639 0
602 1 0.0641187 0.699308 0
632 1 0.0569859 0.726783 0
603 1 0.0809545 0.683333 0
633 1 0.0841937 0.708143 0
604 1 0.100484 0.689604 0
635 1 0.105556 0.715326 0
606 1 0.120791 0.696417 0
636 1 0.125888 0.720445 0
637 1 0.141079 0.702184 0
608 1 0.154728 0.68321 0
638 1 0.160754 0.707675 0
639 1 0.174174 0.689551 0
667 1 0.146156 0.726312 0
641 1 0.180168 0.715189 0
610 1 0.194785 0.697604 0
642 1 0.20103 0.722231 0
612 1 0.214541 0.704076 0
613 1 0.228836 0.686616 0
643 1 0.234829 0.711109 0
614 1 0.249209 0.693204 0
645 1 0.255272 0.717339 0
616 1 0.269533 0.699788 0
647 1 0.275441 0.723776 0
618 1 0.289687 0.706623 0
619 1 0.304083 0.687864 0
620 1 0.30966 0.712594 0
622 1 0.323897 0.694667 0
651 1 0.329873 0.718615 0
653 1 0.343766 0.700385 0
654 1 0.350507 0.724428 0
623 1 0.357416 0.683166 0
624 1 0.363636 0.707259 0
626 1 0.377843 0.689776 0
655 1 0.383511 0.71409 0
656 1 0.397577 0.69533 0
686 1 0.403769 0.719851 0
658 1 0.417849 0.701953 0
659 1 0.432304 0.684654 0
660 1 0.438249 0.708411 0
1531 1 0.452145 0.690213 0
1561 1 0.45715 0.715431 0
1532 1 0.471941 0.696726 0
1563 1 0.477211 0.721428 0
1534 1 0.492054 0.704199 0
1619 1 0.0106062 0.764944 0
1589 1 0.0164843 0.741432 0
1590 1 0.0319071 0.758602 0
661 1 0.0371124 0.734463 0
663 1 0.0517671 0.751264 0
662 1 0.0671547 0.768278 0
664 1 0.0722511 0.743577 0
695 1 0.0887912 0.75983 0
634 1 0.0910963 0.732994 0
665 1 0.111912 0.738286 0
697 1 0.117592 0.763026 0
666 1 0.131774 0.744496 0
668 1 0.138017 0.768175 0
669 1 0.151854 0.750996 0
640 1 0.166311 0.733379 0
670 1 0.171054 0.75802 0
671 1 0.18581 0.739669 0
672 1 0.192282 0.76358 0
673 1 0.205942 0.746824 0
703 1 0.211964 0.771206 0
644 1 0.220399 0.729374 0
674 1 0.226541 0.753329 0
675 1 0.240359 0.734984 0
705 1 0.245964 0.759699 0
646 1 0.260657 0.74146 0
677 1 0.265634 0.766686 0
648 1 0.279721 0.74918 0
649 1 0.294726 0.730889 0
679 1 0.300071 0.754893 0
650 1 0.315201 0.736493 0
681 1 0.320317 0.760652 0
678 1 0.285471 0.773229 0
652 1 0.335676 0.743078 0
682 1 0.339756 0.768192 0
683 1 0.354587 0.749428 0
685 1 0.369204 0.731511 0
684 1 0.374239 0.757086 0
715 1 0.388431 0.738918 0
687 1 0.423468 0.726906 0
714 1 0.39352 0.763921 0
717 1 0.408146 0.745322 0
716 1 0.414046 0.769981 0
688 1 0.427684 0.752031 0
689 1 0.443007 0.734089 0
719 1 0.448318 0.758218 0
690 1 0.463527 0.73931 0
1565 1 0.497602 0.728158 0
1591 1 0.46777 0.764398 0
1562 1 0.483208 0.746381 0
1593 1 0.487573 0.7708 0
1620 1 0.0260452 0.782668 0
1649 1 0.0208408 0.806638 0
1618 1 0.00657931 0.789404 0
1648 1 0.00149304 0.814416 0
691 1 0.047494 0.776305 0
721 1 0.0412879 0.800109 0
693 1 0.0620557 0.79305 0
692 1 0.0560256 0.818588 0
723 1 0.076478 0.810378 0
694 1 0.0823213 0.784601 0
725 1 0.0963083 0.803029 0
696 1 0.102341 0.778617 0
727 1 0.116322 0.796551 0
728 1 0.129091 0.815897 0
698 1 0.136973 0.792684 0
699 1 0.156664 0.775093 0
700 1 0.149015 0.812183 0
731 1 0.164402 0.797278 0
701 1 0.178029 0.780937 0
702 1 0.197359 0.790069 0
763 1 0.203066 0.814101 0
732 1 0.182728 0.807469 0
733 1 0.216605 0.796245 0
704 1 0.230942 0.77754 0
706 1 0.236378 0.802385 0
676 1 0.250844 0.784212 0
737 1 0.255989 0.809587 0
707 1 0.271063 0.792024 0
738 1 0.276494 0.815203 0
708 1 0.291504 0.797028 0
709 1 0.305711 0.778348 0
710 1 0.310444 0.80416 0
680 1 0.325222 0.786124 0
741 1 0.330836 0.810619 0
711 1 0.345358 0.79193 0
742 1 0.350568 0.817454 0
713 1 0.359532 0.774219 0
712 1 0.364782 0.798726 0
743 1 0.379364 0.781985 0
745 1 0.385024 0.805746 0
746 1 0.399868 0.787878 0
775 1 0.404943 0.811452 0
747 1 0.41931 0.794127 0
718 1 0.433441 0.776078 0
749 1 0.43876 0.800491 0
720 1 0.453474 0.782388 0
1621 1 0.459112 0.806634 0
1623 1 0.493619 0.79525 0
1592 1 0.474293 0.788495 0
1622 1 0.478778 0.812988 0
1709 1 0.0309764 0.849509 0
1679 1 0.0154877 0.831394 0
1678 1 0.0103908 0.856502 0
1650 1 0.0363076 0.8254 0
1680 1 0.0505996 0.843664 0
752 1 0.0652168 0.861173 0
751 1 0.0708186 0.835556 0
753 1 0.0849987 0.854327 0
722 1 0.0903748 0.829064 0
724 1 0.104488 0.847182 0
726 1 0.109662 0.821972 0
757 1 0.123979 0.841005 0
756 1 0.138855 0.858269 0
729 1 0.143917 0.834692 0
759 1 0.160053 0.850058 0
730 1 0.166768 0.825722 0
761 1 0.187696 0.831982 0
792 1 0.193232 0.85705 0
762 1 0.20897 0.838726 0
764 1 0.213478 0.863286 0
735 1 0.222851 0.820727 0
734 1 0.228779 0.845088 0
736 1 0.242954 0.828066 0
765 1 0.248537 0.852962 0
767 1 0.262411 0.833599 0
766 1 0.267871 0.858046 0
768 1 0.282527 0.839539 0
739 1 0.296807 0.822142 0
769 1 0.301939 0.846782 0
740 1 0.316569 0.829034 0
770 1 0.322357 0.854159 0
771 1 0.336591 0.836558 0
801 1 0.342224 0.860933 0
773 1 0.356728 0.842565 0
744 1 0.369501 0.822947 0
803 1 0.376391 0.848418 0
774 1 0.390323 0.829461 0
748 1 0.424585 0.818256 0
776 1 0.396429 0.855517 0
777 1 0.410375 0.836681 0
778 1 0.416256 0.86151 0
779 1 0.430917 0.843953 0
750 1 0.444538 0.825655 0
780 1 0.450855 0.850376 0
1624 1 0.500216 0.818886 0
1651 1 0.465193 0.831324 0
1652 1 0.471183 0.856332 0
1653 1 0.485058 0.837438 0
1683 1 0.491816 0.861788 0
1710 1 0.0249671 0.873679 0
1739 1 0.0192716 0.898679 0
1708 1 0.00495496 0.881673 0
811 1 0.0392197 0.891524 0
781 1 0.0449962 0.867788 0
782 1 0.0596014 0.884755 0
812 1 0.0532365 0.908841 0
813 1 0.0739239 0.902847 0
783 1 0.0793534 0.878313 0
784 1 0.0938591 0.896684 0
754 1 0.0988999 0.872153 0
755 1 0.119173 0.864978 0
785 1 0.115051 0.88967 0
786 1 0.129474 0.907075 0
787 1 0.134674 0.882758 0
788 1 0.14857 0.900149 0
758 1 0.154037 0.874663 0
760 1 0.174357 0.867822 0
789 1 0.168912 0.891839 0
791 1 0.189213 0.88438 0
823 1 0.203455 0.902416 0
793 1 0.219034 0.886667 0
795 1 0.23368 0.870054 0
794 1 0.238974 0.893534 0
796 1 0.253878 0.876922 0
825 1 0.259084 0.90009 0
827 1 0.273908 0.88184 0
826 1 0.278516 0.907033 0
797 1 0.287618 0.864376 0
798 1 0.29368 0.889254 0
799 1 0.307701 0.871204 0
829 1 0.313531 0.89496 0
800 1 0.327928 0.877835 0
831 1 0.333047 0.902304 0
802 1 0.348022 0.884961 0
833 1 0.353244 0.909436 0
772 1 0.362129 0.86656 0
804 1 0.367446 0.891734 0
805 1 0.381953 0.873492 0
806 1 0.38748 0.897374 0
807 1 0.402543 0.879162 0
837 1 0.407251 0.903703 0
808 1 0.421656 0.885814 0
809 1 0.436429 0.868361 0
810 1 0.441927 0.89298 0
1681 1 0.45609 0.873873 0
1711 1 0.462584 0.898161 0
1684 1 0.496842 0.886923 0
1682 1 0.476968 0.879533 0
1713 1 0.482295 0.905084 0
1740 1 0.0341649 0.91587 0
1769 1 0.0296832 0.940722 0
1738 1 0.0145807 0.922733 0
1768 1 0.00972545 0.947161 0
841 1 0.0488329 0.933122 0
842 1 0.0629724 0.950593 0
843 1 0.068127 0.926055 0
844 1 0.0832831 0.944096 0
814 1 0.0885013 0.920984 0
845 1 0.103105 0.938234 0
815 1 0.109486 0.914303 0
816 1 0.124248 0.930967 0
847 1 0.137875 0.948447 0
846 1 0.118447 0.954949 0
817 1 0.14437 0.924616 0
818 1 0.158698 0.9419 0
819 1 0.163551 0.916422 0
820 1 0.178514 0.933524 0
790 1 0.183304 0.908741 0
851 1 0.192783 0.95193 0
821 1 0.198198 0.92721 0
822 1 0.212246 0.94517 0
824 1 0.222392 0.91133 0
853 1 0.230566 0.935503 0
855 1 0.24458 0.917291 0
854 1 0.249991 0.942882 0
856 1 0.263509 0.924951 0
885 1 0.269848 0.948608 0
857 1 0.284631 0.931528 0
828 1 0.299105 0.912946 0
859 1 0.304716 0.938253 0
830 1 0.318496 0.920517 0
860 1 0.324304 0.945927 0
832 1 0.338078 0.926606 0
861 1 0.344145 0.951308 0
863 1 0.358774 0.933294 0
834 1 0.373587 0.91624 0
865 1 0.379061 0.940186 0
835 1 0.393594 0.922066 0
836 1 0.399145 0.945789 0
838 1 0.41352 0.928127 0
867 1 0.419652 0.951743 0
839 1 0.427321 0.909903 0
869 1 0.433508 0.934499 0
840 1 0.448213 0.916158 0
1741 1 0.453476 0.940355 0
1743 1 0.487643 0.929389 0
1712 1 0.468087 0.922106 0
1742 1 0.473408 0.946625 0
1744 1 0.49339 0.953452 0
1799 1 0.0243284 0.96518 0
1798 1 0.0186994 0.989011 0
1797 1 0.00403614 0.970815 0
1 1 0.0538518 0.999573 0
1800 1 0.0389826 0.981771 0
1770 1 0.0441105 0.95786 0
871 1 0.0584803 0.975051 0
872 1 0.0727554 0.992078 0
873 1 0.0778285 0.968523 0
874 1 0.0921932 0.985245 0
875 1 0.0978563 0.961871 0
876 1 0.112583 0.978716 0
7 1 0.126338 0.997085 0
877 1 0.13275 0.972695 0
878 1 0.14705 0.989888 0
848 1 0.152988 0.964936 0
849 1 0.17288 0.958149 0
879 1 0.167446 0.983149 0
850 1 0.186788 0.975406 0
11 1 0.201702 0.992725 0
852 1 0.207312 0.96908 0
1737 1 -0.000234443 0.905815 0
883 1 0.228383 0.961714 0
882 1 0.221668 0.986286 0
884 1 0.242021 0.981543 0
886 1 0.256699 0.966924 0
16 1 0.261252 0.99269 0
17 1 0.276203 0.973775 0
18 1 0.282531 0.999267 0
887 1 0.290417 0.955721 0
888 1 0.296124 0.980934 0
858 1 0.310714 0.96448 0
889 1 0.315388 0.989252 0
891 1 0.329754 0.969998 0
890 1 0.335437 0.9945 0
862 1 0.350442 0.975573 0
864 1 0.363826 0.9586 0
893 1 0.370638 0.982015 0
895 1 0.384274 0.963833 0
896 1 0.390429 0.987822 0
866 1 0.404922 0.969876 0
897 1 0.41043 0.993673 0
868 1 0.425124 0.976048 0
899 1 0.444726 0.982617 0
1771 1 0.459651 0.965581 0
870 1 0.439777 0.95908 0
1772 1 0.464786 0.990234 0
1774 1 0.499176 0.978022 0
1773 1 0.479289 0.971309 0
904 1 0.509859 0.0261601 0
905 1 0.504017 0.00300729 0
906 1 0.525028 0.00858946 0
935 1 0.529632 0.0328959 0
908 1 0.544319 0.0148686 0
937 1 0.549605 0.0409654 0
939 1 0.563486 0.0226348 0
940 1 0.583663 0.029326 0
941 1 0.578111 0.00411497 0
942 1 0.790351 0.0241211 0
944 1 0.805219 0.0424924 0
943 1 0.809906 0.0170078 0
945 1 0.824678 0.0345337 0
914 1 0.829345 0.0101483 0
947 1 0.844478 0.0280841 0
916 1 0.850653 0.00360556 0
918 1 0.865097 0.0215066 0
949 1 0.878798 0.0387149 0
919 1 0.884828 0.0133167 0
948 1 0.859122 0.0451196 0
920 1 0.89931 0.0316258 0
1790 1 0.90475 0.00721979 0
951 1 0.919662 0.0243263 0
1197 1 1.00116 0.312338 0
952 1 0.934782 0.041273 0
922 1 0.939807 0.0168396 0
953 1 0.955221 0.0351562 0
924 1 0.959956 0.0100468 0
955 1 0.974508 0.0272414 0
925 1 0.979828 0.0030125 0
926 1 0.994795 0.0199703 0
956 1 0.989591 0.0447189 0
963 1 0.500895 0.0695689 0
934 1 0.51528 0.0518881 0
965 1 0.520592 0.0761285 0
936 1 0.535133 0.0587786 0
938 1 0.570342 0.0478004 0
966 1 0.540202 0.0827069 0
967 1 0.555227 0.0643409 0