ITEM: TIMESTEP
297000
ITEM: NUMBER OF ATOMS
1800
ITEM: BOX BOUNDS pp pp pp
-1.0777967157077775e+01 1.7577796715707970e+02
1.1826529217466231e+00 1.6381734707825530e+02
0.0000000000000000e+00 5.5000000000000000e+00
ITEM: ATOMS id type xs ys zs
930 1 0.0339246 0.0207516 0
929 1 0.0176629 0.00394326 0
959 1 0.013415 0.0281143 0
31 1 0.0486623 0.0385014 0
2 1 0.0548469 0.0137242 0
33 1 0.0693208 0.0314218 0
3 1 0.0751055 0.00720165 0
4 1 0.0904971 0.0241358 0
6 1 0.111552 0.0174493 0
35 1 0.106271 0.0419142 0
5 1 0.0952421 9.36204e-05 0
37 1 0.126632 0.0350063 0
8 1 0.132666 0.00985753 0
39 1 0.147266 0.0278237 0
880 1 0.153146 0.0021667 0
9 1 0.168465 0.0203568 0
40 1 0.184563 0.038035 0
10 1 0.19018 0.0143538 0
69 1 0.16371 0.043739 0
41 1 0.205266 0.0314535 0
12 1 0.211046 0.0071393 0
14 1 0.226444 0.0254566 0
13 1 0.231855 0.00211758 0
15 1 0.247265 0.0175038 0
46 1 0.268639 0.0172377 0
45 1 0.242165 0.0431799 0
77 1 0.273496 0.0410949 0
47 1 0.289055 0.024422 0
19 1 0.304134 0.00692861 0
49 1 0.310041 0.0311524 0
20 1 0.324912 0.0131352 0
51 1 0.330136 0.0374059 0
21 1 0.345362 0.0191982 0
23 1 0.366683 0.0231149 0
22 1 0.350973 0.0429284 0
894 1 0.38211 0.00656482 0
1323 1 0.499177 0.432326 0
24 1 0.387159 0.0310109 0
25 1 0.402566 0.0140722 0
26 1 0.408468 0.0382342 0
27 1 0.423199 0.0205217 0
29 1 0.444682 0.0266783 0
898 1 0.438957 0.002906 0
900 1 0.459455 0.00884963 0
28 1 0.429 0.0449291 0
30 1 0.465111 0.0338129 0
901 1 0.48021 0.0161197 0
931 1 0.486694 0.040068 0
988 1 0.00325497 0.0790387 0
960 1 0.0285754 0.0460019 0
989 1 0.0235826 0.070967 0
958 1 0.00727765 0.0537471 0
61 1 0.0436279 0.0644681 0
62 1 0.0598028 0.0814394 0
32 1 0.0645119 0.0562597 0
990 1 0.03927 0.0886388 0
63 1 0.0802544 0.0727275 0
34 1 0.0855142 0.0485654 0
65 1 0.100922 0.0661042 0
66 1 0.117719 0.0838685 0
36 1 0.12156 0.0596488 0
67 1 0.138305 0.0762796 0
38 1 0.142519 0.0520312 0
68 1 0.159558 0.0690131 0
71 1 0.180083 0.0625845 0
70 1 0.175025 0.0865168 0
72 1 0.195624 0.0794387 0
42 1 0.200692 0.0548304 0
43 1 0.221264 0.0490188 0
73 1 0.216562 0.0735301 0
44 1 0.237268 0.0667792 0
74 1 0.263571 0.0863332 0
75 1 0.258987 0.0597311 0
76 1 0.279282 0.067077 0
48 1 0.295118 0.0487837 0
79 1 0.299882 0.0750377 0
50 1 0.315274 0.0559139 0
81 1 0.320852 0.080495 0
52 1 0.336513 0.0619971 0
82 1 0.341113 0.0866561 0
83 1 0.357403 0.0681284 0
53 1 0.37178 0.0488214 0
54 1 0.378582 0.0724288 0
55 1 0.393019 0.0551385 0
56 1 0.398838 0.0806135 0
57 1 0.413684 0.0626329 0
87 1 0.419219 0.0883832 0
58 1 0.434535 0.0699063 0
59 1 0.449821 0.0517502 0
89 1 0.456343 0.0764836 0
932 1 0.493375 0.0653945 0
60 1 0.470713 0.0581497 0
961 1 0.47732 0.082833 0
962 1 0.498128 0.0896676 0
1020 1 0.0345973 0.113763 0
1019 1 0.0196567 0.0965907 0
1049 1 0.0133139 0.121446 0
121 1 0.0505998 0.131621 0
91 1 0.0553277 0.106305 0
92 1 0.0705553 0.123731 0
93 1 0.0754241 0.0982169 0
64 1 0.0962914 0.0907034 0
94 1 0.0914032 0.11561 0
95 1 0.112411 0.108164 0
125 1 0.107498 0.132634 0
96 1 0.128295 0.12546 0
97 1 0.132716 0.101417 0
98 1 0.14918 0.118729 0
99 1 0.153553 0.0938228 0
100 1 0.168335 0.110656 0
130 1 0.185033 0.127292 0
101 1 0.189942 0.103891 0
105 1 0.23263 0.0906493 0
102 1 0.205536 0.120689 0
103 1 0.211776 0.0967977 0
104 1 0.227667 0.114629 0
106 1 0.249291 0.106751 0
137 1 0.254003 0.129071 0
107 1 0.270297 0.110705 0
78 1 0.284847 0.0915126 0
109 1 0.290941 0.117324 0
108 1 0.275722 0.135249 0
80 1 0.305974 0.0995557 0
110 1 0.312126 0.1238 0
111 1 0.326189 0.105787 0
141 1 0.333494 0.129493 0
84 1 0.363238 0.0924891 0
113 1 0.346739 0.110248 0
112 1 0.367652 0.116317 0
143 1 0.353549 0.13461 0
85 1 0.383797 0.0994892 0
115 1 0.389412 0.124071 0
86 1 0.404207 0.106052 0
116 1 0.409843 0.130477 0
88 1 0.440499 0.0943427 0
117 1 0.424947 0.113177 0
119 1 0.446373 0.118881 0
90 1 0.461991 0.101021 0
120 1 0.46766 0.125239 0
991 1 0.48311 0.10702 0
992 1 0.488673 0.130919 0
1050 1 0.0292914 0.13811 0
1079 1 0.024302 0.163035 0
1048 1 0.00907904 0.145749 0
1077 1 0.00396751 0.170105 0
151 1 0.0452156 0.157028 0
122 1 0.0656007 0.148402 0
152 1 0.0617224 0.173101 0
1080 1 0.0405651 0.181035 0
153 1 0.0819514 0.165005 0
123 1 0.0868428 0.140552 0
124 1 0.102151 0.156406 0
155 1 0.118519 0.174309 0
126 1 0.123055 0.150459 0
157 1 0.139157 0.166814 0
127 1 0.144497 0.142544 0
129 1 0.1651 0.13568 0
128 1 0.160624 0.161433 0
159 1 0.181248 0.151734 0
132 1 0.186966 0.174829 0
131 1 0.20269 0.155886 0
133 1 0.219434 0.139072 0
134 1 0.223221 0.163833 0
135 1 0.23888 0.147164 0
165 1 0.244363 0.17093 0
136 1 0.25927 0.152798 0
167 1 0.265102 0.177238 0
138 1 0.280648 0.159683 0
139 1 0.296318 0.14115 0
169 1 0.301131 0.165653 0
140 1 0.317729 0.147987 0
171 1 0.322559 0.172471 0
142 1 0.339503 0.152954 0
172 1 0.343266 0.177754 0
173 1 0.359912 0.159668 0
114 1 0.37381 0.140842 0
144 1 0.380108 0.165497 0
145 1 0.394618 0.1478 0
146 1 0.400355 0.173244 0
147 1 0.416078 0.154972 0
177 1 0.422259 0.178874 0
118 1 0.431146 0.136567 0
148 1 0.437151 0.160926 0
149 1 0.45232 0.143422 0
150 1 0.457203 0.167499 0
1051 1 0.478877 0.173875 0
1021 1 0.473516 0.149379 0
1022 1 0.494752 0.156598 0
1053 1 0.500359 0.180589 0
1107 1 0.0157714 0.210904 0
1078 1 0.0207053 0.187484 0
1109 1 0.0370565 0.210914 0
181 1 0.0563411 0.198166 0
182 1 0.0610059 0.22202 0
183 1 0.0770088 0.203841 0
154 1 0.0964435 0.183625 0
185 1 0.0979628 0.212755 0
156 1 0.115417 0.197764 0
186 1 0.120529 0.221589 0
158 1 0.136828 0.20366 0
160 1 0.152084 0.186546 0
187 1 0.141207 0.228883 0
189 1 0.157294 0.212136 0
161 1 0.172241 0.193654 0
191 1 0.177387 0.21896 0
162 1 0.192678 0.200749 0
163 1 0.207208 0.181618 0
192 1 0.198283 0.225133 0
193 1 0.213859 0.205903 0
164 1 0.228565 0.18745 0
195 1 0.234134 0.212147 0
166 1 0.249159 0.194989 0
196 1 0.255499 0.218307 0
168 1 0.286049 0.183806 0
197 1 0.27069 0.201139 0
199 1 0.292383 0.207784 0
198 1 0.276458 0.225393 0
170 1 0.306865 0.189502 0
200 1 0.313069 0.213536 0
201 1 0.328712 0.196331 0
202 1 0.334468 0.219423 0
174 1 0.364396 0.183849 0
203 1 0.349695 0.201939 0
204 1 0.37075 0.209078 0
175 1 0.384338 0.191228 0
205 1 0.391484 0.215605 0
176 1 0.405886 0.197173 0
207 1 0.412812 0.221434 0
179 1 0.442468 0.186011 0
178 1 0.42741 0.203852 0
209 1 0.447875 0.210596 0
180 1 0.462845 0.192443 0
1081 1 0.469249 0.216951 0
1052 1 0.485043 0.198676 0
1082 1 0.490644 0.222724 0
1140 1 0.0310805 0.257978 0
1110 1 0.0250049 0.232923 0
1108 1 0.0104388 0.250625 0
211 1 0.0459501 0.240508 0
212 1 0.0521046 0.2653 0
213 1 0.0664946 0.247668 0
243 1 0.0735601 0.2721 0
184 1 0.081694 0.229657 0
214 1 0.0876893 0.253379 0
215 1 0.103828 0.236569 0
216 1 0.10839 0.261565 0
217 1 0.124296 0.245537 0
218 1 0.130833 0.269257 0
188 1 0.147117 0.253503 0
190 1 0.161895 0.235941 0
220 1 0.167677 0.260943 0
221 1 0.183095 0.24301 0
222 1 0.188959 0.268212 0
223 1 0.203877 0.250196 0
194 1 0.219411 0.230864 0
224 1 0.224847 0.254714 0
253 1 0.210342 0.273055 0
225 1 0.240171 0.236806 0
226 1 0.246323 0.260705 0
227 1 0.26148 0.242902 0
257 1 0.267941 0.26706 0
228 1 0.283232 0.249523 0
229 1 0.297667 0.231481 0
230 1 0.303812 0.255602 0
231 1 0.319016 0.238003 0
261 1 0.324704 0.262648 0
232 1 0.339872 0.244865 0
263 1 0.345979 0.269534 0
233 1 0.355295 0.227364 0
234 1 0.361467 0.251231 0
235 1 0.376168 0.23304 0
265 1 0.381989 0.257168 0
206 1 0.397454 0.239678 0
236 1 0.403607 0.263847 0
237 1 0.418491 0.246434 0
208 1 0.432982 0.228844 0
239 1 0.439059 0.252308 0
238 1 0.424439 0.27073 0
210 1 0.454402 0.234528 0
240 1 0.459933 0.258582 0
1111 1 0.475085 0.241357 0
1112 1 0.480758 0.265435 0
1113 1 0.495973 0.247827 0
1138 1 0.000584031 0.293546 0
1139 1 0.015311 0.275427 0
1169 1 0.0208758 0.299939 0
241 1 0.0360588 0.283486 0
271 1 0.0416542 0.307167 0
242 1 0.0570892 0.289404 0
273 1 0.0616866 0.313844 0
244 1 0.0784078 0.297363 0
245 1 0.0939197 0.279672 0
246 1 0.0991896 0.30409 0
247 1 0.114227 0.285667 0
248 1 0.12001 0.311723 0
249 1 0.134691 0.293332 0
219 1 0.151801 0.277285 0
279 1 0.140777 0.317751 0
250 1 0.157256 0.302162 0
251 1 0.172325 0.285449 0
281 1 0.1785 0.308527 0
252 1 0.194445 0.291926 0
283 1 0.199401 0.316037 0
254 1 0.215767 0.298572 0
255 1 0.231121 0.279344 0
285 1 0.236687 0.303512 0
256 1 0.252324 0.284522 0
287 1 0.25741 0.308896 0
259 1 0.28881 0.274919 0
258 1 0.273213 0.292013 0
288 1 0.278537 0.315721 0
289 1 0.293958 0.298428 0
260 1 0.309283 0.280924 0
291 1 0.315542 0.30492 0
262 1 0.331091 0.287232 0
292 1 0.336582 0.312363 0
293 1 0.351646 0.293891 0
264 1 0.366671 0.275944 0
295 1 0.373317 0.300275 0
266 1 0.387814 0.281349 0
297 1 0.393724 0.306615 0
267 1 0.408739 0.288801 0
298 1 0.414307 0.312898 0
268 1 0.430349 0.294791 0
269 1 0.445235 0.27653 0
270 1 0.451338 0.301922 0
1141 1 0.465301 0.283784 0
300 1 0.471871 0.309199 0
1171 1 0.486444 0.290124 0
1172 1 0.492204 0.314799 0
1168 1 0.00469095 0.317835 0
1229 1 0.0310165 0.349081 0
1170 1 0.0262433 0.324287 0
1199 1 0.0105087 0.34161 0
1200 1 0.0466303 0.332325 0
301 1 0.0510875 0.356935 0
272 1 0.0681905 0.338993 0
275 1 0.083666 0.322195 0
274 1 0.0887444 0.345547 0
276 1 0.104689 0.328205 0
305 1 0.111085 0.352829 0
277 1 0.126235 0.335112 0
278 1 0.146574 0.342552 0
307 1 0.131933 0.360036 0
280 1 0.162432 0.326455 0
311 1 0.168674 0.350328 0
282 1 0.184035 0.332241 0
312 1 0.189369 0.356428 0
313 1 0.20542 0.339622 0
284 1 0.221677 0.321065 0
315 1 0.226806 0.3455 0
314 1 0.210212 0.363523 0
286 1 0.24319 0.328333 0
316 1 0.247895 0.35148 0
317 1 0.263824 0.334222 0
318 1 0.268541 0.358272 0
319 1 0.283707 0.341303 0
290 1 0.299475 0.322437 0
320 1 0.304995 0.347929 0
321 1 0.320437 0.330414 0
322 1 0.326312 0.354392 0
323 1 0.342229 0.336651 0
324 1 0.347316 0.360557 0
294 1 0.357624 0.317126 0
325 1 0.363031 0.342015 0
296 1 0.37806 0.325163 0
326 1 0.383204 0.349831 0
327 1 0.399499 0.332254 0
328 1 0.404434 0.356594 0
329 1 0.419893 0.338156 0
299 1 0.435758 0.320024 0
359 1 0.440612 0.344502 0
330 1 0.455894 0.327407 0
358 1 0.424881 0.362336 0
360 1 0.461515 0.351434 0
1202 1 0.497667 0.339621 0
1201 1 0.477352 0.332756 0
1231 1 0.482117 0.358208 0
1259 1 0.0164373 0.367094 0
1230 1 0.0376473 0.375192 0
1260 1 0.021184 0.391442 0
1258 1 0.000793326 0.384725 0
303 1 0.0739498 0.363605 0
331 1 0.0427328 0.39838 0
302 1 0.0592671 0.381121 0
332 1 0.0649426 0.405521 0
333 1 0.0797565 0.38867 0
304 1 0.0949805 0.37079 0
335 1 0.101168 0.394839 0
306 1 0.116483 0.376617 0
337 1 0.121848 0.402832 0
308 1 0.137407 0.384344 0
309 1 0.1526 0.366896 0
338 1 0.143416 0.409681 0
339 1 0.158651 0.391822 0
310 1 0.174285 0.3748 0
341 1 0.179525 0.39889 0
343 1 0.195664 0.381291 0
342 1 0.200484 0.406434 0
344 1 0.216259 0.38777 0
345 1 0.232367 0.369589 0
346 1 0.23713 0.394585 0
347 1 0.252761 0.376374 0
377 1 0.259203 0.400282 0
348 1 0.273581 0.382657 0
349 1 0.288839 0.365018 0
350 1 0.29483 0.388715 0
378 1 0.279587 0.407543 0
351 1 0.310691 0.371853 0
381 1 0.316099 0.396709 0
353 1 0.331447 0.378171 0
352 1 0.336053 0.40308 0
354 1 0.352396 0.385942 0
355 1 0.367529 0.367437 0
356 1 0.373111 0.393261 0
357 1 0.389205 0.372885 0
386 1 0.394127 0.39959 0
387 1 0.40889 0.380533 0
388 1 0.415078 0.40623 0
389 1 0.429919 0.386537 0
1232 1 0.445617 0.368275 0
1261 1 0.451367 0.393391 0
1262 1 0.467016 0.375863 0
1293 1 0.472414 0.400084 0
1263 1 0.488924 0.383098 0
1294 1 0.494803 0.406675 0
1289 1 0.0064177 0.409411 0
1319 1 0.0118537 0.434348 0
391 1 0.0326415 0.440909 0
1290 1 0.0277543 0.416264 0
361 1 0.0489789 0.422904 0
362 1 0.0535544 0.447281 0
363 1 0.0693727 0.430211 0
334 1 0.0853571 0.412212 0
365 1 0.0898143 0.436882 0
336 1 0.106618 0.419272 0
366 1 0.111234 0.444913 0
367 1 0.127608 0.427671 0
369 1 0.148658 0.43373 0
368 1 0.131752 0.451181 0
340 1 0.16362 0.416377 0
370 1 0.169286 0.4407 0
371 1 0.184683 0.423418 0
401 1 0.190693 0.447731 0
372 1 0.206559 0.429781 0
373 1 0.222065 0.412576 0
374 1 0.227792 0.436085 0
403 1 0.212516 0.454012 0
375 1 0.243254 0.418179 0
405 1 0.248979 0.443364 0
376 1 0.264278 0.425836 0
407 1 0.270381 0.449821 0
409 1 0.285005 0.43279 0
379 1 0.300271 0.413593 0
380 1 0.306119 0.438366 0
382 1 0.32177 0.420919 0
413 1 0.326573 0.445479 0
383 1 0.342132 0.4277 0
385 1 0.356914 0.410315 0
414 1 0.363388 0.434249 0
412 1 0.347795 0.452611 0
384 1 0.378307 0.416977 0
415 1 0.383886 0.440622 0
417 1 0.399295 0.422949 0
416 1 0.404556 0.447562 0
418 1 0.420772 0.43016 0
419 1 0.436195 0.411995 0
390 1 0.441459 0.435799 0
1291 1 0.457251 0.417123 0
447 1 0.42655 0.453954 0
1292 1 0.478414 0.424628 0
1321 1 0.462721 0.442046 0
1322 1 0.48347 0.449817 0
1320 1 0.0168964 0.458387 0
421 1 0.0222037 0.482733 0
392 1 0.037629 0.465662 0
1349 1 0.000615335 0.477141 0
364 1 0.0747636 0.453955 0
422 1 0.0438107 0.489679 0
393 1 0.0585374 0.471618 0
423 1 0.0645477 0.495637 0
394 1 0.0801341 0.478972 0
395 1 0.0953598 0.46157 0
396 1 0.101177 0.484817 0
397 1 0.116882 0.468903 0
427 1 0.121473 0.49363 0
398 1 0.137803 0.475023 0
399 1 0.153695 0.458648 0
429 1 0.159291 0.48306 0
400 1 0.175561 0.465395 0
431 1 0.180548 0.490288 0
402 1 0.197099 0.472853 0
432 1 0.202288 0.496866 0
433 1 0.218266 0.479219 0
404 1 0.234057 0.461296 0
435 1 0.239482 0.485737 0
406 1 0.255235 0.467717 0
436 1 0.260019 0.49349 0
439 1 0.281102 0.49947 0
408 1 0.275521 0.475994 0
410 1 0.290758 0.456388 0
441 1 0.296717 0.480507 0
411 1 0.311945 0.463225 0
440 1 0.317436 0.487847 0
442 1 0.332785 0.469837 0
471 1 0.337683 0.495617 0
473 1 0.35259 0.47797 0
443 1 0.367785 0.459346 0
444 1 0.373518 0.483707 0
445 1 0.388863 0.466169 0
475 1 0.395462 0.489897 0
446 1 0.410905 0.471341 0
477 1 0.416543 0.496163 0
449 1 0.4527 0.483862 0
448 1 0.431751 0.477757 0
420 1 0.447199 0.459804 0
1352 1 0.495725 0.49822 0
1351 1 0.474555 0.490518 0
450 1 0.467977 0.467138 0
1353 1 0.489815 0.473632 0
452 1 0.0343156 0.532163 0
451 1 0.0283587 0.506521 0
1380 1 0.0136743 0.524451 0
1350 1 0.00695262 0.501147 0
453 1 0.0488444 0.514395 0
454 1 0.0548876 0.539345 0
424 1 0.0700798 0.521099 0
425 1 0.0848853 0.503357 0
455 1 0.0908798 0.527965 0
426 1 0.106013 0.510748 0
456 1 0.112036 0.535045 0
457 1 0.127268 0.517559 0
459 1 0.148733 0.525201 0
458 1 0.133781 0.542922 0
428 1 0.142915 0.500354 0
430 1 0.16404 0.50759 0
460 1 0.169682 0.5314 0
461 1 0.1863 0.51408 0
462 1 0.191013 0.538863 0
463 1 0.206722 0.521064 0
434 1 0.22326 0.503755 0
464 1 0.228534 0.52747 0
465 1 0.244824 0.51061 0
466 1 0.249249 0.534715 0
437 1 0.26588 0.518515 0
497 1 0.270355 0.542743 0
467 1 0.287106 0.524636 0
438 1 0.301732 0.506628 0
468 1 0.307372 0.53112 0
469 1 0.32245 0.51288 0
499 1 0.328427 0.538173 0
470 1 0.343172 0.519722 0
503 1 0.364337 0.526271 0
501 1 0.349154 0.544424 0
474 1 0.379403 0.507765 0
472 1 0.358246 0.501482 0
505 1 0.385238 0.532361 0
476 1 0.40119 0.51485 0
506 1 0.40695 0.539816 0
507 1 0.421715 0.520913 0
480 1 0.44321 0.526656 0
478 1 0.437205 0.502439 0
479 1 0.458249 0.508301 0
510 1 0.464844 0.533581 0
1381 1 0.480514 0.515424 0
1411 1 0.485551 0.540469 0
481 1 0.0184225 0.54953 0
1410 1 0.0230077 0.574313 0
1408 1 0.00260779 0.567028 0
483 1 0.0396674 0.557771 0
485 1 0.0753988 0.545893 0
482 1 0.0451239 0.581523 0
513 1 0.0605923 0.564134 0
514 1 0.0665379 0.588972 0
484 1 0.0816107 0.570812 0
486 1 0.0970923 0.552581 0
515 1 0.102727 0.578281 0
487 1 0.118033 0.559913 0
517 1 0.123598 0.585482 0
488 1 0.139738 0.567498 0
489 1 0.154283 0.549188 0
490 1 0.160656 0.574716 0
491 1 0.175729 0.556018 0
521 1 0.181029 0.581984 0
493 1 0.212595 0.545273 0
492 1 0.196419 0.563009 0
523 1 0.202936 0.587542 0
494 1 0.217449 0.570626 0
495 1 0.233161 0.553069 0
525 1 0.23844 0.577804 0
496 1 0.253966 0.56025 0
526 1 0.260393 0.584244 0
527 1 0.275786 0.566707 0
498 1 0.292105 0.549719 0
529 1 0.296449 0.574113 0
528 1 0.281088 0.590963 0
500 1 0.312155 0.555879 0
530 1 0.317668 0.580076 0
531 1 0.333638 0.562939 0
532 1 0.339918 0.586968 0
533 1 0.355063 0.569293 0
502 1 0.37038 0.551065 0
534 1 0.376379 0.575452 0
504 1 0.390784 0.556317 0
535 1 0.397405 0.581082 0
508 1 0.412637 0.563594 0
537 1 0.417998 0.588004 0
509 1 0.428379 0.544609 0
539 1 0.433595 0.568966 0
540 1 0.449522 0.551824 0
569 1 0.454325 0.577435 0
1443 1 0.496502 0.590254 0
1442 1 0.475244 0.582986 0
1441 1 0.47044 0.558408 0
1412 1 0.491229 0.565625 0
511 1 0.0289663 0.599093 0
541 1 0.0350917 0.622462 0
1440 1 0.0120412 0.61608 0
1439 1 0.00672817 0.592499 0
512 1 0.0504345 0.605621 0
542 1 0.0558643 0.629443 0
543 1 0.0720012 0.613097 0
545 1 0.087915 0.595793 0
546 1 0.0932871 0.620829 0
516 1 0.108419 0.603299 0
547 1 0.114049 0.628442 0
518 1 0.128749 0.609843 0
519 1 0.144549 0.592078 0
548 1 0.150355 0.617069 0
577 1 0.13534 0.634546 0
520 1 0.165209 0.599923 0
549 1 0.171423 0.624192 0
522 1 0.186589 0.605858 0
551 1 0.192215 0.631102 0
553 1 0.207848 0.612094 0
524 1 0.223632 0.595476 0
554 1 0.228958 0.619502 0
555 1 0.244381 0.60194 0
556 1 0.250435 0.625405 0
557 1 0.266881 0.608499 0
558 1 0.287671 0.614872 0
587 1 0.271726 0.632946 0
559 1 0.302326 0.598232 0
560 1 0.307883 0.622005 0
561 1 0.323035 0.604216 0
591 1 0.329242 0.627806 0
562 1 0.344762 0.610664 0
563 1 0.360654 0.593071 0
565 1 0.366665 0.617516 0
564 1 0.350271 0.634214 0
536 1 0.38176 0.599154 0
566 1 0.38755 0.623169 0
567 1 0.402728 0.605794 0
597 1 0.408174 0.630272 0
568 1 0.423759 0.612615 0
538 1 0.438913 0.594318 0
600 1 0.444911 0.618443 0
570 1 0.460188 0.600754 0
1501 1 0.465822 0.625105 0
1471 1 0.480766 0.607784 0
1472 1 0.486685 0.632262 0
1470 1 0.0189455 0.641186 0
1500 1 0.0152209 0.666304 0
571 1 0.0400461 0.647108 0
572 1 0.0458959 0.670882 0
573 1 0.0609571 0.654025 0
544 1 0.0770925 0.638044 0
574 1 0.0815314 0.662567 0
575 1 0.0977716 0.645398 0
605 1 0.103009 0.670125 0
576 1 0.118619 0.651994 0
607 1 0.123727 0.676216 0
578 1 0.140068 0.658893 0
579 1 0.155793 0.641504 0
609 1 0.160867 0.665881 0
550 1 0.17627 0.648787 0
580 1 0.18227 0.672024 0
552 1 0.214085 0.637056 0
581 1 0.198282 0.654731 0
611 1 0.203856 0.678466 0
582 1 0.219604 0.661042 0
583 1 0.235376 0.64464 0
584 1 0.240168 0.668335 0
585 1 0.255595 0.650999 0
615 1 0.261715 0.675748 0
586 1 0.276512 0.657997 0
589 1 0.291974 0.640427 0
588 1 0.298717 0.663847 0
590 1 0.313987 0.645965 0
621 1 0.319293 0.670749 0
593 1 0.334547 0.653647 0
592 1 0.340378 0.676698 0
594 1 0.356014 0.659323 0
595 1 0.371153 0.641062 0
625 1 0.377318 0.665766 0
596 1 0.392649 0.647785 0
627 1 0.398041 0.672406 0
598 1 0.413941 0.65425 0
657 1 0.418945 0.679714 0
599 1 0.42949 0.636529 0
628 1 0.434686 0.661424 0
629 1 0.450192 0.644053 0
630 1 0.45494 0.668642 0
1503 1 0.491704 0.656366 0
1502 1 0.471129 0.6498 0
1533 1 0.476709 0.674092 0
1504 1 0.497534 0.681228 0
601 1 0.0297417 0.685081 0
631 1 0.0252914 0.708647 0
1530 1 0.00913684 0.691543 0
1560 1 0.00351131 0.715672 0
603 1 0.0654392 0.680402 0
602 1 0.0485489 0.699679 0
633 1 0.0702469 0.705823 0
632 1 0.041367 0.723456 0
604 1 0.0873385 0.68726 0
635 1 0.0917123 0.712766 0
606 1 0.10765 0.69538 0
636 1 0.112333 0.719595 0
637 1 0.128829 0.701371 0
608 1 0.144605 0.68349 0
638 1 0.150043 0.707557 0
667 1 0.133611 0.725217 0
639 1 0.166421 0.690267 0
641 1 0.173249 0.714698 0
610 1 0.187672 0.695659 0
642 1 0.194207 0.720781 0
612 1 0.209566 0.703142 0
613 1 0.22514 0.685634 0
643 1 0.230348 0.710081 0
614 1 0.246639 0.693756 0
645 1 0.251624 0.717869 0
616 1 0.267816 0.699961 0
617 1 0.282798 0.682015 0
647 1 0.272583 0.723469 0
618 1 0.288387 0.705963 0
619 1 0.303964 0.688379 0
620 1 0.309635 0.712177 0
622 1 0.325654 0.694613 0
651 1 0.330874 0.718716 0
623 1 0.362054 0.683644 0
653 1 0.346688 0.700999 0
624 1 0.367691 0.709259 0
626 1 0.382712 0.691009 0
655 1 0.38854 0.715583 0
656 1 0.403398 0.697779 0
686 1 0.409179 0.721802 0
658 1 0.425415 0.704104 0
659 1 0.439532 0.685972 0
660 1 0.445826 0.711033 0
1531 1 0.46166 0.692922 0
1561 1 0.467333 0.717764 0
1532 1 0.483139 0.698387 0
1563 1 0.488252 0.723477 0
663 1 0.0355377 0.748567 0
661 1 0.0198796 0.731554 0
1590 1 0.0137522 0.756174 0
662 1 0.0520198 0.765244 0
664 1 0.056275 0.740965 0
695 1 0.0725116 0.757165 0
634 1 0.0759174 0.730393 0
665 1 0.0966725 0.737914 0
697 1 0.10412 0.763703 0
666 1 0.118803 0.743014 0
668 1 0.125468 0.765651 0
669 1 0.141581 0.7494 0
640 1 0.155715 0.731232 0
670 1 0.16271 0.755245 0
671 1 0.178513 0.738787 0
672 1 0.18482 0.762542 0
644 1 0.214781 0.727856 0
673 1 0.199436 0.745292 0
703 1 0.205081 0.77046 0
674 1 0.220864 0.751903 0
675 1 0.236107 0.734343 0
705 1 0.241929 0.760214 0
646 1 0.256947 0.741752 0
677 1 0.263353 0.766638 0
648 1 0.278179 0.747965 0
649 1 0.293656 0.730323 0
679 1 0.300128 0.755211 0
650 1 0.315553 0.73632 0
681 1 0.320585 0.761509 0
652 1 0.335957 0.743935 0
682 1 0.341994 0.768957 0
654 1 0.351884 0.726367 0
683 1 0.35749 0.750703 0
685 1 0.372912 0.734097 0
684 1 0.378251 0.758138 0
715 1 0.39398 0.740326 0
714 1 0.399928 0.764288 0
717 1 0.415166 0.746401 0
716 1 0.420732 0.771779 0
687 1 0.430774 0.728277 0
688 1 0.435772 0.752881 0
689 1 0.451725 0.735227 0
719 1 0.457675 0.75995 0
690 1 0.473498 0.740849 0
1591 1 0.478281 0.764944 0
1562 1 0.494767 0.747616 0
691 1 0.0297731 0.772829 0
721 1 0.0245626 0.797079 0
1620 1 0.00854269 0.781587 0
1649 1 0.00302363 0.805315 0
693 1 0.0452809 0.789668 0
723 1 0.0610965 0.807476 0
694 1 0.0659364 0.782553 0
692 1 0.0401213 0.815441 0
725 1 0.0815184 0.799885 0
696 1 0.0861063 0.775565 0
727 1 0.102709 0.792324 0
728 1 0.117037 0.811548 0
698 1 0.125059 0.789128 0
699 1 0.146984 0.773996 0
700 1 0.137949 0.808389 0
731 1 0.155773 0.797108 0
701 1 0.169175 0.778651 0
702 1 0.188444 0.789307 0
732 1 0.174288 0.807306 0
763 1 0.195558 0.813346 0
733 1 0.210294 0.795726 0
704 1 0.226297 0.777198 0
706 1 0.231841 0.801979 0
676 1 0.247719 0.784318 0
737 1 0.252725 0.808616 0
707 1 0.268862 0.791249 0
678 1 0.284694 0.772743 0
738 1 0.274328 0.815328 0
708 1 0.289817 0.797417 0
709 1 0.305046 0.780507 0
710 1 0.311021 0.804559 0
680 1 0.326536 0.786149 0
741 1 0.332456 0.810319 0
713 1 0.36354 0.774953 0
711 1 0.347483 0.793112 0
712 1 0.368818 0.799146 0
742 1 0.353523 0.817294 0
743 1 0.384693 0.781991 0
745 1 0.389371 0.806429 0
746 1 0.405209 0.789333 0
775 1 0.411278 0.81271 0
718 1 0.441593 0.777727 0
747 1 0.427662 0.795444 0
749 1 0.449143 0.801618 0
720 1 0.464317 0.783838 0
1621 1 0.469865 0.807908 0
1592 1 0.484859 0.789611 0
1622 1 0.490924 0.814432 0
1680 1 0.0349946 0.840662 0
1650 1 0.0182796 0.822935 0
1709 1 0.0137291 0.847144 0
781 1 0.0290378 0.864422 0
752 1 0.0500606 0.857394 0
751 1 0.0552598 0.832473 0
753 1 0.0716808 0.850432 0
722 1 0.0762077 0.825911 0
726 1 0.0968497 0.817606 0
724 1 0.0924811 0.842626 0
757 1 0.113334 0.837272 0
755 1 0.107404 0.860975 0
756 1 0.128509 0.85537 0
729 1 0.135035 0.832197 0
759 1 0.151629 0.848151 0
730 1 0.156139 0.822825 0
761 1 0.179706 0.833017 0
792 1 0.186279 0.856824 0
735 1 0.215706 0.819936 0
762 1 0.20139 0.838344 0
734 1 0.223071 0.84436 0
764 1 0.207678 0.862249 0
736 1 0.238081 0.827362 0
765 1 0.244602 0.851213 0
767 1 0.259145 0.83339 0
766 1 0.265006 0.857669 0
768 1 0.279718 0.839499 0
739 1 0.295542 0.822323 0
769 1 0.301823 0.846642 0
740 1 0.316661 0.828407 0
770 1 0.324216 0.854004 0
771 1 0.338112 0.834671 0
801 1 0.34412 0.859745 0
773 1 0.35927 0.842317 0
744 1 0.374677 0.825081 0
803 1 0.380716 0.849252 0
774 1 0.395338 0.831355 0
776 1 0.401737 0.855536 0
777 1 0.416901 0.836322 0
748 1 0.432688 0.819 0
778 1 0.423126 0.861912 0
779 1 0.438219 0.843696 0
750 1 0.454111 0.825342 0
780 1 0.460022 0.850777 0
1651 1 0.475218 0.833053 0
1652 1 0.481324 0.857372 0
1653 1 0.496361 0.838285 0
1710 1 0.00883724 0.871565 0
811 1 0.0240845 0.888301 0
1739 1 0.00259655 0.895178 0
812 1 0.0387686 0.905837 0
782 1 0.0448436 0.88181 0
813 1 0.0596926 0.899958 0
783 1 0.0657527 0.874753 0
784 1 0.0799282 0.892914 0
754 1 0.0861686 0.86759 0
785 1 0.101561 0.885485 0
786 1 0.117184 0.902578 0
787 1 0.122793 0.878742 0
788 1 0.137965 0.895445 0
758 1 0.144435 0.871393 0
760 1 0.166567 0.865011 0
789 1 0.161182 0.888252 0
791 1 0.182731 0.881486 0
790 1 0.176034 0.905664 0
823 1 0.197289 0.900011 0
793 1 0.215433 0.887013 0
795 1 0.229842 0.868429 0
794 1 0.235844 0.894316 0
796 1 0.250809 0.87632 0
825 1 0.257123 0.900442 0
797 1 0.285714 0.86398 0
827 1 0.271668 0.882926 0
826 1 0.278182 0.908036 0
798 1 0.292484 0.889452 0
799 1 0.307915 0.870151 0
829 1 0.314969 0.895797 0
800 1 0.329482 0.877718 0
831 1 0.335335 0.902139 0
802 1 0.35055 0.884271 0
772 1 0.364857 0.866863 0
804 1 0.371884 0.890816 0
833 1 0.35722 0.90842 0
805 1 0.386761 0.872817 0
806 1 0.393121 0.897646 0
807 1 0.408177 0.879875 0
837 1 0.414796 0.904202 0
809 1 0.445166 0.868582 0
808 1 0.429323 0.886592 0
810 1 0.450825 0.893046 0
1681 1 0.466315 0.875019 0
1711 1 0.472232 0.899764 0
1682 1 0.486761 0.88143 0
1713 1 0.493303 0.905341 0
841 1 0.0331631 0.930391 0
1740 1 0.0178855 0.912877 0
1769 1 0.0127298 0.937194 0
1770 1 0.0284786 0.954995 0
842 1 0.0495292 0.948011 0
843 1 0.0545526 0.923882 0
844 1 0.0706281 0.940646 0
814 1 0.0749884 0.917175 0
815 1 0.096253 0.909167 0
845 1 0.0919116 0.933513 0
816 1 0.112338 0.926274 0
846 1 0.106859 0.951461 0
847 1 0.127579 0.944445 0
817 1 0.132903 0.920499 0
818 1 0.148725 0.937888 0
819 1 0.154173 0.912445 0
820 1 0.169393 0.929232 0
851 1 0.185489 0.947688 0
821 1 0.191075 0.9233 0
822 1 0.206695 0.940474 0
824 1 0.219532 0.912023 0
853 1 0.227654 0.935167 0
855 1 0.24224 0.91781 0
854 1 0.248354 0.942966 0
856 1 0.263301 0.924684 0
885 1 0.270095 0.949465 0
857 1 0.284573 0.932439 0
828 1 0.299774 0.915017 0
859 1 0.305492 0.939476 0
830 1 0.32034 0.920108 0
860 1 0.326817 0.944355 0
832 1 0.341904 0.926186 0
863 1 0.36342 0.93327 0
861 1 0.348031 0.950981 0
834 1 0.378724 0.915716 0
865 1 0.385104 0.939511 0
835 1 0.399925 0.921681 0
836 1 0.40543 0.947542 0
838 1 0.420728 0.928989 0
839 1 0.435672 0.911225 0
869 1 0.441206 0.935914 0
840 1 0.456589 0.917645 0
867 1 0.426333 0.953103 0
1743 1 0.498612 0.931144 0
1712 1 0.478609 0.923598 0
1741 1 0.463154 0.941734 0
1742 1 0.483051 0.947811 0
1799 1 0.00848102 0.962692 0
1800 1 0.0235824 0.979904 0
1798 1 0.00276563 0.985838 0
1 1 0.0385721 0.996837 0
871 1 0.0444801 0.972201 0
872 1 0.0594509 0.98945 0
873 1 0.065138 0.965487 0
874 1 0.0801576 0.981943 0
875 1 0.0863482 0.958041 0
876 1 0.101435 0.975347 0
7 1 0.116243 0.993834 0
877 1 0.122368 0.968559 0
878 1 0.137695 0.985644 0
848 1 0.143466 0.961431 0
849 1 0.164383 0.954512 0
879 1 0.159445 0.978609 0
850 1 0.179965 0.972811 0
881 1 0.174753 0.996238 0
11 1 0.196846 0.989088 0
852 1 0.201803 0.96492 0
883 1 0.223124 0.959131 0
882 1 0.216901 0.982616 0
884 1 0.237082 0.978113 0
886 1 0.255965 0.967643 0
16 1 0.256426 0.993623 0
887 1 0.290461 0.957209 0
17 1 0.27577 0.974932 0
888 1 0.297655 0.9803 0
18 1 0.283455 0.999367 0
858 1 0.312285 0.96259 0
889 1 0.318352 0.987633 0
891 1 0.333742 0.968953 0
890 1 0.339564 0.993635 0
862 1 0.354348 0.975288 0
864 1 0.370104 0.957004 0
893 1 0.375548 0.982099 0
895 1 0.389828 0.964905 0
896 1 0.396743 0.989794 0
866 1 0.411433 0.971909 0
897 1 0.418266 0.996953 0
868 1 0.433195 0.978181 0
899 1 0.453642 0.984436 0
870 1 0.447565 0.959731 0
1771 1 0.469434 0.966212 0
1773 1 0.489369 0.973823 0
1772 1 0.474672 0.990387 0
903 1 0.49537 0.997889 0
1593 1 0.499754 0.771821 0
892 1 0.359974 0.999386 0
902 1 0.501929 0.021973 0
904 1 0.523019 0.0275294 0
905 1 0.516505 0.00325895 0
906 1 0.53824 0.010082 0
935 1 0.543863 0.0351583 0
908 1 0.559394 0.0171019 0
937 1 0.564572 0.0417459 0
939 1 0.580101 0.0223331 0
940 1 0.601331 0.0270908 0
941 1 0.594667 0.00415999 0
942 1 0.761022 0.0232483 0
1379 1 0.986053 0.495359 0
944 1 0.776706 0.0404781 0
943 1 0.78196 0.0161263 0
945 1 0.798816 0.032444 0
914 1 0.803031 0.00841846 0
947 1 0.818774 0.0263704 0
918 1 0.840175 0.0186374 0
916 1 0.824289 0.00220409 0
948 1 0.834897 0.0427087 0
949 1 0.855964 0.0359183 0
919 1 0.861474 0.012281 0
920 1 0.877236 0.0291582 0
1790 1 0.882115 0.00471365 0
951 1 0.898448 0.022134 0
922 1 0.918583 0.0154745 0
952 1 0.91417 0.0408504 0
953 1 0.934462 0.0331978 0
924 1 0.939683 0.00853425 0
955 1 0.955241 0.0263488 0
925 1 0.961485 0.000765985 0
926 1 0.976991 0.0188402 0
957 1 0.992659 0.0361741 0
928 1 0.997469 0.0109299 0
956 1 0.970594 0.0428108 0
933 1 0.507427 0.0461729 0
963 1 0.514049 0.0716139 0
934 1 0.528676 0.0526439 0
965 1 0.535154 0.0780302 0
936 1 0.549337 0.0595333 0
966 1 0.55602 0.0840688 0
967 1 0.570777 0.0657795 0
938 1 0.586843 0.0465402 0
969 1 0.591877 0.0715691 0
971 1 0.755532 0.047335 0
970 1 0.751407 0.0711596 0
972 1 0.766858 0.0885015 0
973 1 0.772457 0.0652328 0
975 1 0.793241 0.0576778 0
1003 1 0.787806 0.0827499 0
974 1 0.808837 0.0756126 0
946 1 0.813281 0.0497219 0
976 1 0.82986 0.0676018 0
1007 1 0.845629 0.0841994 0
977 1 0.851052 0.0608551 0
979 1 0.872541 0.0538741 0
978 1 0.866183 0.0789541 0
980 1 0.887627 0.0715715 0
950 1 0.893476 0.0465568 0
981 1 0.908418 0.0649046 0
1011 1 0.903711 0.0891008 0
982 1 0.924528 0.0816471 0
983 1 0.929223 0.0575221 0
984 1 0.945498 0.0746008 0
954 1 0.949838 0.0502612 0
985 1 0.966275 0.0682675 0
987 1 0.986593 0.0609206 0
986 1 0.982798 0.0852732 0
964 1 0.519756 0.0957291 0
993 1 0.503945 0.11402 0
994 1 0.525026 0.120843 0
995 1 0.54062 0.102028 0
996 1 0.546138 0.126958 0
997 1 0.562219 0.108576 0
1027 1 0.567928 0.134157 0
968 1 0.576774 0.0906357 0
998 1 0.582584 0.116441 0
1000 1 0.604853 0.125134 0
1030 1 0.625931 0.132481 0
999 1 0.641675 0.114945 0
1001 1 0.661224 0.123014 0
1002 1 0.682678 0.128714 0
1033 1 0.782591 0.106367 0
1065 1 0.798577 0.124723 0
1004 1 0.803617 0.0999669 0
1005 1 0.824472 0.0933962 0
1035 1 0.819492 0.117776 0
1006 1 0.839912 0.109531 0
1037 1 0.856163 0.127239 0
1008 1 0.861189 0.102875 0
1039 1 0.877147 0.120645 0
1009 1 0.882342 0.0961335 0
1010 1 0.898553 0.113118 0
1012 1 0.919697 0.10679 0
1041 1 0.915052 0.131868 0
1015 1 0.961443 0.0922333 0
1043 1 0.93575 0.124143 0