ITEM: TIMESTEP
94000
ITEM: NUMBER OF ATOMS
1800
ITEM: BOX BOUNDS pp pp pp
-2.6028631974772609e+00 1.6760286319747917e+02
1.1826529217466231e+00 1.6381734707825530e+02
0.0000000000000000e+00 5.5000000000000000e+00
ITEM: ATOMS id type xs ys zs
2 1 0.0249516 0.0138611 0
31 1 0.0173135 0.0395711 0
930 1 0.000899742 0.0210181 0
33 1 0.0412633 0.032353 0
3 1 0.048374 0.0068415 0
4 1 0.0649504 0.0256645 0
35 1 0.082183 0.0426956 0
5 1 0.0710915 6.59918e-05 0
6 1 0.0878829 0.0180881 0
8 1 0.112561 0.0111227 0
37 1 0.105782 0.0356681 0
39 1 0.129515 0.0282803 0
880 1 0.135772 0.00436828 0
9 1 0.152633 0.0213091 0
40 1 0.16933 0.0393436 0
10 1 0.175374 0.0154626 0
41 1 0.192453 0.0329656 0
12 1 0.198246 0.00736884 0
14 1 0.214413 0.0259368 0
15 1 0.237257 0.0196545 0
45 1 0.234191 0.0442791 0
13 1 0.220864 0.000700084 0
16 1 0.259483 0.0117051 0
46 1 0.257462 0.037304 0
47 1 0.284089 0.0334688 0
18 1 0.282726 0.00872705 0
49 1 0.312835 0.0365813 0
19 1 0.305599 0.0130241 0
20 1 0.328318 0.0178097 0
21 1 0.351121 0.0227396 0
51 1 0.334896 0.0419935 0
892 1 0.366743 0.00420104 0
23 1 0.374367 0.0283487 0
894 1 0.390509 0.0104148 0
24 1 0.397556 0.0341505 0
25 1 0.414205 0.0167785 0
27 1 0.437694 0.0218109 0
26 1 0.421625 0.0405197 0
898 1 0.453534 0.00368869 0
29 1 0.460832 0.0279766 0
900 1 0.47717 0.00968272 0
30 1 0.485707 0.0345011 0
990 1 0.0064845 0.0881812 0
32 1 0.0350338 0.0566872 0
62 1 0.0301692 0.081372 0
61 1 0.0121718 0.0636426 0
63 1 0.0537412 0.0730202 0
34 1 0.0591427 0.0495126 0
65 1 0.0762653 0.067481 0
64 1 0.0694312 0.0915405 0
66 1 0.0944007 0.0846548 0
36 1 0.100004 0.0601649 0
38 1 0.123565 0.0530093 0
67 1 0.118123 0.0775684 0
69 1 0.146311 0.0465777 0
68 1 0.140603 0.0701851 0
71 1 0.164178 0.0647902 0
70 1 0.15906 0.0885628 0
72 1 0.181754 0.0815639 0
42 1 0.187372 0.0573048 0
73 1 0.205175 0.0746392 0
43 1 0.210966 0.0510647 0
44 1 0.227933 0.0683562 0
74 1 0.245987 0.0861941 0
75 1 0.251089 0.0619147 0
76 1 0.268872 0.0803864 0
77 1 0.273431 0.0556089 0
48 1 0.296956 0.0548443 0
79 1 0.302728 0.0786457 0
50 1 0.319967 0.0619153 0
81 1 0.327212 0.085647 0
22 1 0.358302 0.0469238 0
52 1 0.34376 0.0659989 0
83 1 0.365697 0.0721899 0
82 1 0.350506 0.0907787 0
53 1 0.382211 0.0537986 0
54 1 0.389371 0.0775918 0
55 1 0.405133 0.0593029 0
56 1 0.412117 0.0840921 0
28 1 0.445563 0.0474645 0
57 1 0.428982 0.0657214 0
58 1 0.452085 0.0729607 0
87 1 0.435834 0.0904691 0
1111 1 0.501091 0.244308 0
59 1 0.468486 0.0536848 0
89 1 0.475867 0.0779152 0
60 1 0.491999 0.0597014 0
91 1 0.0243876 0.105668 0
121 1 0.0194396 0.130507 0
1020 1 0.000566488 0.113239 0
92 1 0.0413789 0.123553 0
93 1 0.0483343 0.0992002 0
94 1 0.0649653 0.116678 0
125 1 0.0816802 0.133393 0
95 1 0.0875402 0.109051 0
96 1 0.105141 0.125748 0
97 1 0.11245 0.102283 0
98 1 0.129968 0.12052 0
99 1 0.136359 0.0953814 0
100 1 0.152852 0.113012 0
129 1 0.148055 0.137296 0
130 1 0.170646 0.130956 0
101 1 0.175979 0.107061 0
103 1 0.199047 0.0991438 0
102 1 0.193522 0.124803 0
104 1 0.21583 0.116657 0
105 1 0.222924 0.0929837 0
106 1 0.239986 0.110391 0
137 1 0.255251 0.129821 0
107 1 0.264206 0.106726 0
78 1 0.287437 0.0967956 0
109 1 0.29313 0.12009 0
80 1 0.310832 0.103231 0
110 1 0.316467 0.127025 0
111 1 0.333829 0.10965 0
141 1 0.34043 0.133057 0
113 1 0.356886 0.114243 0
84 1 0.373757 0.0959607 0
112 1 0.380376 0.120845 0
85 1 0.396494 0.102544 0
115 1 0.404092 0.1281 0
86 1 0.419106 0.108514 0
116 1 0.42693 0.132409 0
117 1 0.443278 0.113894 0
88 1 0.46052 0.0955586 0
119 1 0.466122 0.120012 0
90 1 0.483142 0.103192 0
120 1 0.490653 0.126751 0
1080 1 0.00777688 0.179817 0
122 1 0.0369582 0.150131 0
152 1 0.032215 0.174502 0
151 1 0.0131936 0.155303 0
153 1 0.0554362 0.167535 0
123 1 0.058793 0.140777 0
124 1 0.076412 0.157836 0
155 1 0.0936258 0.173507 0
126 1 0.10076 0.150721 0
127 1 0.123199 0.145058 0
157 1 0.117893 0.171554 0
128 1 0.140216 0.161252 0
159 1 0.164377 0.155418 0
131 1 0.18856 0.150245 0
132 1 0.179653 0.174591 0
163 1 0.202309 0.182389 0
135 1 0.2372 0.147216 0
133 1 0.21235 0.141618 0
134 1 0.220588 0.165636 0
165 1 0.243389 0.171392 0
108 1 0.277033 0.137456 0
136 1 0.261397 0.155064 0
138 1 0.283357 0.162638 0
167 1 0.265672 0.179211 0
139 1 0.299915 0.144252 0
169 1 0.305995 0.168641 0
140 1 0.322742 0.151987 0
171 1 0.330421 0.176066 0
143 1 0.363202 0.139509 0
142 1 0.347152 0.158029 0
173 1 0.370028 0.16425 0
114 1 0.38702 0.145424 0
144 1 0.393881 0.170182 0
145 1 0.411049 0.151405 0
146 1 0.416415 0.176186 0
118 1 0.449596 0.139524 0
147 1 0.43363 0.157472 0
148 1 0.457206 0.163683 0
149 1 0.473759 0.145133 0
150 1 0.480579 0.169673 0
1021 1 0.497323 0.151531 0
181 1 0.0236986 0.199059 0
182 1 0.0393208 0.217639 0
183 1 0.0495015 0.192584 0
154 1 0.0731722 0.185868 0
184 1 0.0614355 0.226918 0
185 1 0.0796218 0.21083 0
186 1 0.104406 0.22073 0
156 1 0.0989141 0.197077 0
158 1 0.121884 0.203239 0
160 1 0.138222 0.185818 0
189 1 0.144502 0.21059 0
161 1 0.161528 0.191363 0
187 1 0.127108 0.227784 0
191 1 0.168202 0.217034 0
162 1 0.185418 0.200152 0
192 1 0.191021 0.224782 0
193 1 0.207742 0.206433 0
164 1 0.225782 0.190705 0
195 1 0.231421 0.21465 0
166 1 0.248865 0.196816 0
196 1 0.253647 0.220833 0
197 1 0.270913 0.204364 0
168 1 0.2886 0.187355 0
199 1 0.295005 0.210363 0
170 1 0.312958 0.19402 0
200 1 0.318686 0.217939 0
172 1 0.352676 0.18342 0
201 1 0.335832 0.200893 0
202 1 0.340843 0.224567 0
203 1 0.359498 0.207543 0
174 1 0.376355 0.188657 0
204 1 0.382118 0.212751 0
175 1 0.39931 0.19435 0
205 1 0.405652 0.21981 0
177 1 0.439964 0.18304 0
176 1 0.422465 0.200502 0
207 1 0.42902 0.225102 0
178 1 0.445807 0.2071 0
179 1 0.463323 0.187963 0
209 1 0.471068 0.212648 0
180 1 0.487828 0.195043 0
1081 1 0.493871 0.219632 0
212 1 0.0273746 0.260932 0
211 1 0.0213085 0.235284 0
1140 1 0.00421297 0.252013 0
213 1 0.0440353 0.243444 0
243 1 0.0496524 0.267958 0
214 1 0.0675212 0.251796 0
215 1 0.0851524 0.235522 0
216 1 0.0901298 0.260848 0
217 1 0.108253 0.244808 0
218 1 0.114174 0.269009 0
188 1 0.131934 0.252151 0
190 1 0.150323 0.23531 0
220 1 0.156024 0.259227 0
221 1 0.173794 0.241441 0
222 1 0.179931 0.266894 0
223 1 0.197142 0.248935 0
194 1 0.214049 0.23202 0
224 1 0.220978 0.256948 0
225 1 0.23744 0.238504 0
226 1 0.243991 0.264362 0
198 1 0.277366 0.228608 0
227 1 0.260832 0.246812 0
228 1 0.284399 0.253434 0
257 1 0.267124 0.271155 0
229 1 0.301548 0.235557 0
230 1 0.307405 0.260108 0
231 1 0.324101 0.242328 0
261 1 0.331201 0.267686 0
233 1 0.364634 0.231029 0
232 1 0.348095 0.250097 0
234 1 0.371609 0.255827 0
235 1 0.388478 0.238137 0
265 1 0.395504 0.262899 0
206 1 0.412641 0.243567 0
237 1 0.435956 0.249038 0
236 1 0.41981 0.267428 0
208 1 0.452967 0.231637 0
210 1 0.477019 0.237966 0
239 1 0.459967 0.255816 0
240 1 0.484983 0.262739 0
241 1 0.00882544 0.276021 0
242 1 0.031565 0.284847 0
271 1 0.0129897 0.300283 0
273 1 0.0363051 0.310152 0
245 1 0.0720044 0.276475 0
244 1 0.0540255 0.29264 0
246 1 0.0783233 0.300739 0
275 1 0.0599647 0.31703 0
247 1 0.0957374 0.284297 0
249 1 0.119766 0.293026 0
248 1 0.101479 0.308661 0
279 1 0.125829 0.316233 0
219 1 0.137819 0.276355 0
251 1 0.162279 0.283964 0
250 1 0.143573 0.300324 0
281 1 0.167224 0.307813 0
253 1 0.203037 0.273783 0
252 1 0.185762 0.290926 0
283 1 0.190825 0.314665 0
254 1 0.209839 0.298432 0
255 1 0.226657 0.281594 0
285 1 0.232888 0.306657 0
256 1 0.250959 0.289838 0
287 1 0.256127 0.313979 0
258 1 0.273645 0.295885 0
259 1 0.290003 0.277522 0
289 1 0.296752 0.30248 0
260 1 0.314104 0.285134 0
291 1 0.321595 0.308621 0
263 1 0.355641 0.273962 0
262 1 0.338145 0.291142 0
293 1 0.361793 0.298413 0
292 1 0.345247 0.316638 0
264 1 0.378385 0.28037 0
295 1 0.385821 0.304205 0
266 1 0.403447 0.286219 0
297 1 0.409384 0.310905 0
238 1 0.444354 0.275516 0
267 1 0.426931 0.292006 0
268 1 0.451018 0.298641 0
298 1 0.432518 0.316183 0
269 1 0.467368 0.280125 0
270 1 0.473928 0.305324 0
1141 1 0.490059 0.28738 0
300 1 0.497097 0.311636 0
1293 1 0.500055 0.402677 0
1200 1 0.0189142 0.326257 0
301 1 0.0235983 0.350357 0
272 1 0.0425783 0.334023 0
303 1 0.0469833 0.359048 0
274 1 0.0656704 0.340772 0
276 1 0.0838611 0.325743 0
305 1 0.0886229 0.349594 0
277 1 0.106687 0.332647 0
307 1 0.111718 0.357498 0
278 1 0.130171 0.341352 0
280 1 0.14939 0.324276 0
311 1 0.153712 0.348524 0
282 1 0.172521 0.331721 0
312 1 0.177868 0.355779 0
313 1 0.194865 0.339416 0
284 1 0.214103 0.321994 0
315 1 0.217708 0.346701 0
286 1 0.236522 0.331193 0
316 1 0.243081 0.354314 0
288 1 0.280222 0.32039 0
317 1 0.261568 0.337505 0
319 1 0.285193 0.344695 0
318 1 0.267178 0.360713 0
290 1 0.30374 0.325972 0
320 1 0.307587 0.350915 0
321 1 0.326791 0.333577 0
322 1 0.332563 0.358131 0
323 1 0.35155 0.341328 0
294 1 0.368954 0.322548 0
325 1 0.374947 0.346716 0
296 1 0.391764 0.328651 0
326 1 0.398021 0.35413 0
327 1 0.415397 0.335453 0
329 1 0.439457 0.340905 0
328 1 0.421441 0.35997 0
299 1 0.456727 0.323251 0
359 1 0.462052 0.347242 0
330 1 0.47968 0.329525 0
360 1 0.486046 0.354537 0
1230 1 0.0050722 0.367133 0
302 1 0.0284388 0.375324 0
332 1 0.0336956 0.398885 0
331 1 0.0096661 0.391833 0
304 1 0.0705771 0.366379 0
333 1 0.0531536 0.382985 0
335 1 0.0762923 0.391062 0
334 1 0.0576451 0.407025 0
306 1 0.093596 0.373534 0
308 1 0.117389 0.381742 0
337 1 0.0994896 0.397719 0
338 1 0.122065 0.405137 0
309 1 0.136075 0.365749 0
310 1 0.159946 0.372481 0
339 1 0.140664 0.390379 0
341 1 0.163518 0.397337 0
314 1 0.199762 0.363577 0
343 1 0.182648 0.38123 0
342 1 0.189306 0.405186 0
344 1 0.206093 0.387353 0
345 1 0.225112 0.370373 0
346 1 0.231726 0.395245 0
347 1 0.249097 0.378218 0
377 1 0.254391 0.402861 0
348 1 0.272586 0.385743 0
349 1 0.290574 0.368476 0
350 1 0.295111 0.392876 0
351 1 0.313965 0.375715 0
381 1 0.319341 0.400205 0
324 1 0.356079 0.366564 0
353 1 0.337524 0.382958 0
354 1 0.362105 0.389995 0
355 1 0.380322 0.371828 0
356 1 0.38733 0.397038 0
357 1 0.40377 0.378005 0
386 1 0.410765 0.402296 0
358 1 0.445593 0.365604 0
387 1 0.427624 0.38438 0
389 1 0.451346 0.390029 0
388 1 0.433582 0.408045 0
1232 1 0.468084 0.371459 0
1262 1 0.491542 0.378018 0
1261 1 0.474519 0.396668 0
361 1 0.0158106 0.415168 0
362 1 0.0208413 0.440408 0
363 1 0.0382291 0.423494 0
364 1 0.0445759 0.446947 0
365 1 0.0632917 0.43088 0
336 1 0.0821152 0.41473 0
366 1 0.0871201 0.438692 0
367 1 0.105204 0.42245 0
368 1 0.109437 0.447171 0
369 1 0.127488 0.429779 0
340 1 0.146008 0.413623 0
370 1 0.151368 0.437167 0
399 1 0.133598 0.454622 0
371 1 0.169541 0.420812 0
401 1 0.176983 0.444704 0
372 1 0.195171 0.429005 0
403 1 0.200503 0.452926 0
373 1 0.212863 0.411992 0
374 1 0.218908 0.436597 0
375 1 0.236752 0.41987 0
405 1 0.24203 0.444649 0
378 1 0.278062 0.411118 0
376 1 0.261518 0.429266 0
409 1 0.284529 0.436183 0
407 1 0.266119 0.454416 0
379 1 0.301549 0.418162 0
380 1 0.308058 0.443398 0
382 1 0.325361 0.425962 0
413 1 0.33206 0.450035 0
352 1 0.344881 0.406951 0
383 1 0.34966 0.431836 0
385 1 0.369098 0.413922 0
414 1 0.373461 0.439218 0
384 1 0.393914 0.421559 0
415 1 0.399326 0.446094 0
417 1 0.416933 0.42686 0
418 1 0.441257 0.432318 0
416 1 0.423711 0.450887 0
419 1 0.458097 0.414523 0
390 1 0.465734 0.437982 0
1291 1 0.482475 0.419208 0
1321 1 0.488378 0.444177 0
392 1 0.00217413 0.457227 0
393 1 0.0258651 0.465426 0
422 1 0.00738641 0.482378 0
423 1 0.0319717 0.489839 0
395 1 0.0671415 0.455369 0
394 1 0.0492989 0.472544 0
396 1 0.0729147 0.480508 0
425 1 0.054853 0.497163 0
397 1 0.0909596 0.463265 0
398 1 0.115827 0.471308 0
427 1 0.0959624 0.487828 0
428 1 0.120545 0.495009 0
400 1 0.157749 0.460944 0
429 1 0.138777 0.478591 0
431 1 0.162765 0.485079 0
402 1 0.18147 0.468854 0
432 1 0.185315 0.493037 0
433 1 0.205122 0.476695 0
404 1 0.223686 0.461159 0
435 1 0.228985 0.485208 0
406 1 0.246608 0.468696 0
436 1 0.251958 0.49382 0
408 1 0.27156 0.47902 0
410 1 0.290516 0.461172 0
441 1 0.295485 0.487305 0
411 1 0.313698 0.468028 0
440 1 0.321029 0.492805 0
412 1 0.357045 0.456847 0
442 1 0.338701 0.475323 0
473 1 0.362911 0.481428 0
443 1 0.381057 0.463568 0
444 1 0.387857 0.487245 0
445 1 0.405654 0.469855 0
475 1 0.413709 0.493742 0
447 1 0.447839 0.456757 0
448 1 0.454843 0.481043 0
446 1 0.430153 0.475362 0
477 1 0.438051 0.499829 0
420 1 0.471567 0.462158 0
450 1 0.495344 0.468532 0
449 1 0.478323 0.486774 0
1109 1 -8.99212e-05 0.202837 0
454 1 0.0191431 0.530385 0
453 1 0.0130781 0.506553 0
424 1 0.0373391 0.514082 0
485 1 0.0427058 0.538887 0
455 1 0.0605357 0.520573 0
426 1 0.0783283 0.504741 0
486 1 0.0663837 0.546251 0
456 1 0.0841026 0.529353 0
457 1 0.101759 0.511604 0
458 1 0.107859 0.536264 0
459 1 0.12654 0.51941 0
460 1 0.150139 0.527354 0
430 1 0.144971 0.502625 0
489 1 0.131085 0.543689 0
461 1 0.167083 0.509653 0
462 1 0.172567 0.534809 0
463 1 0.189681 0.51744 0
493 1 0.195737 0.541943 0
434 1 0.209791 0.50106 0
464 1 0.21384 0.526065 0
466 1 0.23723 0.534547 0
465 1 0.233054 0.509598 0
437 1 0.255577 0.518898 0
467 1 0.277308 0.528635 0
439 1 0.274298 0.50331 0
497 1 0.259401 0.545544 0
438 1 0.296297 0.513091 0
468 1 0.299986 0.538546 0
469 1 0.329409 0.517751 0
470 1 0.355005 0.523366 0
499 1 0.33962 0.542826 0
472 1 0.371723 0.505762 0
1441 1 0.500666 0.561149 0
503 1 0.379059 0.528907 0
474 1 0.396584 0.511236 0
505 1 0.404205 0.536523 0
476 1 0.420512 0.517934 0
507 1 0.444825 0.524368 0
506 1 0.426994 0.542402 0
478 1 0.461719 0.50649 0
480 1 0.468917 0.530133 0
479 1 0.486113 0.511162 0
510 1 0.493261 0.536787 0
513 1 0.0234114 0.554536 0
514 1 0.0301473 0.578697 0
482 1 0.00617704 0.571139 0
483 1 0.00102966 0.546078 0
484 1 0.0488435 0.563055 0
515 1 0.0721783 0.570706 0
545 1 0.0535214 0.587045 0
487 1 0.0895747 0.554166 0
488 1 0.112579 0.560688 0
517 1 0.0955713 0.579341 0
519 1 0.118688 0.584855 0
491 1 0.154734 0.552068 0
490 1 0.136727 0.56833 0
521 1 0.160288 0.576234 0
492 1 0.178194 0.559885 0
523 1 0.182913 0.585022 0
494 1 0.199614 0.567919 0
495 1 0.21859 0.55105 0
525 1 0.22236 0.577208 0
496 1 0.241576 0.560593 0
526 1 0.243522 0.587407 0
527 1 0.263459 0.57186 0
498 1 0.281192 0.555308 0
529 1 0.285376 0.58227 0
500 1 0.303952 0.564596 0
530 1 0.307347 0.591746 0
501 1 0.363451 0.548258 0
531 1 0.347364 0.567007 0
533 1 0.371622 0.572305 0
502 1 0.38693 0.553818 0
534 1 0.395018 0.578047 0
504 1 0.410998 0.560374 0
509 1 0.452073 0.547584 0
508 1 0.435619 0.566523 0
535 1 0.418729 0.584341 0
539 1 0.458648 0.572041 0
540 1 0.476369 0.554571 0
569 1 0.482439 0.57898 0
512 1 0.012338 0.595517 0
542 1 0.0188828 0.620505 0
543 1 0.0366533 0.604422 0
544 1 0.0450462 0.629538 0
516 1 0.0770615 0.59486 0
546 1 0.06042 0.611229 0
547 1 0.0841939 0.62043 0
518 1 0.101421 0.603439 0
577 1 0.107544 0.62924 0
548 1 0.124085 0.609526 0
520 1 0.141187 0.592019 0
549 1 0.146115 0.616829 0
522 1 0.163796 0.60129 0
551 1 0.167396 0.626186 0
553 1 0.186694 0.60955 0
524 1 0.204996 0.594009 0
552 1 0.189863 0.635197 0
554 1 0.208653 0.619409 0
555 1 0.226448 0.604426 0
556 1 0.230306 0.62978 0
557 1 0.248959 0.614171 0
528 1 0.266603 0.597601 0
558 1 0.270235 0.62343 0
559 1 0.289275 0.60814 0
587 1 0.252444 0.639903 0
561 1 0.311587 0.616824 0
560 1 0.292582 0.632955 0
532 1 0.355724 0.590544 0
562 1 0.363435 0.616093 0
563 1 0.378909 0.596201 0
565 1 0.387257 0.621338 0
536 1 0.402769 0.602097 0
566 1 0.410172 0.626795 0
537 1 0.442546 0.590402 0
567 1 0.426704 0.608275 0
568 1 0.44915 0.615517 0
597 1 0.433047 0.633823 0
538 1 0.465684 0.596413 0
570 1 0.489064 0.602929 0
600 1 0.473288 0.620355 0
1501 1 0.495197 0.62716 0
573 1 0.0252883 0.64528 0
603 1 0.0310789 0.669425 0
572 1 0.00651823 0.660724 0
571 1 0.000492429 0.637649 0
575 1 0.0677963 0.638018 0
574 1 0.0496366 0.655654 0
605 1 0.073131 0.666305 0
604 1 0.0541493 0.679483 0
576 1 0.0901517 0.648421 0
578 1 0.108639 0.66741 0
607 1 0.0919077 0.684073 0
579 1 0.12755 0.653806 0
609 1 0.130824 0.679984 0
550 1 0.148184 0.641348 0
580 1 0.150666 0.666023 0
581 1 0.170582 0.650867 0
611 1 0.17237 0.675054 0
582 1 0.192399 0.659564 0
583 1 0.210702 0.644905 0
584 1 0.214418 0.669949 0
585 1 0.233841 0.654398 0
615 1 0.237026 0.679371 0
586 1 0.256734 0.664073 0
589 1 0.274664 0.649507 0
588 1 0.278461 0.67399 0
590 1 0.296376 0.65687 0
591 1 0.314854 0.641454 0
621 1 0.318983 0.667011 0
593 1 0.353161 0.659165 0
564 1 0.370936 0.640134 0
594 1 0.375979 0.665463 0
595 1 0.393978 0.645549 0
625 1 0.40058 0.671197 0
596 1 0.417156 0.652492 0
598 1 0.44053 0.658157 0
627 1 0.423187 0.677403 0
599 1 0.456834 0.639329 0
629 1 0.479712 0.645541 0
628 1 0.463388 0.663859 0
630 1 0.486801 0.670758 0
602 1 0.0114215 0.699779 0
633 1 0.0346713 0.69316 0
634 1 0.0293514 0.716929 0
632 1 0.00547196 0.723248 0
635 1 0.0517034 0.708942 0
606 1 0.0716482 0.69669 0
636 1 0.0720855 0.725104 0
637 1 0.0926001 0.71052 0
608 1 0.112718 0.695636 0
638 1 0.11711 0.720509 0
639 1 0.134852 0.705444 0
610 1 0.153839 0.690967 0
641 1 0.156374 0.71544 0
612 1 0.17568 0.700767 0
613 1 0.194201 0.685163 0
643 1 0.198228 0.708644 0
642 1 0.179411 0.724692 0
614 1 0.217818 0.694624 0
645 1 0.220107 0.719818 0
616 1 0.24066 0.704366 0
617 1 0.258698 0.689213 0
647 1 0.26315 0.71311 0
618 1 0.281713 0.69862 0
649 1 0.284623 0.723472 0
619 1 0.301718 0.683274 0
620 1 0.304663 0.708312 0
622 1 0.323566 0.692966 0
651 1 0.327373 0.71748 0
592 1 0.36 0.683585 0
653 1 0.345989 0.702681 0
624 1 0.367445 0.709038 0
623 1 0.383887 0.688786 0
655 1 0.390556 0.71379 0
626 1 0.407338 0.69549 0
686 1 0.413798 0.719295 0
657 1 0.447073 0.682084 0
656 1 0.43081 0.701219 0
658 1 0.454612 0.706914 0
687 1 0.437579 0.725674 0
659 1 0.470283 0.687966 0
660 1 0.477582 0.712883 0
1531 1 0.493713 0.694507 0
662 1 0.018312 0.764897 0
664 1 0.0243755 0.740804 0
695 1 0.0409436 0.757304 0
665 1 0.0481574 0.732685 0
666 1 0.0655576 0.750611 0
697 1 0.0809735 0.769135 0
667 1 0.0972585 0.734757 0
668 1 0.10234 0.760958 0
669 1 0.119788 0.745207 0
699 1 0.122979 0.772616 0
640 1 0.138655 0.730779 0
670 1 0.140889 0.756304 0
671 1 0.160775 0.741342 0
672 1 0.162545 0.766739 0
673 1 0.182088 0.75056 0
644 1 0.201323 0.735095 0
674 1 0.204337 0.760822 0
675 1 0.224003 0.744885 0
646 1 0.243117 0.729262 0
677 1 0.246145 0.754452 0
705 1 0.226323 0.769931 0
648 1 0.265343 0.738802 0
678 1 0.270312 0.763633 0
679 1 0.288691 0.747356 0
650 1 0.308367 0.733173 0
681 1 0.311788 0.757921 0
652 1 0.331347 0.742281 0
654 1 0.350444 0.727237 0
683 1 0.356906 0.752038 0
682 1 0.336372 0.767252 0
685 1 0.373474 0.732954 0
715 1 0.397371 0.738222 0
684 1 0.381147 0.757252 0
714 1 0.404394 0.762685 0
717 1 0.421766 0.743746 0
688 1 0.444687 0.750174 0
716 1 0.42741 0.767607 0
689 1 0.462274 0.73152 0
690 1 0.486126 0.737759 0
719 1 0.46774 0.755691 0
1591 1 0.490822 0.761726 0
694 1 0.0348705 0.78204 0
693 1 0.0124502 0.789487 0
723 1 0.0299692 0.807195 0
692 1 0.00630461 0.813378 0
696 1 0.0576444 0.774479 0
725 1 0.0526935 0.799666 0
727 1 0.0757623 0.793365 0
726 1 0.071105 0.817136 0
728 1 0.0956276 0.80923 0
698 1 0.0995576 0.7857 0
700 1 0.122912 0.798768 0
701 1 0.14394 0.782164 0
731 1 0.146109 0.807967 0
702 1 0.165412 0.792411 0
732 1 0.168151 0.817276 0
703 1 0.184632 0.776838 0
733 1 0.187479 0.80158 0
704 1 0.207626 0.785495 0
735 1 0.210145 0.81186 0
706 1 0.229477 0.795646 0
676 1 0.248004 0.778672 0
737 1 0.250995 0.80475 0
709 1 0.292009 0.772635 0
707 1 0.27024 0.788673 0
708 1 0.291867 0.797638 0
738 1 0.273841 0.813694 0
710 1 0.312507 0.8075 0
680 1 0.315676 0.782388 0
741 1 0.334159 0.814382 0
711 1 0.34897 0.794793 0
713 1 0.364613 0.776032 0
712 1 0.371938 0.799888 0
743 1 0.388191 0.781579 0
745 1 0.395281 0.805458 0
746 1 0.410993 0.787066 0
775 1 0.417984 0.812203 0
747 1 0.434793 0.793886 0
718 1 0.4512 0.773835 0
749 1 0.457944 0.798796 0
748 1 0.441992 0.818131 0
720 1 0.473944 0.779684 0
1621 1 0.481902 0.805768 0
1592 1 0.49781 0.786495 0
751 1 0.0244626 0.831098 0
752 1 0.0188558 0.856096 0
753 1 0.0414395 0.848612 0
1680 1 0.00090383 0.838585 0
722 1 0.0481184 0.824339 0
724 1 0.0656594 0.841635 0
755 1 0.0831098 0.860116 0
729 1 0.126587 0.823169 0
757 1 0.0890779 0.834909 0
756 1 0.106911 0.85174 0
759 1 0.129304 0.847587 0
730 1 0.149611 0.833648 0
760 1 0.150454 0.858499 0
761 1 0.171188 0.844194 0
763 1 0.190784 0.826967 0
762 1 0.194155 0.851481 0
734 1 0.217298 0.841549 0
736 1 0.232472 0.822271 0
765 1 0.235303 0.85854 0
767 1 0.25595 0.829418 0
766 1 0.259146 0.854425 0
768 1 0.277433 0.838811 0
739 1 0.295832 0.824339 0
769 1 0.299762 0.849098 0
740 1 0.318386 0.831974 0
770 1 0.323949 0.85652 0
742 1 0.357347 0.819187 0
771 1 0.341429 0.837631 0
773 1 0.363744 0.84349 0
744 1 0.379895 0.82391 0
803 1 0.387063 0.848945 0
774 1 0.402792 0.830977 0
776 1 0.410573 0.854721 0
777 1 0.426321 0.835817 0
779 1 0.449752 0.843116 0
778 1 0.433915 0.861557 0
1651 1 0.488185 0.830334 0
750 1 0.465533 0.823672 0
780 1 0.472031 0.847548 0
1652 1 0.495235 0.85412 0
783 1 0.0365805 0.874131 0
782 1 0.0121889 0.880974 0
813 1 0.030462 0.897546 0
812 1 0.00644233 0.90536 0
784 1 0.0544819 0.891486 0
754 1 0.057932 0.865594 0
785 1 0.0770919 0.883978 0
815 1 0.0722158 0.909798 0
786 1 0.0946733 0.902319 0
758 1 0.123093 0.870804 0
787 1 0.100272 0.877322 0
788 1 0.117733 0.895175 0
789 1 0.140414 0.887583 0
791 1 0.164563 0.879812 0
790 1 0.157933 0.904684 0
823 1 0.18071 0.898018 0
792 1 0.188288 0.875092 0
793 1 0.206319 0.891715 0
764 1 0.211955 0.86647 0
795 1 0.228363 0.883509 0
825 1 0.246028 0.902779 0
796 1 0.252156 0.878054 0
827 1 0.26868 0.894322 0
797 1 0.281722 0.865419 0
798 1 0.291445 0.892694 0
799 1 0.306758 0.873408 0
829 1 0.313588 0.901152 0
800 1 0.330042 0.882177 0
801 1 0.347079 0.862848 0
831 1 0.337455 0.906588 0
802 1 0.353784 0.886908 0
772 1 0.370393 0.867632 0
804 1 0.376806 0.891607 0
805 1 0.394283 0.872663 0
806 1 0.400234 0.896943 0
807 1 0.417651 0.879137 0
808 1 0.440397 0.885719 0
837 1 0.424013 0.904308 0
809 1 0.456332 0.866858 0
1681 1 0.479555 0.873367 0
810 1 0.463658 0.891503 0
1711 1 0.486225 0.897541 0
842 1 0.0197289 0.947148 0
843 1 0.025167 0.922253 0
841 1 0.000877208 0.929675 0
844 1 0.0427835 0.94065 0
814 1 0.0480767 0.916156 0
845 1 0.066496 0.934234 0
846 1 0.0838424 0.951016 0
816 1 0.089731 0.926701 0
817 1 0.112956 0.919958 0
847 1 0.107042 0.944029 0
818 1 0.130133 0.937211 0
819 1 0.135488 0.911929 0
820 1 0.15337 0.929235 0
849 1 0.146786 0.954489 0
851 1 0.16992 0.947479 0
821 1 0.175034 0.923155 0
824 1 0.198535 0.915101 0
822 1 0.192876 0.939703 0
794 1 0.222605 0.909222 0
853 1 0.215615 0.93251 0
855 1 0.239722 0.926784 0
854 1 0.232442 0.951621 0
826 1 0.26397 0.919767 0
856 1 0.256561 0.945113 0
857 1 0.279869 0.939539 0
828 1 0.295111 0.918999 0
859 1 0.302501 0.945254 0
830 1 0.317687 0.926391 0
860 1 0.326304 0.949686 0
832 1 0.342053 0.931372 0
833 1 0.36017 0.911329 0
863 1 0.368277 0.935714 0
861 1 0.352604 0.955366 0
834 1 0.384502 0.916074 0
865 1 0.39169 0.942037 0
835 1 0.408967 0.922406 0
836 1 0.416222 0.947582 0
839 1 0.447231 0.910761 0
838 1 0.431492 0.929339 0
869 1 0.45459 0.934999 0
867 1 0.438842 0.953881 0
1712 1 0.493512 0.922505 0
1741 1 0.477806 0.941603 0
840 1 0.470838 0.916368 0
872 1 0.0311838 0.989624 0
873 1 0.0366382 0.9655 0
871 1 0.0134498 0.971353 0
1 1 0.00751598 0.995606 0
874 1 0.0540093 0.981595 0
875 1 0.0602953 0.958165 0
876 1 0.0768015 0.975719 0
7 1 0.0947522 0.99363 0
877 1 0.100211 0.968577 0
848 1 0.123899 0.962425 0
878 1 0.117901 0.986951 0
879 1 0.140973 0.979694 0
850 1 0.162982 0.972285 0
881 1 0.158574 0.997355 0
11 1 0.180844 0.990313 0
852 1 0.186022 0.965827 0
882 1 0.203332 0.982173 0
883 1 0.209575 0.95765 0
884 1 0.227085 0.975928 0
886 1 0.243481 0.993599 0
885 1 0.250602 0.969216 0
17 1 0.268236 0.987173 0
887 1 0.286343 0.963428 0
888 1 0.29456 0.987615 0
858 1 0.310962 0.969284 0
889 1 0.319958 0.993315 0
890 1 0.343339 0.998734 0
891 1 0.334688 0.973803 0
862 1 0.359595 0.978712 0
864 1 0.376371 0.961001 0
893 1 0.382653 0.986089 0
895 1 0.400017 0.966225 0
896 1 0.405988 0.99105 0
897 1 0.429704 0.996843 0
866 1 0.422696 0.973021 0
868 1 0.446722 0.979013 0
870 1 0.46179 0.960107 0
1771 1 0.48464 0.965877 0
899 1 0.470193 0.984867 0
1772 1 0.492718 0.99108 0
471 1 0.346061 0.500048 0
902 1 0.523651 0.0219812 0
931 1 0.508301 0.0411177 0
905 1 0.539488 0.0022381 0
451 1 0.989323 0.499382 0
904 1 0.547423 0.0275577 0
906 1 0.563223 0.00884632 0
935 1 0.570301 0.033422 0
908 1 0.585391 0.0141416 0
937 1 0.593217 0.0386459 0
939 1 0.60868 0.0190025 0
938 1 0.616855 0.0432859 0
940 1 0.632579 0.0242781 0
941 1 0.624664 -0.000428886 0
942 1 0.701454 0.0226523 0
944 1 0.716741 0.0402294 0
943 1 0.724224 0.0160876 0
945 1 0.740987 0.0327305 0
914 1 0.746684 0.00820817 0
1349 1 0.96038 0.466451 0
947 1 0.763437 0.0248014 0
918 1 0.787137 0.0171057 0
948 1 0.780507 0.0423062 0
949 1 0.803778 0.0364789 0
919 1 0.810312 0.0119862 0
920 1 0.827552 0.0287998 0
1790 1 0.833504 0.00444853 0
951 1 0.850968 0.0211553 0
952 1 0.868031 0.0398955 0
922 1 0.874595 0.0150182 0
953 1 0.891134 0.0329757 0
955 1 0.913348 0.025898 0
924 1 0.89749 0.00835978 0
956 1 0.930072 0.0429406 0
926 1 0.936824 0.0188334 0
957 1 0.953605 0.0362067 0
928 1 0.959588 0.0112615 0
959 1 0.97716 0.029706 0
929 1 0.982273 0.00424415 0
933 1 0.531814 0.0468013 0
932 1 0.515787 0.0654229 0
963 1 0.539947 0.0717926 0
962 1 0.522897 0.0902508 0
934 1 0.555467 0.0509106 0
965 1 0.563581 0.0783255 0
936 1 0.578268 0.0582244 0
966 1 0.586693 0.0839758 0
967 1 0.601225 0.0640209 0
968 1 0.608998 0.087956 0
969 1 0.624402 0.0680421 0
971 1 0.69278 0.047932 0
970 1 0.687803 0.0716656 0
972 1 0.70426 0.0892921 0
973 1 0.710902 0.0638224 0
1003 1 0.727763 0.0811815 0
975 1 0.733648 0.0571157 0
974 1 0.752009 0.0733833 0
946 1 0.757314 0.048963 0
976 1 0.77505 0.0678524 0
1007 1 0.792637 0.0850158 0
977 1 0.797384 0.0599466 0
979 1 0.821896 0.0531044 0
978 1 0.814997 0.0775224 0
950 1 0.844829 0.045754 0
980 1 0.838608 0.0711625 0
981 1 0.861886 0.0638872 0
1011 1 0.854428 0.0894277 0
982 1 0.878641 0.0827356 0
983 1 0.884762 0.0579802 0
954 1 0.907769 0.0510966 0
984 1 0.902692 0.0754694 0
985 1 0.925534 0.0678721 0
986 1 0.943527 0.0844896 0
987 1 0.94788 0.0598021 0
960 1 0.994238 0.0469738 0
988 1 0.966851 0.0785056 0
958 1 0.971169 0.0539726 0
989 1 0.989008 0.0703351 0
991 1 0.507432 0.108751 0
992 1 0.513376 0.133955 0
993 1 0.530906 0.114479 0
964 1 0.547349 0.0966327 0
994 1 0.554069 0.1229 0
995 1 0.569999 0.102504 0
996 1 0.578135 0.128002 0
997 1 0.594186 0.109531 0
1027 1 0.601097 0.135017 0
998 1 0.617143 0.116407 0
1000 1 0.642382 0.125082 0
999 1 0.682017 0.0970346 0
1030 1 0.666631 0.131438 0
1001 1 0.6995 0.114908 0
1002 1 0.722809 0.106319 0
1033 1 0.740779 0.123292 0
1031 1 0.717468 0.131919 0
1004 1 0.745238 0.098946 0
1005 1 0.770142 0.0925704 0
1035 1 0.764195 0.116196 0
1006 1 0.786608 0.110539 0
1036 1 0.781203 0.135081 0
1037 1 0.803702 0.127369 0
1008 1 0.808876 0.102157 0
1039 1 0.82606 0.12042 0
1009 1 0.831555 0.0962528 0
1010 1 0.848763 0.11395 0
1041 1 0.866348 0.131145 0
1012 1 0.87199 0.106866 0
1043 1 0.890157 0.123804 0
1013 1 0.89593 0.0997139 0
1014 1 0.913085 0.116622 0
1015 1 0.920059 0.0925093 0
1017 1 0.936869 0.109681 0
1047 1 0.954521 0.126998 0
1016 1 0.930629 0.134838 0
1018 1 0.96056 0.102423 0
1019 1 0.983996 0.0962903 0
1049 1 0.978255 0.12043 0
1023 1 0.537451 0.140159 0
1022 1 0.52076 0.158248 0
1051 1 0.503493 0.17616 0
1025 1 0.560543 0.14658 0
1024 1 0.544681 0.164891 0
1055 1 0.567999 0.170595 0
1026 1 0.584854 0.152993 0
1028 1 0.608299 0.159436 0
1057 1 0.590909 0.178147 0
1029 1 0.624825 0.141373 0
1058 1 0.632696 0.167122 0
1059 1 0.648656 0.149093 0
1060 1 0.656667 0.173643 0
1032 1 0.691279 0.138181 0
1061 1 0.672521 0.156514 0
1062 1 0.696953 0.161984 0
1091 1 0.679717 0.180076 0
1063 1 0.735549 0.147956 0
1064 1 0.71991 0.167468 0
1095 1 0.743304 0.171613 0
1034 1 0.757983 0.140083 0
1065 1 0.775162 0.158948 0
1066 1 0.76612 0.180697 0
1067 1 0.797746 0.152836 0
1038 1 0.820197 0.144776 0
1068 1 0.814279 0.170768 0
1097 1 0.79095 0.179522 0
1040 1 0.842745 0.138017 0
1069 1 0.836927 0.163254 0
1071 1 0.860574 0.154981 0
1072 1 0.876609 0.173985 0
1042 1 0.88343 0.149045 0
1044 1 0.90739 0.141245 0
1073 1 0.901695 0.166843 0
1045 1 0.925382 0.159077 0
1075 1 0.941419 0.176643 0
1046 1 0.948241 0.15146 0
1050 1 0.995619 0.137831 0
1077 1 0.965103 0.169442 0
1048 1 0.971702 0.145535 0
1079 1 0.989671 0.16138 0
1053 1 0.528695 0.182938 0
1052 1 0.510968 0.201497 0
1083 1 0.533959 0.207872 0
1082 1 0.517314 0.224729 0
1054 1 0.551576 0.188775 0
1085 1 0.557004 0.213226 0
1056 1 0.574388 0.196218 0
1115 1 0.581287 0.22052 0
1087 1 0.614771 0.185728 0
1086 1 0.59712 0.202751 0
1117 1 0.605825 0.226379 0
1088 1 0.623066 0.208796 0
1089 1 0.639358 0.191075 0
1119 1 0.64593 0.216205 0
1090 1 0.66346 0.196992 0
1121 1 0.669503 0.22175 0
1092 1 0.687613 0.203864 0
1093 1 0.702917 0.185182 0
1123 1 0.71128 0.20936 0
1094 1 0.728209 0.192332 0
1125 1 0.734581 0.217759 0
1096 1 0.751716 0.199268 0
1126 1 0.759642 0.222518 0
1127 1 0.77669 0.203686 0
1098 1 0.802097 0.207623 0
1129 1 0.826796 0.21429 0
1099 1 0.829798 0.188849 0
1070 1 0.853325 0.180389 0
1100 1 0.848133 0.204824 0
1101 1 0.870962 0.198367 0
1131 1 0.861772 0.225714 0
1102 1 0.888474 0.215138 0
1103 1 0.89441 0.190589 0
1104 1 0.912011 0.208493 0
1074 1 0.918543 0.183964 0
1105 1 0.936217 0.201721 0
1106 1 0.954049 0.219206 0
1135 1 0.929017 0.225524 0
1076 1 0.958687 0.193531 0
1078 1 0.983004 0.185546 0
1107 1 0.977384 0.21121 0
1350 1 0.965963 0.490639 0
925 1 0.91942 0.00190273 0
1113 1 0.523383 0.249855 0
1112 1 0.507881 0.269205 0
1084 1 0.540589 0.231609 0
1143 1 0.547735 0.257249 0
1114 1 0.56486 0.238281 0
1145 1 0.571884 0.262857 0
1116 1 0.587915 0.244393 0
1147 1 0.611722 0.251303 0
1146 1 0.59526 0.268771 0
1118 1 0.629569 0.233318 0
1149 1 0.635288 0.257993 0
1120 1 0.652633 0.239836 0
1150 1 0.659307 0.264153 0
1122 1 0.694635 0.227571 0
1151 1 0.676718 0.245958 0
1153 1 0.700466 0.252493 0
1152 1 0.683778 0.270065 0
1124 1 0.717937 0.235363 0