ITEM: TIMESTEP
376000
ITEM: NUMBER OF ATOMS
1800
ITEM: BOX BOUNDS pp pp pp
-1.3959411555148913e+01 1.7895941155515084e+02
1.1826529217466231e+00 1.6381734707825530e+02
0.0000000000000000e+00 5.5000000000000000e+00
ITEM: ATOMS id type xs ys zs
929 1 0.0274454 0.00781765 0
959 1 0.0221749 0.0325313 0
928 1 0.00701992 0.0148976 0
957 1 0.00273259 0.0399439 0
930 1 0.0427065 0.0246068 0
31 1 0.0574295 0.0411451 0
2 1 0.0634215 0.0161762 0
33 1 0.0772639 0.0346157 0
3 1 0.0834621 0.00972484 0
4 1 0.0978011 0.0279729 0
5 1 0.103695 0.00301935 0
35 1 0.112959 0.0445047 0
6 1 0.118616 0.0207078 0
37 1 0.13334 0.038579 0
8 1 0.138791 0.0136756 0
39 1 0.153135 0.0311936 0
880 1 0.159157 0.00645598 0
9 1 0.173279 0.0233253 0
40 1 0.18808 0.0400279 0
10 1 0.194408 0.0163655 0
41 1 0.209506 0.0333886 0
12 1 0.21441 0.00919396 0
14 1 0.229574 0.0262195 0
13 1 0.233971 0.00240329 0
15 1 0.249059 0.0192366 0
46 1 0.270074 0.0171068 0
45 1 0.244741 0.0431787 0
77 1 0.273453 0.0409525 0
47 1 0.288964 0.0242233 0
19 1 0.303475 0.00576084 0
49 1 0.309456 0.0305172 0
20 1 0.32343 0.0126128 0
51 1 0.328708 0.0378594 0
21 1 0.344036 0.0191996 0
23 1 0.364216 0.0251411 0
22 1 0.349593 0.044134 0
894 1 0.378325 0.00659237 0
24 1 0.384522 0.0313914 0
892 1 0.357612 0.00123121 0
25 1 0.39901 0.0136825 0
26 1 0.404463 0.0383465 0
27 1 0.419607 0.0197236 0
29 1 0.439803 0.0262247 0
900 1 0.454412 0.00895865 0
30 1 0.460048 0.0326297 0
28 1 0.42498 0.0436878 0
898 1 0.434138 0.00156958 0
902 1 0.495453 0.0201224 0
901 1 0.474539 0.0143862 0
931 1 0.480933 0.0390447 0
988 1 0.0120147 0.0812845 0
960 1 0.0377251 0.0486176 0
989 1 0.0319845 0.0736839 0
958 1 0.017747 0.0566489 0
61 1 0.0521025 0.0664908 0
62 1 0.0681332 0.0838353 0
32 1 0.0721857 0.0582901 0
63 1 0.0869853 0.0753779 0
34 1 0.0926867 0.0515644 0
65 1 0.107765 0.06911 0
66 1 0.122888 0.0863579 0
36 1 0.127791 0.0625844 0
67 1 0.143898 0.0798942 0
38 1 0.148099 0.0556902 0
69 1 0.169063 0.0474156 0
68 1 0.164219 0.0730158 0
71 1 0.183899 0.065068 0
70 1 0.178748 0.0896694 0
72 1 0.198742 0.0814072 0
42 1 0.20481 0.0571373 0
43 1 0.225365 0.0498153 0
73 1 0.219141 0.0741097 0
44 1 0.239764 0.0680233 0
74 1 0.262634 0.0848971 0
75 1 0.26034 0.0600783 0
76 1 0.279895 0.0681572 0
48 1 0.294134 0.0490118 0
79 1 0.299791 0.0733224 0
50 1 0.314061 0.0554996 0
81 1 0.319683 0.079921 0
52 1 0.333768 0.0612554 0
82 1 0.340114 0.086207 0
83 1 0.354913 0.068445 0
53 1 0.369797 0.0506622 0
54 1 0.37581 0.075271 0
55 1 0.390343 0.0565526 0
56 1 0.395929 0.0802489 0
57 1 0.410467 0.0626467 0
87 1 0.415972 0.0878346 0
58 1 0.430675 0.0691364 0
59 1 0.444717 0.0499989 0
89 1 0.449898 0.0752154 0
932 1 0.485772 0.0636697 0
60 1 0.465369 0.0562607 0
961 1 0.470649 0.080963 0
962 1 0.490597 0.0870327 0
1047 1 0.00291873 0.129966 0
1019 1 0.0273656 0.0983107 0
1049 1 0.0222938 0.122409 0
1018 1 0.00736852 0.106073 0
990 1 0.0473214 0.0907271 0
1020 1 0.0422196 0.115492 0
121 1 0.0572511 0.133145 0
91 1 0.062405 0.108046 0
92 1 0.0770919 0.124833 0
93 1 0.0832546 0.100676 0
64 1 0.102281 0.0930905 0
94 1 0.0980199 0.117942 0
125 1 0.112069 0.134722 0
95 1 0.118346 0.110642 0
96 1 0.132685 0.128463 0
97 1 0.138476 0.104707 0
98 1 0.153553 0.122118 0
99 1 0.158624 0.0977272 0
100 1 0.174892 0.115171 0
130 1 0.190013 0.131579 0
101 1 0.194314 0.106364 0
102 1 0.209043 0.122646 0
103 1 0.213507 0.0986353 0
104 1 0.231382 0.119665 0
105 1 0.233104 0.0919273 0
106 1 0.250062 0.10568 0
137 1 0.255003 0.128957 0
107 1 0.27047 0.110216 0
78 1 0.285315 0.0914651 0
109 1 0.29078 0.115847 0
80 1 0.305507 0.0977088 0
108 1 0.274957 0.134922 0
110 1 0.310653 0.121543 0
111 1 0.325423 0.104081 0
141 1 0.33073 0.128257 0
113 1 0.345574 0.111468 0
84 1 0.360555 0.0919993 0
112 1 0.365765 0.116504 0
85 1 0.381227 0.0992426 0
143 1 0.351438 0.134869 0
115 1 0.386581 0.123047 0
86 1 0.401243 0.105142 0
116 1 0.406968 0.129949 0
117 1 0.421665 0.111465 0
88 1 0.435657 0.0928534 0
119 1 0.441534 0.118211 0
90 1 0.456222 0.099568 0
118 1 0.426949 0.13626 0
120 1 0.461792 0.123876 0
991 1 0.476624 0.105984 0
992 1 0.481931 0.129348 0
993 1 0.497185 0.111578 0
1050 1 0.0373651 0.140632 0
1079 1 0.0317498 0.164247 0
1048 1 0.0166026 0.148205 0
1077 1 0.0116408 0.172736 0
151 1 0.0521834 0.157954 0
122 1 0.0720637 0.150007 0
152 1 0.0674301 0.174904 0
153 1 0.0875609 0.167697 0
123 1 0.0918237 0.142828 0
124 1 0.10776 0.159633 0
155 1 0.123022 0.176078 0
126 1 0.127683 0.151784 0
157 1 0.143117 0.168596 0
127 1 0.147959 0.145222 0
129 1 0.167981 0.139339 0
128 1 0.164009 0.163649 0
159 1 0.183626 0.155156 0
132 1 0.190984 0.177355 0
131 1 0.20471 0.157235 0
133 1 0.220998 0.141588 0
134 1 0.225986 0.165811 0
135 1 0.240733 0.147161 0
165 1 0.246436 0.171001 0
136 1 0.260834 0.153289 0
167 1 0.266863 0.176912 0
138 1 0.281732 0.158991 0
139 1 0.295619 0.139913 0
169 1 0.301719 0.164822 0
140 1 0.316363 0.145929 0
171 1 0.321659 0.170487 0
142 1 0.336306 0.153309 0
172 1 0.342207 0.176936 0
173 1 0.356941 0.1595 0
114 1 0.371611 0.140902 0
144 1 0.377079 0.165888 0
145 1 0.392134 0.147946 0
146 1 0.397138 0.172841 0
147 1 0.412323 0.153941 0
177 1 0.417398 0.178224 0
148 1 0.432032 0.160033 0
149 1 0.446899 0.142174 0
150 1 0.452362 0.166426 0
1051 1 0.473905 0.171794 0
1021 1 0.46742 0.147946 0
1022 1 0.488386 0.154712 0
1076 1 0.00666173 0.197703 0
1107 1 0.0228374 0.213484 0
1078 1 0.02787 0.189791 0
1106 1 0.00323151 0.221933 0
1080 1 0.0477193 0.182177 0
1109 1 0.0439368 0.207199 0
181 1 0.0636875 0.199695 0
182 1 0.0688364 0.222396 0
183 1 0.0843983 0.206021 0
154 1 0.101997 0.186481 0
185 1 0.104897 0.214947 0
156 1 0.12069 0.199691 0
186 1 0.125418 0.223614 0
158 1 0.140686 0.204348 0
160 1 0.155235 0.187165 0
189 1 0.160671 0.210949 0
161 1 0.17543 0.192734 0
191 1 0.181159 0.217929 0
163 1 0.211196 0.183174 0
162 1 0.196567 0.200836 0
192 1 0.201246 0.224531 0
193 1 0.217402 0.206992 0
164 1 0.231693 0.189405 0
195 1 0.236915 0.213171 0
166 1 0.251994 0.195292 0
196 1 0.257158 0.219287 0
168 1 0.28667 0.182994 0
197 1 0.27153 0.200825 0
199 1 0.291653 0.207187 0
198 1 0.27627 0.225643 0
170 1 0.306463 0.189244 0
200 1 0.311532 0.213926 0
201 1 0.326556 0.195578 0
202 1 0.332 0.219965 0
174 1 0.361818 0.184022 0
203 1 0.346663 0.201592 0
204 1 0.366779 0.209022 0
175 1 0.382533 0.190878 0
233 1 0.351866 0.226676 0
205 1 0.387472 0.214784 0
176 1 0.402439 0.195908 0
207 1 0.408322 0.2206 0
178 1 0.423828 0.202943 0
179 1 0.43797 0.184135 0
209 1 0.444778 0.208712 0
180 1 0.45845 0.190535 0
1053 1 0.493161 0.179029 0
1083 1 0.498527 0.204051 0
1081 1 0.464027 0.215655 0
1052 1 0.479055 0.197467 0
1082 1 0.484123 0.222397 0
1110 1 0.0347789 0.232849 0
1108 1 0.0181934 0.250793 0
1137 1 0.00459383 0.269528 0
1140 1 0.0390811 0.258275 0
211 1 0.0540086 0.240377 0
212 1 0.0599946 0.265419 0
213 1 0.0743199 0.248172 0
184 1 0.0892708 0.231167 0
214 1 0.0945642 0.256954 0
215 1 0.109392 0.240064 0
216 1 0.115314 0.264081 0
187 1 0.145881 0.229212 0
217 1 0.130491 0.246543 0
218 1 0.1369 0.269454 0
188 1 0.152021 0.253737 0
190 1 0.16677 0.236424 0
220 1 0.171966 0.260814 0
221 1 0.186616 0.242393 0
222 1 0.192167 0.266963 0
223 1 0.206931 0.247505 0
194 1 0.222029 0.230315 0
224 1 0.226127 0.256201 0
225 1 0.24142 0.238663 0
226 1 0.247075 0.261963 0
227 1 0.261568 0.243295 0
257 1 0.267762 0.266991 0
228 1 0.282305 0.24957 0
229 1 0.29689 0.232252 0
230 1 0.302481 0.256536 0
231 1 0.316976 0.238856 0
261 1 0.322734 0.262686 0
232 1 0.337443 0.244591 0
263 1 0.343098 0.268297 0
234 1 0.357563 0.250673 0
235 1 0.372627 0.233035 0
265 1 0.378027 0.25749 0
206 1 0.393769 0.239118 0
236 1 0.399223 0.262903 0
237 1 0.413636 0.246006 0
238 1 0.419309 0.271163 0
208 1 0.428443 0.227116 0
239 1 0.43363 0.252853 0
210 1 0.448573 0.23459 0
240 1 0.454233 0.258717 0
1111 1 0.46832 0.240142 0
1112 1 0.474737 0.265097 0
1113 1 0.488581 0.246206 0
1138 1 0.0097136 0.294812 0
1139 1 0.0247654 0.276623 0
1169 1 0.0308567 0.301623 0
241 1 0.0458897 0.283432 0
271 1 0.051004 0.308499 0
242 1 0.0656203 0.290074 0
273 1 0.0714334 0.314817 0
243 1 0.0800792 0.273856 0
244 1 0.0857205 0.298692 0
245 1 0.100253 0.281474 0
246 1 0.106332 0.304549 0
247 1 0.122042 0.287279 0
248 1 0.126669 0.311521 0
249 1 0.14148 0.295205 0
219 1 0.156593 0.278086 0
250 1 0.16166 0.302724 0
251 1 0.176484 0.284772 0
281 1 0.181553 0.308857 0
253 1 0.211655 0.274338 0
252 1 0.196322 0.290853 0
283 1 0.201673 0.314619 0
254 1 0.217246 0.298007 0
255 1 0.231748 0.280188 0
285 1 0.237297 0.303358 0
256 1 0.252436 0.286722 0
287 1 0.257779 0.310621 0
259 1 0.287911 0.273712 0
258 1 0.272239 0.290723 0
289 1 0.292452 0.297674 0
260 1 0.308437 0.281096 0
291 1 0.312503 0.305843 0
262 1 0.328763 0.286506 0
292 1 0.333393 0.311309 0
293 1 0.34831 0.293845 0
264 1 0.364022 0.275881 0
295 1 0.369305 0.299817 0
266 1 0.384838 0.281031 0
297 1 0.390074 0.30621 0
267 1 0.404756 0.287906 0
298 1 0.410121 0.312675 0
268 1 0.425219 0.295137 0
269 1 0.43989 0.276395 0
270 1 0.445247 0.301024 0
1141 1 0.460048 0.283171 0
1142 1 0.494352 0.27105 0
300 1 0.465219 0.308373 0
1171 1 0.479964 0.289366 0
1172 1 0.485643 0.314189 0
1168 1 0.0145339 0.318096 0
1170 1 0.0359596 0.326629 0
1199 1 0.019867 0.342969 0
1228 1 0.00392125 0.360154 0
1229 1 0.0406687 0.350191 0
1200 1 0.0563582 0.33311 0
301 1 0.0617924 0.358564 0
272 1 0.0765707 0.340769 0
275 1 0.0914735 0.323151 0
274 1 0.096696 0.346981 0
276 1 0.111612 0.328411 0
279 1 0.146481 0.319897 0
305 1 0.116662 0.354451 0
277 1 0.130988 0.336014 0
278 1 0.151762 0.344058 0
307 1 0.136357 0.361665 0
280 1 0.166686 0.327519 0
311 1 0.171975 0.350522 0
282 1 0.187006 0.332986 0
312 1 0.192504 0.357712 0
313 1 0.207067 0.338385 0
284 1 0.221329 0.322046 0
315 1 0.227886 0.34559 0
286 1 0.242261 0.328094 0
316 1 0.248456 0.352253 0
317 1 0.263138 0.334026 0
318 1 0.268505 0.359497 0
288 1 0.278078 0.316551 0
319 1 0.282553 0.341431 0
290 1 0.297616 0.323683 0
320 1 0.30239 0.347943 0
321 1 0.318477 0.329696 0
322 1 0.323008 0.354437 0
323 1 0.338903 0.335757 0
324 1 0.344163 0.359655 0
294 1 0.354298 0.318528 0
325 1 0.360069 0.342449 0
296 1 0.375297 0.323657 0
326 1 0.379823 0.348931 0
327 1 0.395443 0.331282 0
328 1 0.401012 0.356044 0
329 1 0.416177 0.338165 0
358 1 0.42083 0.361913 0
299 1 0.429912 0.320007 0
359 1 0.436217 0.345076 0
330 1 0.4505 0.325688 0
360 1 0.456049 0.349826 0
1202 1 0.491523 0.338341 0
1201 1 0.470914 0.331993 0
1231 1 0.476572 0.356062 0
1233 1 0.495896 0.363107 0
1259 1 0.0257777 0.367498 0
1260 1 0.0306155 0.391948 0
1258 1 0.0101441 0.384836 0
1230 1 0.0461081 0.375164 0
331 1 0.0504518 0.399526 0
302 1 0.0669609 0.38286 0
332 1 0.070235 0.407234 0
303 1 0.0821124 0.36467 0
333 1 0.0865884 0.389401 0
304 1 0.102221 0.372169 0
335 1 0.106675 0.396669 0
306 1 0.12261 0.379716 0
337 1 0.128 0.402795 0
308 1 0.142048 0.38585 0
309 1 0.157125 0.368118 0
339 1 0.162454 0.392566 0
310 1 0.177161 0.375044 0
341 1 0.182227 0.399634 0
314 1 0.21254 0.363094 0
343 1 0.197254 0.381232 0
342 1 0.202289 0.405754 0
344 1 0.217336 0.387925 0
345 1 0.232279 0.369807 0
346 1 0.237815 0.394287 0
347 1 0.2524 0.376678 0
377 1 0.258528 0.40052 0
349 1 0.288408 0.365264 0
348 1 0.274149 0.38327 0
350 1 0.294235 0.389456 0
378 1 0.278661 0.407055 0
351 1 0.309312 0.371698 0
381 1 0.314552 0.395141 0
353 1 0.330134 0.378169 0
352 1 0.33481 0.402573 0
354 1 0.349865 0.384989 0
355 1 0.365015 0.367151 0
356 1 0.37063 0.391978 0
357 1 0.385578 0.373639 0
386 1 0.391146 0.39809 0
387 1 0.406114 0.380669 0
388 1 0.411844 0.404393 0
389 1 0.426339 0.386523 0
1232 1 0.441497 0.36894 0
1261 1 0.445925 0.392546 0
1262 1 0.462049 0.374542 0
1293 1 0.466243 0.398863 0
1263 1 0.481678 0.381816 0
1294 1 0.486472 0.406386 0
1288 1 -0.000239676 0.426914 0
1289 1 0.0153376 0.40909 0
1319 1 0.0196674 0.435363 0
1290 1 0.0348424 0.417513 0
1318 1 0.00455905 0.451465 0
391 1 0.0400529 0.442258 0
361 1 0.0557903 0.42472 0
362 1 0.0604957 0.449701 0
363 1 0.0758579 0.431815 0
334 1 0.0910055 0.412764 0
365 1 0.0959487 0.437682 0
336 1 0.111325 0.420609 0
338 1 0.147742 0.410177 0
366 1 0.116585 0.445229 0
367 1 0.131669 0.427035 0
369 1 0.151331 0.435092 0
368 1 0.136315 0.452795 0
340 1 0.16818 0.418025 0
370 1 0.171796 0.44242 0
371 1 0.187221 0.425275 0
401 1 0.193051 0.448486 0
372 1 0.208106 0.430715 0
373 1 0.224035 0.411874 0
374 1 0.228624 0.437222 0
403 1 0.214078 0.455326 0
375 1 0.24381 0.418708 0
405 1 0.249276 0.442619 0
376 1 0.263897 0.424653 0
407 1 0.269405 0.450241 0
409 1 0.284216 0.43192 0
379 1 0.299126 0.413377 0
380 1 0.304788 0.438433 0
382 1 0.319304 0.419635 0
413 1 0.325779 0.444407 0
383 1 0.339575 0.426274 0
412 1 0.345911 0.450512 0
385 1 0.355144 0.40861 0
414 1 0.360473 0.433215 0
384 1 0.37615 0.416081 0
415 1 0.380733 0.440035 0
417 1 0.396675 0.421854 0
416 1 0.401719 0.445623 0
418 1 0.417284 0.429103 0
447 1 0.422056 0.453835 0
419 1 0.431585 0.410566 0
390 1 0.437148 0.435284 0
1291 1 0.451438 0.417126 0
1321 1 0.456906 0.441982 0
1324 1 0.497022 0.454593 0
1323 1 0.49152 0.430774 0
1292 1 0.47164 0.424169 0
1322 1 0.476973 0.448588 0
1320 1 0.0243227 0.458784 0
421 1 0.0301261 0.483385 0
1349 1 0.00971863 0.475587 0
392 1 0.0447871 0.466735 0
422 1 0.0497062 0.490701 0
393 1 0.064859 0.474208 0
364 1 0.0808842 0.456386 0
394 1 0.0863249 0.480514 0
395 1 0.100724 0.462015 0
396 1 0.106275 0.487056 0
397 1 0.121598 0.469955 0
427 1 0.12732 0.494837 0
398 1 0.141853 0.477171 0
399 1 0.156784 0.460125 0
429 1 0.162547 0.483303 0
400 1 0.178887 0.467047 0
431 1 0.18458 0.490934 0
402 1 0.199077 0.472802 0
432 1 0.204169 0.497322 0
433 1 0.219526 0.47935 0
404 1 0.234295 0.461092 0
435 1 0.239606 0.485221 0
406 1 0.254743 0.467132 0
436 1 0.259675 0.492304 0
408 1 0.274672 0.473782 0
410 1 0.289524 0.455781 0
441 1 0.295246 0.480875 0
439 1 0.28003 0.497699 0
411 1 0.310293 0.462272 0
440 1 0.315963 0.486772 0
442 1 0.330179 0.468784 0
471 1 0.336082 0.494264 0
473 1 0.351296 0.475279 0
443 1 0.365637 0.456967 0
444 1 0.371403 0.482266 0
1351 1 0.467622 0.490668 0
445 1 0.386024 0.464166 0
475 1 0.391 0.487813 0
446 1 0.405999 0.470937 0
477 1 0.411445 0.49445 0
448 1 0.427046 0.476951 0
420 1 0.442336 0.459808 0
449 1 0.44717 0.483917 0
1353 1 0.481872 0.472592 0
1352 1 0.488159 0.498042 0
450 1 0.462222 0.465756 0
423 1 0.0715337 0.497722 0
451 1 0.035639 0.508472 0
1380 1 0.0213173 0.526475 0
1350 1 0.0151489 0.500822 0
1409 1 0.00562239 0.543572 0
452 1 0.0410192 0.532113 0
453 1 0.0557577 0.515621 0
454 1 0.0617265 0.540326 0
1623 1 0.498568 0.795089 0
424 1 0.0770073 0.52331 0
425 1 0.0916146 0.505596 0
455 1 0.0964886 0.52959 0
426 1 0.111427 0.512739 0
456 1 0.117167 0.53661 0
457 1 0.133392 0.519551 0
459 1 0.153614 0.52595 0
458 1 0.138107 0.54378 0
428 1 0.14741 0.501482 0
430 1 0.167775 0.508086 0
460 1 0.173091 0.533709 0
461 1 0.188612 0.516131 0
462 1 0.19405 0.539725 0
463 1 0.209501 0.522424 0
434 1 0.223896 0.504032 0
464 1 0.229344 0.528831 0
465 1 0.244396 0.510624 0
466 1 0.24986 0.534377 0
437 1 0.26556 0.516161 0
497 1 0.270853 0.540675 0
467 1 0.28585 0.522308 0
438 1 0.300737 0.504901 0
468 1 0.305295 0.529432 0
469 1 0.321169 0.511409 0
499 1 0.326464 0.535901 0
470 1 0.342207 0.517625 0
501 1 0.346991 0.542103 0
503 1 0.361406 0.524123 0
474 1 0.37709 0.508173 0
505 1 0.381804 0.531537 0
476 1 0.396788 0.512804 0
506 1 0.402032 0.5375 0
507 1 0.417418 0.519972 0
509 1 0.422443 0.543839 0
480 1 0.437721 0.525937 0
479 1 0.452193 0.508874 0
510 1 0.457136 0.533124 0
478 1 0.431779 0.502093 0
1382 1 0.493093 0.521549 0
1381 1 0.472787 0.514586 0
1411 1 0.477877 0.538866 0
1413 1 0.498325 0.546539 0
481 1 0.0263192 0.550741 0
1410 1 0.0319476 0.575077 0
1408 1 0.0117376 0.568343 0
483 1 0.046494 0.557195 0
482 1 0.0515329 0.58222 0
513 1 0.0678744 0.564513 0
485 1 0.0823429 0.547362 0
484 1 0.0881761 0.571618 0
486 1 0.103015 0.553802 0
515 1 0.108524 0.577938 0
487 1 0.122936 0.56044 0
517 1 0.128154 0.585021 0
488 1 0.143266 0.567923 0
489 1 0.15828 0.551032 0
490 1 0.163833 0.574679 0
491 1 0.179018 0.557285 0
521 1 0.18484 0.582114 0
493 1 0.21486 0.547033 0
492 1 0.199656 0.563899 0
523 1 0.20494 0.588071 0
494 1 0.220295 0.570853 0
495 1 0.234403 0.553089 0
525 1 0.239898 0.578073 0
496 1 0.255483 0.558441 0
526 1 0.260829 0.583888 0
527 1 0.276079 0.56607 0
498 1 0.291166 0.548555 0
529 1 0.296753 0.573282 0
500 1 0.311089 0.554283 0
530 1 0.316821 0.578411 0
531 1 0.331703 0.560505 0
532 1 0.336825 0.58531 0
533 1 0.351511 0.567122 0
502 1 0.366664 0.550024 0
534 1 0.371847 0.574342 0
504 1 0.387118 0.555834 0
535 1 0.391924 0.58025 0
508 1 0.407131 0.561838 0
537 1 0.412366 0.586235 0
539 1 0.428767 0.568868 0
540 1 0.443022 0.549954 0
569 1 0.448704 0.575277 0
1443 1 0.488309 0.588128 0
1442 1 0.468075 0.58164 0
1441 1 0.463228 0.556749 0
1412 1 0.483717 0.564424 0
1438 1 0.0019821 0.61084 0
1440 1 0.0228073 0.617233 0
1439 1 0.0168345 0.592522 0
511 1 0.0366304 0.599475 0
514 1 0.072409 0.588548 0
541 1 0.0431599 0.623351 0
512 1 0.0570346 0.605643 0
542 1 0.0637447 0.629843 0
543 1 0.0783865 0.612359 0
545 1 0.0936905 0.5948 0
546 1 0.0983616 0.618549 0
516 1 0.114221 0.602319 0
519 1 0.148455 0.592805 0
547 1 0.119296 0.626003 0
518 1 0.134423 0.61001 0
577 1 0.140036 0.634866 0
548 1 0.154643 0.617312 0
520 1 0.16953 0.598144 0
549 1 0.175593 0.623607 0
522 1 0.190239 0.60589 0
551 1 0.196036 0.63084 0
553 1 0.210472 0.612144 0
524 1 0.225454 0.595377 0
554 1 0.231269 0.619589 0
555 1 0.245614 0.601948 0
556 1 0.251667 0.626452 0
557 1 0.266089 0.608854 0
528 1 0.281254 0.591655 0
558 1 0.287492 0.614796 0
587 1 0.272215 0.632754 0
559 1 0.302558 0.597327 0
560 1 0.30835 0.621634 0
561 1 0.32298 0.603117 0
591 1 0.328033 0.627526 0
562 1 0.343669 0.611281 0
563 1 0.358054 0.592702 0
565 1 0.36376 0.617139 0
536 1 0.377697 0.598629 0
564 1 0.348493 0.634866 0
566 1 0.383623 0.62401 0
567 1 0.398293 0.605184 0
597 1 0.404345 0.629389 0
568 1 0.418618 0.610896 0
538 1 0.433664 0.593363 0
600 1 0.43844 0.617205 0
570 1 0.453848 0.599721 0
1501 1 0.458631 0.623895 0
599 1 0.424542 0.63559 0
1471 1 0.473902 0.60561 0
1472 1 0.478962 0.630829 0
1473 1 0.493586 0.613716 0
1529 1 0.00482835 0.674781 0
1470 1 0.0294988 0.641516 0
1500 1 0.0264275 0.667811 0
1499 1 0.0105076 0.650374 0
571 1 0.0497582 0.647661 0
572 1 0.0557665 0.672876 0
573 1 0.0696912 0.654837 0
603 1 0.0749076 0.680514 0
544 1 0.0833965 0.636747 0
574 1 0.089713 0.662172 0
575 1 0.103579 0.643124 0
605 1 0.109397 0.668726 0
576 1 0.12401 0.651099 0
607 1 0.129289 0.676504 0
578 1 0.145141 0.659351 0
579 1 0.16025 0.641455 0
609 1 0.165687 0.665476 0
550 1 0.180144 0.647511 0
580 1 0.186095 0.673753 0
552 1 0.216544 0.636896 0
581 1 0.200363 0.655236 0
582 1 0.221825 0.662281 0
611 1 0.207605 0.679803 0
583 1 0.23662 0.644404 0
584 1 0.242044 0.669952 0
585 1 0.256942 0.650487 0
615 1 0.263651 0.675235 0
586 1 0.277777 0.656697 0
589 1 0.292626 0.638672 0
588 1 0.298575 0.66337 0
590 1 0.313086 0.646104 0
621 1 0.318974 0.670811 0
593 1 0.333888 0.652594 0
592 1 0.338928 0.677599 0
594 1 0.353345 0.65857 0
595 1 0.368892 0.641324 0
625 1 0.374146 0.665636 0
596 1 0.389317 0.647793 0
627 1 0.394866 0.671491 0
598 1 0.41007 0.652625 0
657 1 0.414606 0.676731 0
628 1 0.430136 0.659949 0
629 1 0.444055 0.641997 0
630 1 0.450552 0.666174 0
1503 1 0.485558 0.65466 0
1502 1 0.465067 0.648915 0
1533 1 0.470245 0.672389 0
1504 1 0.490898 0.678611 0
631 1 0.0361333 0.71146 0
1530 1 0.0197643 0.692555 0
1560 1 0.015728 0.717215 0
601 1 0.0398162 0.687241 0
602 1 0.0593996 0.700536 0
633 1 0.0799822 0.704368 0
604 1 0.0949505 0.686614 0
635 1 0.100136 0.711875 0
606 1 0.1141 0.694092 0
608 1 0.150719 0.683782 0
636 1 0.12071 0.718515 0
637 1 0.135193 0.700674 0
667 1 0.141351 0.726372 0
638 1 0.155658 0.709014 0
639 1 0.170428 0.690454 0
641 1 0.177101 0.715053 0
610 1 0.192317 0.69823 0
642 1 0.197355 0.72192 0
612 1 0.212742 0.704437 0
613 1 0.227913 0.687309 0
643 1 0.23296 0.711577 0
614 1 0.248308 0.694439 0
645 1 0.254281 0.717552 0
616 1 0.269664 0.699401 0
617 1 0.284249 0.682085 0
647 1 0.274548 0.723929 0
618 1 0.289734 0.706874 0
619 1 0.304034 0.688938 0
620 1 0.31049 0.712761 0
622 1 0.324956 0.695525 0
651 1 0.330422 0.720361 0
653 1 0.345076 0.702378 0
623 1 0.358978 0.683592 0
624 1 0.365193 0.707459 0
626 1 0.380056 0.68921 0
654 1 0.352278 0.72613 0
655 1 0.386649 0.713457 0
656 1 0.400976 0.69561 0
686 1 0.406422 0.721327 0
658 1 0.420244 0.702637 0
659 1 0.434661 0.683696 0
660 1 0.441226 0.708193 0
1531 1 0.455945 0.690211 0
1561 1 0.462183 0.713781 0
1532 1 0.476905 0.696453 0
1563 1 0.48214 0.720592 0
1534 1 0.497206 0.703792 0
1619 1 0.00570887 0.765765 0
1589 1 0.0105746 0.741819 0
661 1 0.0312296 0.735355 0
1590 1 0.0257323 0.759451 0
632 1 0.0530891 0.727461 0
663 1 0.0465271 0.75175 0
662 1 0.0612713 0.769112 0
664 1 0.0674484 0.74595 0
695 1 0.0882134 0.753512 0
634 1 0.0838267 0.7289 0
665 1 0.104814 0.7366 0
697 1 0.108692 0.761628 0
666 1 0.125509 0.742723 0
668 1 0.129552 0.767398 0
669 1 0.146854 0.751768 0
640 1 0.162078 0.732743 0
670 1 0.167072 0.756617 0
671 1 0.183206 0.739299 0
672 1 0.188236 0.763604 0
644 1 0.217635 0.729096 0
673 1 0.203248 0.746089 0
674 1 0.223321 0.753302 0
703 1 0.208221 0.771741 0
675 1 0.238629 0.736897 0
705 1 0.243383 0.761429 0
646 1 0.259465 0.74279 0
677 1 0.264251 0.767301 0
648 1 0.280174 0.747957 0
649 1 0.295149 0.73093 0
679 1 0.299888 0.755276 0
650 1 0.315455 0.737693 0
681 1 0.320898 0.761627 0
652 1 0.336323 0.743835 0
682 1 0.34186 0.768998 0
683 1 0.356889 0.751755 0
685 1 0.372566 0.731746 0
684 1 0.377102 0.756673 0
715 1 0.39199 0.739697 0
714 1 0.397015 0.764983 0
717 1 0.412614 0.74667 0
716 1 0.416833 0.770491 0
687 1 0.426299 0.726705 0
688 1 0.432355 0.751587 0
689 1 0.446481 0.731783 0
719 1 0.451929 0.757578 0
690 1 0.466514 0.739928 0
1591 1 0.473304 0.764256 0
1562 1 0.487363 0.745533 0
1593 1 0.493339 0.770385 0
721 1 0.0345294 0.800254 0
1620 1 0.0196011 0.783471 0
1649 1 0.0137737 0.808021 0
691 1 0.0411853 0.776518 0
693 1 0.0546607 0.795219 0
723 1 0.0692127 0.81222 0
694 1 0.0742759 0.78767 0
692 1 0.0486323 0.819333 0
725 1 0.0897184 0.805011 0
696 1 0.0941033 0.780371 0
727 1 0.109651 0.797669 0
699 1 0.150365 0.776963 0
728 1 0.124233 0.816479 0
698 1 0.130687 0.791474 0
700 1 0.143452 0.810287 0
731 1 0.16143 0.800126 0
701 1 0.172284 0.779907 0
732 1 0.178941 0.813012 0
702 1 0.192134 0.790244 0
763 1 0.199046 0.814439 0
733 1 0.214295 0.79677 0
704 1 0.228226 0.778829 0
706 1 0.234258 0.80332 0
676 1 0.249205 0.785918 0
737 1 0.255063 0.809482 0
678 1 0.285051 0.772582 0
707 1 0.270565 0.792103 0
738 1 0.275485 0.816325 0
708 1 0.291326 0.797393 0
709 1 0.305934 0.779783 0
710 1 0.312193 0.804009 0
680 1 0.326943 0.785986 0
741 1 0.331772 0.811786 0
711 1 0.34703 0.793575 0
713 1 0.362477 0.775627 0
712 1 0.367175 0.800245 0
743 1 0.382375 0.782028 0
742 1 0.351443 0.818284 0
745 1 0.388121 0.806715 0
746 1 0.402681 0.787918 0
775 1 0.408265 0.81311 0
747 1 0.422497 0.794535 0
718 1 0.43704 0.775437 0
749 1 0.443678 0.80075 0
720 1 0.457687 0.782236 0
748 1 0.428444 0.818866 0
1621 1 0.463579 0.807697 0
1592 1 0.478452 0.788741 0
1622 1 0.483696 0.813106 0
1650 1 0.0284338 0.826224 0
1709 1 0.0228675 0.849321 0
1679 1 0.00804298 0.832322 0
1678 1 0.00313201 0.857551 0
1680 1 0.043539 0.843514 0
752 1 0.0581227 0.860817 0
751 1 0.0638563 0.836009 0
753 1 0.0783294 0.853279 0
722 1 0.0842486 0.830216 0
726 1 0.104103 0.822062 0
724 1 0.0991982 0.846693 0
755 1 0.114239 0.863675 0
757 1 0.119813 0.841014 0
756 1 0.135157 0.857944 0
729 1 0.139793 0.83365 0
759 1 0.156439 0.84945 0
730 1 0.160402 0.825428 0
761 1 0.176934 0.840576 0
792 1 0.190705 0.859259 0
735 1 0.219715 0.820621 0
762 1 0.204169 0.839879 0
734 1 0.225104 0.845654 0
764 1 0.211318 0.864315 0
736 1 0.240254 0.827369 0
765 1 0.245809 0.851051 0
767 1 0.260933 0.833673 0
766 1 0.266933 0.857763 0
768 1 0.281115 0.840368 0
739 1 0.296371 0.82161 0
769 1 0.301872 0.847242 0
740 1 0.316732 0.829003 0
770 1 0.322626 0.853953 0
771 1 0.337164 0.836035 0
801 1 0.343172 0.859518 0
773 1 0.357559 0.841698 0
744 1 0.372755 0.824533 0
803 1 0.378292 0.848789 0
774 1 0.393471 0.831209 0
776 1 0.399287 0.855635 0
777 1 0.413968 0.837934 0
778 1 0.419412 0.861928 0
779 1 0.434195 0.843149 0
750 1 0.449298 0.824773 0
780 1 0.454708 0.849015 0
1651 1 0.469992 0.830468 0
1652 1 0.47489 0.8555 0
1653 1 0.489654 0.837921 0
1683 1 0.497357 0.861921 0
781 1 0.0378986 0.868855 0
1710 1 0.0183287 0.874862 0
811 1 0.0327381 0.891803 0
1739 1 0.0127898 0.899003 0
782 1 0.0534482 0.885144 0
813 1 0.0682826 0.90164 0
783 1 0.0740107 0.877994 0
812 1 0.0472651 0.909951 0
784 1 0.0883355 0.894454 0
754 1 0.0933247 0.870186 0
785 1 0.108446 0.887162 0
786 1 0.122767 0.904595 0
787 1 0.129275 0.881442 0
788 1 0.143959 0.898809 0
758 1 0.149838 0.874929 0
760 1 0.170428 0.866981 0
789 1 0.165746 0.891495 0
791 1 0.185695 0.884785 0
790 1 0.180672 0.908921 0
823 1 0.201267 0.902603 0
793 1 0.217926 0.887698 0
795 1 0.231729 0.869043 0
794 1 0.237764 0.894446 0
796 1 0.25242 0.876003 0
825 1 0.2577 0.900686 0
797 1 0.287733 0.864907 0
827 1 0.272634 0.882484 0
826 1 0.278529 0.90808 0
798 1 0.292552 0.89041 0
799 1 0.307959 0.871363 0
829 1 0.313438 0.895894 0
800 1 0.328664 0.878613 0
831 1 0.334782 0.902425 0
802 1 0.34946 0.885162 0
772 1 0.363583 0.866047 0
804 1 0.369615 0.890429 0
805 1 0.383624 0.872377 0
806 1 0.390335 0.896597 0
807 1 0.404358 0.878994 0
837 1 0.410433 0.904609 0
809 1 0.439916 0.867298 0
808 1 0.425149 0.886665 0
810 1 0.446768 0.891627 0
1681 1 0.460119 0.87319 0
1711 1 0.466752 0.8978 0
1682 1 0.481586 0.878568 0
1713 1 0.487266 0.905092 0
1740 1 0.0274772 0.916126 0
1769 1 0.0228523 0.940997 0
1738 1 0.00842433 0.92343 0
1768 1 0.00209211 0.94756 0
841 1 0.0428132 0.933804 0
842 1 0.0574466 0.950723 0
843 1 0.0630283 0.926531 0
844 1 0.0784222 0.943538 0
814 1 0.0828926 0.919727 0
815 1 0.103113 0.912566 0
845 1 0.0982486 0.936187 0
846 1 0.113076 0.954032 0
816 1 0.11882 0.929797 0
847 1 0.133371 0.947413 0
817 1 0.138125 0.922765 0
818 1 0.153633 0.941259 0
819 1 0.159804 0.91501 0
820 1 0.174492 0.932607 0
851 1 0.188933 0.949791 0
821 1 0.195908 0.926145 0
824 1 0.220848 0.912665 0
822 1 0.209592 0.943746 0
853 1 0.228941 0.93656 0
855 1 0.242559 0.918392 0
854 1 0.247814 0.946016 0
856 1 0.263164 0.92545 0
885 1 0.270202 0.949298 0
857 1 0.284484 0.93246 0
828 1 0.298855 0.914616 0
859 1 0.305258 0.938805 0
830 1 0.32033 0.920536 0
860 1 0.326082 0.944769 0
832 1 0.341078 0.926349 0
861 1 0.346217 0.95094 0
833 1 0.355579 0.909476 0
863 1 0.36085 0.933854 0
834 1 0.375764 0.914911 0
865 1 0.381305 0.939527 0
835 1 0.395649 0.921463 0
836 1 0.401524 0.945555 0
838 1 0.416179 0.927936 0
867 1 0.422553 0.951278 0
839 1 0.431508 0.910622 0
869 1 0.437571 0.933865 0
840 1 0.452759 0.916618 0
1741 1 0.457554 0.940458 0
1743 1 0.493077 0.929306 0
1712 1 0.47259 0.923313 0
1742 1 0.478439 0.94821 0
1744 1 0.499499 0.954197 0
1770 1 0.0374182 0.958284 0
1799 1 0.0176667 0.965704 0
1800 1 0.0332131 0.983018 0
1798 1 0.0128122 0.989937 0
871 1 0.0530371 0.97531 0
872 1 0.0681536 0.992598 0
873 1 0.0730729 0.967774 0
1 1 0.0482929 1.0004 0
874 1 0.0888147 0.984716 0
875 1 0.0935097 0.961263 0
876 1 0.108921 0.977752 0
7 1 0.12298 0.996338 0
877 1 0.128476 0.970808 0
878 1 0.144168 0.989474 0
848 1 0.148788 0.965062 0
849 1 0.168657 0.957675 0
879 1 0.164015 0.981885 0
850 1 0.183729 0.974857 0
881 1 0.179513 0.999552 0
11 1 0.199272 0.99162 0
852 1 0.204181 0.967418 0
883 1 0.224769 0.961248 0
882 1 0.219315 0.984898 0
884 1 0.239403 0.978724 0
886 1 0.257233 0.968219 0
16 1 0.25856 0.994506 0
887 1 0.289948 0.957451 0
17 1 0.276486 0.976855 0
888 1 0.2969 0.980793 0
18 1 0.283493 0.999131 0
858 1 0.310934 0.962854 0
889 1 0.317619 0.988156 0
891 1 0.330933 0.968659 0
890 1 0.337798 0.993972 0
862 1 0.351256 0.975509 0
864 1 0.366668 0.958413 0
893 1 0.372588 0.982552 0
895 1 0.386914 0.963919 0
896 1 0.393763 0.988686 0
866 1 0.407085 0.969162 0
897 1 0.413416 0.996295 0
870 1 0.442467 0.959221 0
868 1 0.427149 0.976526 0
899 1 0.44825 0.984044 0
1771 1 0.463236 0.965416 0
1773 1 0.483104 0.97196 0
1772 1 0.468586 0.990475 0
903 1 0.489004 0.996599 0
472 1 0.356852 0.499453 0
904 1 0.515133 0.0264852 0
905 1 0.50928 0.00144563 0
906 1 0.52984 0.00876815 0
935 1 0.535008 0.0339752 0
908 1 0.549949 0.0153289 0
937 1 0.555814 0.0394666 0
939 1 0.570693 0.0213765 0
940 1 0.592119 0.0268125 0
941 1 0.585459 0.00261545 0
942 1 0.779268 0.0254158 0
943 1 0.799356 0.0183193 0
944 1 0.794667 0.0424189 0
945 1 0.814531 0.0349625 0
914 1 0.819737 0.0104539 0
947 1 0.834908 0.0281254 0
916 1 0.840044 0.00357968 0
918 1 0.856109 0.0207839 0
949 1 0.870925 0.0385391 0
919 1 0.876418 0.0148393 0
948 1 0.850599 0.0459933 0
920 1 0.890948 0.0322277 0
1790 1 0.896437 0.0068556 0
951 1 0.911161 0.0240192 0
952 1 0.925651 0.0424083 0
922 1 0.931285 0.0179049 0
953 1 0.946627 0.0347763 0
924 1 0.951849 0.0109965 0
955 1 0.96754 0.0280567 0
925 1 0.972701 0.00286856 0
926 1 0.987081 0.021195 0
933 1 0.500879 0.0452358 0
963 1 0.506471 0.0695835 0
934 1 0.521167 0.0517013 0
965 1 0.526474 0.0768734 0
936 1 0.540744 0.0582038 0
966 1 0.546837 0.0825481 0
967 1 0.561514 0.0642897 0
968 1 0.56697 0.0888787 0
938 1 0.5764 0.0453931 0
969 1 0.581992 0.0705322 0
970 1 0.770667 0.0737627 0
971 1 0.774401 0.0495885 0
973 1 0.790425 0.0664983 0
1003 1 0.80537 0.0849231 0
972 1 0.785539 0.0924895 0
975 1 0.809615 0.059874 0
974 1 0.825048 0.076719 0
946 1 0.829778 0.0516456 0
976 1 0.845593 0.0706548 0
977 1 0.866386 0.0637288 0
978 1 0.881067 0.0812201 0
1007 1 0.860676 0.088487 0
979 1 0.885878 0.0563297 0
950 1 0.906557 0.0485997 0
980 1 0.900951 0.0741281 0
981 1 0.921445 0.0677192 0
982 1 0.936351 0.0851923 0
983 1 0.941151 0.0594064 0
984 1 0.956861 0.0778543 0
954 1 0.961697 0.0525949 0
956 1 0.982445 0.0464371 0
985 1 0.976595 0.0698053 0
987 1 0.997952 0.0634187 0
986 1 0.992026 0.0890308 0