ITEM: TIMESTEP
252000
ITEM: NUMBER OF ATOMS
1800
ITEM: BOX BOUNDS pp pp pp
-8.9657519936195342e+00 1.7396575199362144e+02
1.1826529217466231e+00 1.6381734707825530e+02
0.0000000000000000e+00 5.5000000000000000e+00
ITEM: ATOMS id type xs ys zs
930 1 0.0286398 0.024566 0
929 1 0.0130521 0.00732824 0
959 1 0.00703419 0.0316367 0
31 1 0.0444335 0.0418289 0
2 1 0.0491197 0.0161821 0
33 1 0.0653237 0.0347983 0
3 1 0.0711373 0.00890057 0
4 1 0.0865393 0.0275822 0
6 1 0.107427 0.0205634 0
35 1 0.101626 0.0443717 0
5 1 0.0923792 0.00274418 0
37 1 0.123332 0.0378532 0
8 1 0.129082 0.0130578 0
39 1 0.145352 0.0295368 0
880 1 0.150326 0.005256 0
9 1 0.166794 0.0228523 0
40 1 0.182107 0.0404548 0
10 1 0.188234 0.0164138 0
41 1 0.204616 0.0335444 0
12 1 0.20851 0.00874406 0
14 1 0.224186 0.0259248 0
13 1 0.22943 0.00267773 0
15 1 0.245974 0.0175655 0
45 1 0.241237 0.0430706 0
46 1 0.266993 0.0164371 0
77 1 0.26966 0.042013 0
47 1 0.287624 0.0241266 0
19 1 0.301677 0.00479112 0
1289 1 -0.000208908 0.411424 0
49 1 0.308173 0.0315899 0
20 1 0.323159 0.0125185 0
51 1 0.329916 0.0368683 0
21 1 0.345143 0.0186493 0
23 1 0.367326 0.0242859 0
22 1 0.352013 0.0434029 0
894 1 0.382694 0.00631853 0
892 1 0.360702 0.000844979 0
24 1 0.388795 0.0307301 0
25 1 0.403467 0.012449 0
26 1 0.409806 0.0374745 0
27 1 0.424596 0.0187784 0
29 1 0.446826 0.0259072 0
28 1 0.431642 0.0445988 0
898 1 0.440916 0.00102711 0
900 1 0.461558 0.00720277 0
30 1 0.468262 0.0336655 0
901 1 0.483725 0.0147937 0
931 1 0.490693 0.0388562 0
960 1 0.0233203 0.0492803 0
989 1 0.0178335 0.0740966 0
958 1 0.00232582 0.0555048 0
990 1 0.0344461 0.0912091 0
61 1 0.039773 0.0662958 0
62 1 0.0552642 0.0855956 0
32 1 0.0607916 0.0599812 0
63 1 0.0761118 0.0775601 0
34 1 0.081057 0.0523723 0
65 1 0.0965597 0.0692647 0
66 1 0.113018 0.0864337 0
36 1 0.117585 0.0620535 0
67 1 0.133552 0.0781758 0
38 1 0.139922 0.0547253 0
69 1 0.161342 0.0471429 0
68 1 0.155564 0.0717423 0
70 1 0.17131 0.0888094 0
71 1 0.176807 0.064276 0
72 1 0.192956 0.0815495 0
42 1 0.198138 0.0572057 0
43 1 0.219906 0.0513736 0
73 1 0.213941 0.0745097 0
44 1 0.235135 0.0694328 0
74 1 0.261002 0.0862158 0
75 1 0.255917 0.0616523 0
76 1 0.276774 0.0679142 0
48 1 0.292189 0.0493626 0
79 1 0.298523 0.0731766 0
50 1 0.314439 0.0555098 0
81 1 0.319996 0.0799926 0
52 1 0.335592 0.0613994 0
82 1 0.341935 0.0854645 0
83 1 0.35772 0.0679086 0
53 1 0.373516 0.0498347 0
54 1 0.378955 0.0747343 0
55 1 0.395554 0.0565846 0
56 1 0.399994 0.0813052 0
57 1 0.416557 0.0626437 0
87 1 0.42135 0.0874765 0
58 1 0.437525 0.069762 0
59 1 0.453216 0.0516155 0
89 1 0.45933 0.0751405 0
932 1 0.496208 0.0646192 0
60 1 0.474804 0.0567469 0
961 1 0.480201 0.0812662 0
1020 1 0.0285712 0.116602 0
1019 1 0.0124541 0.0995573 0
1049 1 0.00798316 0.123794 0
121 1 0.0451154 0.133141 0
91 1 0.049701 0.10967 0
92 1 0.0664746 0.127011 0
93 1 0.0714303 0.102325 0
64 1 0.0917691 0.0939691 0
94 1 0.0873041 0.119889 0
95 1 0.108495 0.110835 0
96 1 0.123537 0.128149 0
99 1 0.150563 0.0955815 0
97 1 0.129514 0.102698 0
98 1 0.144983 0.119396 0
100 1 0.166087 0.113253 0
130 1 0.183914 0.130071 0
101 1 0.187395 0.10572 0
102 1 0.205858 0.121871 0
103 1 0.208851 0.0988917 0
104 1 0.22921 0.121058 0
105 1 0.229511 0.0931657 0
106 1 0.247277 0.106031 0
137 1 0.252546 0.130095 0
107 1 0.269062 0.110674 0
78 1 0.283251 0.091472 0
109 1 0.290651 0.117222 0
108 1 0.273982 0.135375 0
80 1 0.304732 0.0976987 0
110 1 0.311258 0.122394 0
111 1 0.326379 0.103572 0
141 1 0.332753 0.129362 0
84 1 0.363959 0.0930628 0
113 1 0.347857 0.110601 0
112 1 0.369096 0.117795 0
143 1 0.353775 0.13548 0
85 1 0.385622 0.100541 0
115 1 0.391557 0.123479 0
86 1 0.406398 0.105548 0
116 1 0.412533 0.130625 0
88 1 0.443486 0.0931666 0
117 1 0.427472 0.111441 0
119 1 0.449974 0.11743 0
118 1 0.434097 0.135177 0
90 1 0.465267 0.0997791 0
120 1 0.471196 0.124219 0
991 1 0.486059 0.105625 0
992 1 0.492378 0.130087 0
1050 1 0.0246717 0.1416 0
1079 1 0.0183548 0.16527 0
1048 1 0.00334954 0.147661 0
151 1 0.0397807 0.158984 0
122 1 0.0603509 0.151064 0
152 1 0.0572139 0.17749 0
125 1 0.103764 0.136578 0
153 1 0.0783981 0.168658 0
123 1 0.0822209 0.143967 0
124 1 0.101755 0.172324 0
126 1 0.118392 0.155987 0
157 1 0.138555 0.16652 0
127 1 0.140072 0.143377 0
155 1 0.122513 0.181057 0
129 1 0.161111 0.137792 0
128 1 0.161568 0.170624 0
159 1 0.178869 0.153606 0
132 1 0.183904 0.177105 0
131 1 0.199938 0.159871 0
133 1 0.216522 0.142516 0
134 1 0.220894 0.166846 0
135 1 0.237594 0.148107 0
165 1 0.242442 0.172391 0
136 1 0.258471 0.154389 0
167 1 0.263251 0.177987 0
138 1 0.279753 0.160442 0
139 1 0.296377 0.141041 0
169 1 0.302248 0.165451 0
140 1 0.317042 0.147932 0
171 1 0.323185 0.171964 0
142 1 0.338234 0.153098 0
172 1 0.34425 0.177718 0
173 1 0.360132 0.159245 0
114 1 0.37634 0.141165 0
144 1 0.380818 0.1654 0
145 1 0.396924 0.148469 0
146 1 0.40223 0.172714 0
147 1 0.41769 0.154854 0
148 1 0.439511 0.160054 0
177 1 0.424555 0.178611 0
149 1 0.45558 0.141385 0
150 1 0.460897 0.165545 0
1051 1 0.481892 0.173485 0
1021 1 0.477148 0.148565 0
1022 1 0.498639 0.154596 0
1080 1 0.0345217 0.183676 0
1107 1 0.00842517 0.214452 0
1109 1 0.0320957 0.218734 0
1078 1 0.0138323 0.191066 0
181 1 0.0504667 0.201326 0
183 1 0.0707251 0.210162 0
182 1 0.0545706 0.226364 0
154 1 0.0857373 0.191591 0
185 1 0.0924812 0.215893 0
156 1 0.108168 0.199143 0
186 1 0.113707 0.223082 0
158 1 0.129483 0.205301 0
160 1 0.146072 0.188735 0
189 1 0.151345 0.212303 0
161 1 0.167983 0.194695 0
191 1 0.172786 0.219984 0
162 1 0.188566 0.201151 0
163 1 0.205463 0.183899 0
192 1 0.194536 0.22541 0
193 1 0.210144 0.207552 0
164 1 0.226335 0.189914 0
195 1 0.23158 0.214371 0
166 1 0.247298 0.196456 0
196 1 0.253143 0.220552 0
197 1 0.269186 0.201383 0
168 1 0.285023 0.183883 0
198 1 0.275444 0.225392 0
199 1 0.292085 0.20715 0
170 1 0.307701 0.189666 0
200 1 0.313579 0.214442 0
201 1 0.328841 0.195801 0
202 1 0.334237 0.22041 0
174 1 0.366123 0.184524 0
203 1 0.349584 0.201664 0
204 1 0.372045 0.209372 0
233 1 0.355959 0.226275 0
175 1 0.387057 0.191237 0
205 1 0.393003 0.216333 0
176 1 0.408422 0.196847 0
207 1 0.414397 0.220783 0
179 1 0.446106 0.184578 0
178 1 0.430647 0.202479 0
209 1 0.451501 0.209837 0
208 1 0.43536 0.227359 0
180 1 0.466287 0.190983 0
1081 1 0.472435 0.215669 0
1052 1 0.487401 0.196799 0
1082 1 0.494435 0.220403 0
1140 1 0.0232445 0.261218 0
1110 1 0.0178119 0.23662 0
1108 1 0.00185481 0.253881 0
211 1 0.0395567 0.243738 0
212 1 0.0437644 0.268675 0
213 1 0.0603808 0.250295 0
184 1 0.0772316 0.233756 0
214 1 0.0815664 0.257459 0
215 1 0.0982891 0.241272 0
216 1 0.102275 0.264767 0
217 1 0.11868 0.247425 0
218 1 0.123986 0.271127 0
187 1 0.13499 0.229113 0
188 1 0.139563 0.25385 0
190 1 0.155739 0.236203 0
220 1 0.160921 0.260756 0
221 1 0.177711 0.24325 0
222 1 0.183871 0.267343 0
223 1 0.199416 0.249348 0
194 1 0.215344 0.231577 0
224 1 0.221752 0.255804 0
225 1 0.236498 0.238586 0
226 1 0.243584 0.262114 0
227 1 0.259174 0.244668 0
257 1 0.265092 0.267687 0
228 1 0.280911 0.249696 0
229 1 0.297596 0.232732 0
230 1 0.302274 0.256187 0
231 1 0.318444 0.23857 0
261 1 0.324402 0.262244 0
232 1 0.339688 0.243868 0
263 1 0.345328 0.26823 0
234 1 0.360592 0.250834 0
235 1 0.376678 0.233041 0
265 1 0.382489 0.257343 0
206 1 0.398645 0.239224 0
236 1 0.404113 0.263173 0
237 1 0.419044 0.24527 0
239 1 0.441678 0.251068 0
238 1 0.426386 0.26927 0
210 1 0.457411 0.234307 0
1351 1 0.477383 0.490324 0
240 1 0.463018 0.257923 0
1111 1 0.478996 0.239751 0
1112 1 0.485302 0.263262 0
1139 1 0.00686858 0.279225 0
1169 1 0.0125743 0.303117 0
241 1 0.0282258 0.285978 0
271 1 0.0338026 0.309936 0
243 1 0.0654334 0.274614 0
242 1 0.049081 0.292849 0
244 1 0.0711493 0.299204 0
273 1 0.0560406 0.316984 0
245 1 0.0867252 0.282475 0
246 1 0.0929397 0.307555 0
247 1 0.10835 0.290066 0
248 1 0.113656 0.314141 0
249 1 0.130388 0.296935 0
219 1 0.146411 0.278651 0
250 1 0.151589 0.303079 0
251 1 0.168083 0.28535 0
281 1 0.173102 0.308854 0
252 1 0.189449 0.291434 0
253 1 0.204868 0.273624 0
283 1 0.195199 0.31567 0
254 1 0.2108 0.297723 0
255 1 0.227885 0.279964 0
285 1 0.233196 0.304282 0
256 1 0.249483 0.285715 0
287 1 0.255741 0.310545 0
259 1 0.286904 0.273765 0
258 1 0.271269 0.291951 0
288 1 0.277477 0.315279 0
289 1 0.292969 0.298293 0
260 1 0.308263 0.280051 0
291 1 0.313517 0.304299 0
262 1 0.32991 0.287186 0
292 1 0.334903 0.311367 0
293 1 0.35097 0.293637 0
264 1 0.365922 0.275906 0
295 1 0.372273 0.299069 0
294 1 0.356726 0.31801 0
266 1 0.388033 0.281135 0
297 1 0.393273 0.30675 0
267 1 0.409568 0.28714 0
298 1 0.41476 0.311616 0
268 1 0.431323 0.293988 0
269 1 0.447674 0.275916 0
270 1 0.452774 0.299692 0
1141 1 0.469303 0.281898 0
300 1 0.474233 0.306042 0
1171 1 0.49056 0.288312 0
1172 1 0.496772 0.312376 0
1229 1 0.0239395 0.351545 0
1170 1 0.0179563 0.327131 0
1199 1 0.00274022 0.344433 0
1200 1 0.040201 0.334364 0
301 1 0.045335 0.358711 0
272 1 0.0615551 0.341207 0
275 1 0.0775777 0.324288 0
274 1 0.0833982 0.348209 0
276 1 0.0989429 0.331034 0
305 1 0.104635 0.35579 0
279 1 0.135202 0.320852 0
277 1 0.119667 0.338361 0
278 1 0.141547 0.344286 0
307 1 0.126434 0.362349 0
280 1 0.15728 0.32791 0
311 1 0.163968 0.351335 0
282 1 0.180289 0.332617 0
312 1 0.186246 0.35685 0
313 1 0.201694 0.339165 0
284 1 0.216693 0.321543 0
315 1 0.223451 0.345743 0
286 1 0.23939 0.328822 0
316 1 0.245021 0.352175 0
317 1 0.261191 0.333587 0
318 1 0.266962 0.358868 0
319 1 0.282528 0.340721 0
290 1 0.298478 0.323169 0
320 1 0.303556 0.347383 0
321 1 0.319103 0.328845 0
322 1 0.324954 0.352855 0
323 1 0.34057 0.335499 0
325 1 0.362519 0.341593 0
324 1 0.346044 0.359825 0
296 1 0.377929 0.32398 0
326 1 0.383682 0.34891 0
327 1 0.399858 0.330346 0
328 1 0.405943 0.353593 0
329 1 0.421341 0.336053 0
299 1 0.437247 0.317893 0
359 1 0.442528 0.342429 0
330 1 0.458495 0.324404 0
358 1 0.427036 0.360455 0
360 1 0.464116 0.34867 0
1201 1 0.479705 0.330988 0
1231 1 0.485366 0.355761 0
1259 1 0.00813021 0.368873 0
1230 1 0.0295392 0.375881 0
331 1 0.0363631 0.40164 0
1260 1 0.0150553 0.393614 0
303 1 0.0676997 0.365035 0
302 1 0.0514198 0.383264 0
333 1 0.0735571 0.39055 0
332 1 0.0573951 0.407771 0
304 1 0.0896305 0.373321 0
335 1 0.0951852 0.397385 0
306 1 0.111001 0.380001 0
337 1 0.11708 0.403628 0
308 1 0.133872 0.386083 0
309 1 0.148331 0.368514 0
339 1 0.155302 0.393104 0
310 1 0.170473 0.375189 0
341 1 0.176779 0.400069 0
343 1 0.191318 0.381397 0
314 1 0.207629 0.363141 0
342 1 0.197662 0.405205 0
344 1 0.212639 0.387808 0
345 1 0.229063 0.369257 0
346 1 0.234295 0.393271 0
347 1 0.25016 0.376396 0
377 1 0.255069 0.400788 0
348 1 0.272111 0.382582 0
349 1 0.288644 0.366038 0
378 1 0.277128 0.407743 0
350 1 0.293939 0.390092 0
351 1 0.310362 0.371585 0
381 1 0.315636 0.395839 0
353 1 0.331538 0.378351 0
352 1 0.336843 0.403211 0
354 1 0.352604 0.384451 0
355 1 0.367912 0.365792 0
356 1 0.373843 0.390142 0
357 1 0.39043 0.372666 0
386 1 0.395407 0.397088 0
387 1 0.410907 0.379269 0
388 1 0.416832 0.40411 0
389 1 0.431997 0.385758 0
1232 1 0.447829 0.367281 0
1261 1 0.453657 0.391497 0
1262 1 0.469472 0.373621 0
1293 1 0.475544 0.398149 0
1263 1 0.490629 0.380478 0
1294 1 0.496633 0.405095 0
1319 1 0.00351189 0.436237 0
391 1 0.0266531 0.443616 0
1290 1 0.0205875 0.420184 0
361 1 0.0426849 0.425667 0
362 1 0.0477374 0.450026 0
363 1 0.0636614 0.432629 0
334 1 0.0791371 0.414931 0
365 1 0.0859155 0.438895 0
336 1 0.100471 0.420922 0
366 1 0.107462 0.446246 0
338 1 0.139352 0.410707 0
367 1 0.12309 0.42793 0
369 1 0.145591 0.434917 0
368 1 0.129461 0.452099 0
340 1 0.160866 0.416966 0
370 1 0.167083 0.440879 0
371 1 0.182394 0.422858 0
401 1 0.188245 0.446573 0
372 1 0.20374 0.429115 0
373 1 0.219464 0.410986 0
374 1 0.224617 0.435583 0
403 1 0.209854 0.454084 0
375 1 0.240455 0.417841 0
405 1 0.245538 0.442148 0
376 1 0.261602 0.42437 0
407 1 0.26772 0.448841 0
409 1 0.283674 0.431325 0
379 1 0.299828 0.414369 0
380 1 0.304721 0.438378 0
382 1 0.321126 0.420352 0
413 1 0.326717 0.446007 0
383 1 0.343036 0.427932 0
385 1 0.358689 0.408997 0
414 1 0.364712 0.433616 0
412 1 0.34931 0.451693 0
384 1 0.379817 0.41464 0
415 1 0.385737 0.439534 0
417 1 0.401126 0.42153 0
416 1 0.407057 0.446049 0
419 1 0.438225 0.410022 0
418 1 0.422439 0.428237 0
390 1 0.443467 0.435062 0
447 1 0.428377 0.452825 0
1291 1 0.459268 0.415234 0
1292 1 0.481329 0.422681 0
1321 1 0.465251 0.439785 0
1322 1 0.486984 0.446863 0
1320 1 0.0104887 0.460138 0
421 1 0.0174352 0.48403 0
392 1 0.0333657 0.467146 0
422 1 0.0391139 0.491634 0
364 1 0.0702304 0.456735 0
393 1 0.0550163 0.47417 0
394 1 0.0769532 0.481343 0
423 1 0.0608865 0.498338 0
395 1 0.091264 0.462788 0
396 1 0.0978141 0.487717 0
397 1 0.114021 0.46985 0
427 1 0.119724 0.494734 0
399 1 0.151197 0.459182 0
398 1 0.135185 0.476699 0
429 1 0.15748 0.48327 0
400 1 0.173389 0.465366 0
431 1 0.179276 0.489325 0
402 1 0.194666 0.472378 0
432 1 0.199763 0.495843 0
433 1 0.21591 0.479011 0
404 1 0.230478 0.45975 0
435 1 0.237374 0.484091 0
406 1 0.251493 0.466323 0
436 1 0.25845 0.491017 0
408 1 0.273724 0.472902 0
410 1 0.288819 0.45493 0
441 1 0.294801 0.48024 0
439 1 0.279411 0.497295 0
411 1 0.310296 0.462271 0
440 1 0.316475 0.486212 0
442 1 0.332751 0.469758 0
471 1 0.338042 0.49419 0
473 1 0.354372 0.476956 0
443 1 0.370179 0.45826 0
444 1 0.376442 0.481601 0
445 1 0.392231 0.464598 0
475 1 0.397465 0.488807 0
446 1 0.412935 0.471593 0
477 1 0.418548 0.49508 0
449 1 0.455776 0.483187 0
448 1 0.434831 0.477182 0
420 1 0.44988 0.458633 0
1352 1 0.498832 0.49548 0
450 1 0.47163 0.465434 0
1353 1 0.493176 0.471585 0
452 1 0.0277341 0.53504 0
451 1 0.0230817 0.509922 0
1380 1 0.00735714 0.527013 0
1350 1 0.00213736 0.503202 0
453 1 0.0441316 0.516205 0
454 1 0.0503694 0.540061 0
424 1 0.0656198 0.522295 0
425 1 0.0830719 0.505098 0
455 1 0.0881212 0.528871 0
426 1 0.104459 0.512318 0
456 1 0.109214 0.537963 0
457 1 0.125155 0.519074 0
459 1 0.146867 0.524867 0
428 1 0.14139 0.501768 0
458 1 0.130711 0.543914 0
430 1 0.16322 0.507804 0
460 1 0.167627 0.53227 0
461 1 0.184466 0.513942 0
462 1 0.189983 0.539486 0
463 1 0.205865 0.521312 0
434 1 0.22092 0.502919 0
464 1 0.227089 0.527667 0
465 1 0.242667 0.509054 0
466 1 0.248463 0.534315 0
437 1 0.264012 0.515805 0
497 1 0.269782 0.540558 0
467 1 0.285149 0.523364 0
438 1 0.300916 0.504953 0
468 1 0.306748 0.529361 0
469 1 0.32196 0.511044 0
499 1 0.327424 0.535965 0
470 1 0.343216 0.518688 0
503 1 0.365688 0.524286 0
501 1 0.350021 0.541895 0
474 1 0.38152 0.506934 0
472 1 0.359526 0.500666 0
505 1 0.388106 0.531302 0
476 1 0.40312 0.512512 0
506 1 0.409481 0.538368 0
507 1 0.424594 0.519978 0
480 1 0.446818 0.526473 0
478 1 0.441445 0.502317 0
509 1 0.430973 0.543974 0
479 1 0.462022 0.508298 0
510 1 0.46832 0.533023 0
1381 1 0.483914 0.514799 0
1411 1 0.490064 0.539151 0
481 1 0.0124586 0.552102 0
483 1 0.0353202 0.558706 0
1410 1 0.0193218 0.576193 0
482 1 0.0403776 0.58299 0
485 1 0.071538 0.546557 0
513 1 0.0560122 0.564974 0
514 1 0.061401 0.589703 0
484 1 0.0774249 0.571267 0
486 1 0.0929621 0.55392 0
515 1 0.0989268 0.578702 0
487 1 0.115079 0.561448 0
517 1 0.120439 0.586872 0
489 1 0.151945 0.55054 0
488 1 0.135914 0.569389 0
490 1 0.157844 0.574982 0
491 1 0.172639 0.556337 0
521 1 0.17906 0.580756 0
493 1 0.21091 0.546027 0
492 1 0.194924 0.56335 0
523 1 0.200188 0.587064 0
494 1 0.21706 0.569549 0
495 1 0.232524 0.552117 0
525 1 0.237973 0.576618 0
496 1 0.254037 0.558773 0
526 1 0.259572 0.582929 0
527 1 0.275834 0.564664 0
498 1 0.291337 0.54716 0
529 1 0.296516 0.57178 0
528 1 0.281291 0.589679 0
500 1 0.311982 0.553776 0
530 1 0.318495 0.577822 0
531 1 0.334536 0.559611 0
532 1 0.339958 0.583994 0
533 1 0.355986 0.565806 0
502 1 0.371516 0.548798 0
534 1 0.377421 0.572862 0
504 1 0.393573 0.556393 0
535 1 0.399072 0.581073 0
508 1 0.415076 0.562264 0
537 1 0.420511 0.586721 0
539 1 0.436117 0.56828 0
540 1 0.452371 0.55051 0
569 1 0.456957 0.575958 0
1442 1 0.479483 0.582301 0
1441 1 0.473659 0.557477 0
1412 1 0.495202 0.56378 0
511 1 0.0233214 0.599916 0
541 1 0.0301996 0.624908 0
1440 1 0.00827702 0.618606 0
1439 1 0.0021744 0.593501 0
512 1 0.0451016 0.606382 0
542 1 0.0519778 0.630804 0
543 1 0.0674768 0.612631 0
545 1 0.0827866 0.595101 0
546 1 0.0887569 0.620038 0
516 1 0.104838 0.604321 0
547 1 0.109959 0.630022 0
518 1 0.12634 0.611425 0
519 1 0.142493 0.592368 0
548 1 0.147859 0.617386 0
577 1 0.131421 0.635663 0
520 1 0.163416 0.600133 0
549 1 0.169198 0.623938 0
522 1 0.184826 0.605529 0
551 1 0.190256 0.629416 0
553 1 0.205798 0.611579 0
524 1 0.221429 0.593976 0
554 1 0.227425 0.618222 0
555 1 0.243813 0.600604 0
556 1 0.249402 0.623967 0
557 1 0.265851 0.607195 0
558 1 0.286952 0.613496 0
587 1 0.270714 0.630842 0
559 1 0.303217 0.595793 0
561 1 0.324262 0.602031 0
560 1 0.308624 0.620655 0
591 1 0.330074 0.627512 0
562 1 0.345034 0.610044 0
563 1 0.36149 0.589678 0
565 1 0.367076 0.615649 0
564 1 0.351309 0.6341 0
536 1 0.382698 0.597868 0
566 1 0.388398 0.622094 0
567 1 0.404994 0.605258 0
597 1 0.410184 0.630249 0
568 1 0.426297 0.611689 0
538 1 0.441513 0.593199 0
600 1 0.44797 0.616281 0
599 1 0.432342 0.635656 0
570 1 0.463824 0.599745 0
1501 1 0.470407 0.624248 0
1471 1 0.485248 0.605508 0
1472 1 0.492041 0.630518 0
1470 1 0.0148509 0.642789 0
571 1 0.0360009 0.648542 0
1500 1 0.00917759 0.667422 0
572 1 0.0420131 0.672696 0
544 1 0.0725246 0.637189 0
573 1 0.0576628 0.65523 0
574 1 0.0780827 0.663821 0
575 1 0.0931953 0.646304 0
605 1 0.0999841 0.671256 0
576 1 0.114306 0.653552 0
607 1 0.121444 0.677496 0
578 1 0.137478 0.65972 0
579 1 0.153198 0.64232 0
609 1 0.158408 0.666861 0
550 1 0.173897 0.648654 0
580 1 0.180072 0.671954 0
552 1 0.212023 0.635978 0
581 1 0.196932 0.653856 0
611 1 0.202662 0.678859 0
582 1 0.217839 0.661256 0
583 1 0.23392 0.64278 0
584 1 0.239434 0.667155 0
585 1 0.256027 0.64992 0
615 1 0.260411 0.674032 0
586 1 0.276316 0.655988 0
589 1 0.292598 0.638107 0
588 1 0.297649 0.662273 0
617 1 0.2816 0.680516 0
590 1 0.313791 0.64464 0
621 1 0.319886 0.669386 0
593 1 0.334824 0.651403 0
592 1 0.341424 0.677186 0
594 1 0.356621 0.657693 0
595 1 0.373392 0.639612 0
625 1 0.378475 0.663471 0
596 1 0.393981 0.646578 0
627 1 0.401044 0.670757 0
598 1 0.416773 0.653479 0
657 1 0.422369 0.678141 0
628 1 0.438511 0.659824 0
629 1 0.453809 0.6412 0
630 1 0.460302 0.665399 0
1503 1 0.498665 0.654804 0
1502 1 0.476258 0.64867 0
1533 1 0.482212 0.673263 0
601 1 0.0243027 0.685941 0
631 1 0.0203597 0.70959 0
632 1 0.0378629 0.72357 0
1530 1 0.00269191 0.692036 0
603 1 0.0622921 0.681718 0
602 1 0.0452631 0.698471 0
633 1 0.0663961 0.708249 0
604 1 0.0835008 0.688273 0
635 1 0.089212 0.713252 0
606 1 0.105603 0.696282 0
636 1 0.112168 0.720341 0
637 1 0.126806 0.70165 0
608 1 0.142213 0.685231 0
638 1 0.14856 0.708692 0
667 1 0.133591 0.725977 0
639 1 0.164331 0.690632 0
641 1 0.171337 0.713909 0
610 1 0.186107 0.695799 0
642 1 0.192461 0.721621 0
612 1 0.20813 0.703956 0
613 1 0.223749 0.685125 0
643 1 0.230082 0.709169 0
614 1 0.244646 0.690835 0
645 1 0.250643 0.718176 0
616 1 0.26609 0.699474 0
647 1 0.273045 0.724164 0
618 1 0.287019 0.705367 0
619 1 0.304099 0.685933 0
620 1 0.308766 0.710567 0
622 1 0.325261 0.695016 0
651 1 0.330387 0.71976 0
623 1 0.363195 0.681861 0
653 1 0.346463 0.701918 0
624 1 0.368219 0.706085 0
654 1 0.352291 0.725931 0
626 1 0.385074 0.688368 0
655 1 0.389949 0.712195 0
656 1 0.406212 0.694547 0
686 1 0.41193 0.719649 0
658 1 0.428554 0.701835 0
659 1 0.444181 0.685031 0
660 1 0.449617 0.708537 0
687 1 0.434524 0.727944 0
1531 1 0.466041 0.691298 0
1561 1 0.47166 0.715268 0
1532 1 0.487516 0.696924 0
1563 1 0.492616 0.722498 0
663 1 0.0310883 0.749769 0
661 1 0.0151463 0.733442 0
1590 1 0.00944942 0.758149 0
662 1 0.0480292 0.766532 0
634 1 0.0739505 0.732634 0
664 1 0.053097 0.74304 0
695 1 0.0702617 0.757576 0
665 1 0.096242 0.738376 0
697 1 0.102873 0.762835 0
666 1 0.117776 0.74336 0
668 1 0.125164 0.767609 0
669 1 0.139577 0.750002 0
640 1 0.154874 0.732019 0
670 1 0.160207 0.75552 0
671 1 0.176032 0.738979 0
672 1 0.181909 0.762889 0
644 1 0.214315 0.727695 0
673 1 0.198026 0.745115 0
703 1 0.202644 0.770912 0
674 1 0.218553 0.753216 0
675 1 0.235216 0.735711 0
705 1 0.240874 0.759854 0
646 1 0.25717 0.74236 0
677 1 0.262536 0.766358 0
648 1 0.278918 0.74867 0
649 1 0.294147 0.730231 0
679 1 0.300355 0.754336 0
678 1 0.284154 0.772955 0
650 1 0.314958 0.736579 0
681 1 0.322343 0.760554 0
652 1 0.336699 0.743419 0
682 1 0.343281 0.767928 0
683 1 0.35868 0.749605 0
685 1 0.374401 0.731947 0
684 1 0.381366 0.756329 0
715 1 0.395233 0.736612 0
714 1 0.402532 0.761391 0
717 1 0.417958 0.74385 0
716 1 0.424265 0.769381 0
688 1 0.439266 0.752467 0
689 1 0.455049 0.73438 0
719 1 0.461943 0.758241 0
690 1 0.477095 0.740947 0
1591 1 0.482843 0.764962 0
1562 1 0.499228 0.748393 0
691 1 0.026872 0.774335 0
721 1 0.0205661 0.7996 0
1620 1 0.00443537 0.783093 0
692 1 0.0365971 0.816391 0
693 1 0.0427723 0.7926 0
723 1 0.0576131 0.809703 0
694 1 0.0639011 0.784399 0
725 1 0.0782167 0.802998 0
696 1 0.0851184 0.777652 0
727 1 0.100644 0.796006 0
728 1 0.114757 0.815268 0
698 1 0.122944 0.79186 0
699 1 0.146084 0.774469 0
700 1 0.136283 0.811159 0
731 1 0.15295 0.797061 0
701 1 0.167608 0.779752 0
702 1 0.188254 0.789843 0
732 1 0.172792 0.808549 0
763 1 0.194069 0.814818 0
733 1 0.209619 0.79712 0
704 1 0.224114 0.778246 0
706 1 0.231134 0.802066 0
676 1 0.246261 0.784054 0
737 1 0.252885 0.80951 0
707 1 0.268459 0.79096 0
738 1 0.27406 0.816387 0
708 1 0.289765 0.797482 0
709 1 0.305446 0.779019 0
710 1 0.311901 0.802593 0
680 1 0.327594 0.784693 0
741 1 0.333628 0.808805 0
713 1 0.365018 0.772987 0
711 1 0.350102 0.791102 0
712 1 0.371373 0.798057 0
742 1 0.355503 0.816163 0
743 1 0.386265 0.78049 0
745 1 0.393766 0.803637 0
746 1 0.408542 0.786672 0
775 1 0.4151 0.811859 0
718 1 0.446387 0.776158 0
747 1 0.430207 0.793483 0
749 1 0.451595 0.800035 0
720 1 0.467488 0.783778 0
1621 1 0.473711 0.807439 0
1592 1 0.489107 0.78928 0
1622 1 0.495502 0.812836 0
1680 1 0.0305024 0.841146 0
1650 1 0.0153342 0.82352 0
1709 1 0.00981264 0.849142 0
752 1 0.0456148 0.858793 0
751 1 0.0518471 0.835523 0
753 1 0.0674967 0.851926 0
722 1 0.0732273 0.827158 0
726 1 0.0935124 0.821114 0
724 1 0.0895732 0.846133 0
757 1 0.110566 0.838895 0
755 1 0.10568 0.86386 0
756 1 0.126877 0.85733 0
729 1 0.132032 0.833711 0
759 1 0.14934 0.849915 0
730 1 0.15504 0.824369 0
761 1 0.175253 0.833997 0
792 1 0.184296 0.858691 0
762 1 0.2002 0.83915 0
735 1 0.215935 0.820959 0
734 1 0.221886 0.845205 0
764 1 0.206227 0.864709 0
736 1 0.236958 0.828652 0
765 1 0.243375 0.851666 0
767 1 0.258939 0.833653 0
766 1 0.265505 0.858793 0
768 1 0.28128 0.84016 0
739 1 0.296284 0.821096 0
769 1 0.302647 0.84608 0
740 1 0.31824 0.826962 0
770 1 0.32467 0.852376 0
771 1 0.339995 0.833837 0
801 1 0.345843 0.85742 0
773 1 0.361848 0.840248 0
744 1 0.377518 0.821677 0
803 1 0.384116 0.845548 0
774 1 0.39985 0.828919 0
776 1 0.405524 0.853492 0
777 1 0.42113 0.836684 0
748 1 0.43602 0.818483 0
779 1 0.442375 0.84234 0
778 1 0.426357 0.860868 0
750 1 0.457617 0.823707 0
1651 1 0.479706 0.831647 0
780 1 0.463905 0.848665 0
1652 1 0.484982 0.85533 0
1710 1 0.00290684 0.873111 0
781 1 0.0247175 0.866044 0
811 1 0.0192677 0.889636 0
782 1 0.0394936 0.882997 0
813 1 0.0557062 0.900631 0
783 1 0.0608631 0.876493 0
784 1 0.0772627 0.894822 0
754 1 0.0827475 0.870167 0
785 1 0.0986902 0.887247 0
786 1 0.114181 0.905745 0
787 1 0.121014 0.881931 0
788 1 0.136121 0.899169 0
758 1 0.141877 0.874822 0
760 1 0.163753 0.867546 0
789 1 0.15764 0.892301 0
790 1 0.173604 0.90832 0
791 1 0.181061 0.884714 0
823 1 0.196374 0.903197 0
793 1 0.214235 0.887524 0
795 1 0.227919 0.868802 0
794 1 0.235255 0.893544 0
796 1 0.250279 0.87616 0
825 1 0.255406 0.899893 0
797 1 0.287447 0.864414 0
827 1 0.271806 0.88276 0
826 1 0.277477 0.906157 0
798 1 0.293085 0.888008 0
799 1 0.308879 0.869876 0
829 1 0.315293 0.894813 0
800 1 0.330332 0.87647 0
831 1 0.336412 0.900057 0
802 1 0.352301 0.882515 0
772 1 0.367218 0.864182 0
804 1 0.37353 0.889531 0
833 1 0.357602 0.907309 0
805 1 0.388841 0.872079 0
806 1 0.394779 0.896453 0
807 1 0.41015 0.878374 0
837 1 0.416477 0.902301 0
809 1 0.448497 0.867076 0
808 1 0.431739 0.884228 0
810 1 0.454129 0.890419 0
1681 1 0.469775 0.873071 0
1711 1 0.475592 0.897267 0
1682 1 0.491569 0.880345 0
1713 1 0.497622 0.904141 0
812 1 0.0344328 0.908165 0
841 1 0.0291943 0.933055 0
1740 1 0.0131016 0.916267 0
1769 1 0.00715098 0.941065 0
842 1 0.0444554 0.950604 0
843 1 0.0508391 0.925768 0
844 1 0.0666868 0.942824 0
814 1 0.0716449 0.919148 0
815 1 0.0935598 0.911543 0
845 1 0.0876012 0.936324 0
816 1 0.109093 0.930034 0
846 1 0.103307 0.953909 0
847 1 0.124323 0.947388 0
819 1 0.15242 0.916034 0
817 1 0.130371 0.922805 0
818 1 0.145228 0.940424 0
820 1 0.16702 0.933834 0
851 1 0.182768 0.950626 0
821 1 0.188367 0.926798 0
822 1 0.204538 0.942649 0
824 1 0.218745 0.911551 0
853 1 0.225498 0.935942 0
855 1 0.240349 0.918051 0
854 1 0.247566 0.942987 0
856 1 0.261714 0.924264 0
885 1 0.269146 0.947772 0
857 1 0.284027 0.930715 0
828 1 0.299453 0.912512 0
859 1 0.306084 0.936994 0
830 1 0.321131 0.918788 0
860 1 0.326843 0.943881 0
832 1 0.342982 0.925097 0
863 1 0.3641 0.932474 0
861 1 0.348662 0.950792 0
834 1 0.379629 0.914981 0
865 1 0.385356 0.93966 0
835 1 0.401157 0.921521 0
836 1 0.40727 0.946088 0
839 1 0.438405 0.909112 0
838 1 0.42269 0.927094 0
869 1 0.444696 0.933977 0
867 1 0.429151 0.951192 0
840 1 0.46036 0.916237 0
1712 1 0.48211 0.921664 0
1741 1 0.466114 0.940241 0
1742 1 0.48723 0.9461 0
1799 1 0.00128374 0.964505 0
1770 1 0.0235213 0.957571 0
1800 1 0.0188028 0.981665 0
1 1 0.0340898 0.999058 0
871 1 0.0394338 0.97533 0
872 1 0.0552145 0.99236 0
873 1 0.0609948 0.96709 0
874 1 0.0764957 0.985352 0
875 1 0.0820498 0.960321 0
876 1 0.0977084 0.977641 0
7 1 0.113213 0.995936 0
877 1 0.118959 0.971141 0
878 1 0.134317 0.989103 0
848 1 0.140615 0.964233 0
849 1 0.161606 0.958185 0
879 1 0.15524 0.981535 0
881 1 0.171419 0.998703 0
850 1 0.177935 0.974271 0
11 1 0.193123 0.991758 0
852 1 0.199471 0.967028 0
883 1 0.220819 0.959881 0
882 1 0.214952 0.984024 0
884 1 0.236077 0.978732 0
886 1 0.254185 0.966396 0
16 1 0.257414 0.992847 0
887 1 0.290055 0.955738 0
17 1 0.274275 0.973248 0
888 1 0.296097 0.979961 0
858 1 0.311359 0.961692 0
889 1 0.318066 0.98754 0
891 1 0.333041 0.968874 0
890 1 0.33953 0.99339 0
862 1 0.355111 0.975133 0
864 1 0.370402 0.957487 0
893 1 0.375988 0.982343 0
895 1 0.391187 0.963506 0
896 1 0.398041 0.988505 0
866 1 0.413684 0.969763 0
897 1 0.419761 0.994362 0
868 1 0.43524 0.975827 0
899 1 0.455902 0.982851 0
870 1 0.449838 0.958293 0
1773 1 0.492248 0.971371 0
903 1 0.499182 0.995191 0
1772 1 0.477704 0.989473 0
1771 1 0.471891 0.964849 0
18 1 0.280315 0.997515 0
902 1 0.504824 0.0188957 0
904 1 0.526656 0.0265003 0
905 1 0.520723 0.0017597 0
933 1 0.511337 0.0448338 0
906 1 0.541605 0.00802625 0
935 1 0.54817 0.0328661 0
908 1 0.563058 0.014441 0
937 1 0.570407 0.038949 0
939 1 0.585404 0.0215875 0
940 1 0.607358 0.0269656 0
941 1 0.601666 0.00306203 0
942 1 0.75167 0.0255025 0
944 1 0.768037 0.0428884 0
912 1 0.756462 0.0010268 0
943 1 0.773705 0.0176526 0
945 1 0.788375 0.0355283 0
914 1 0.794317 0.0104273 0
947 1 0.809676 0.0289125 0
918 1 0.830561 0.0211753 0
916 1 0.815802 0.00313126 0
949 1 0.84838 0.0381147 0
919 1 0.853156 0.0135776 0
920 1 0.869568 0.031761 0
1790 1 0.874868 0.00719523 0
951 1 0.890847 0.0246213 0
922 1 0.911442 0.0181617 0
952 1 0.907117 0.0426749 0
953 1 0.927715 0.035179 0
924 1 0.932496 0.0108072 0
955 1 0.949137 0.0278483 0
925 1 0.953854 0.00411211 0
926 1 0.970088 0.0202453 0
957 1 0.986297 0.038599 0
928 1 0.991643 0.0131058 0
963 1 0.51742 0.0690463 0
934 1 0.533236 0.0512924 0
962 1 0.501881 0.0884584 0
965 1 0.539087 0.0754045 0
936 1 0.554978 0.0573898 0
966 1 0.560147 0.0826844 0
967 1 0.575796 0.0653299 0
938 1 0.591374 0.0474219 0
968 1 0.58152 0.0904901 0
969 1 0.597276 0.0723503 0
971 1 0.74665 0.0500545 0
970 1 0.740122 0.0733043 0
973 1 0.762038 0.0668225 0
975 1 0.783884 0.0602082 0
1003 1 0.777203 0.0841892 0
974 1 0.799537 0.0773407 0
946 1 0.804829 0.0534736 0
948 1 0.82639 0.0459033 0
976 1 0.820913 0.070327 0
1007 1 0.839011 0.087193 0
977 1 0.843477 0.0624801 0
979 1 0.864563 0.0557585 0
978 1 0.859732 0.0802501 0
980 1 0.880778 0.0731872 0
950 1 0.885917 0.0491344 0
981 1 0.902336 0.0669134 0
982 1 0.917814 0.0855019 0
983 1 0.922583 0.0601598 0
1011 1 0.896925 0.0915093 0
984 1 0.938464 0.0776219 0
954 1 0.943639 0.0522849 0
985 1 0.959371 0.0699312 0
956 1 0.965039 0.0461734 0
987 1 0.980871 0.0624857 0
988 1 0.996241 0.080329 0
986 1 0.975483 0.0874435 0
964 1 0.523523 0.0935755 0
993 1 0.507204 0.11176 0
994 1 0.529455 0.118343 0
1023 1 0.514317 0.136607 0
995 1 0.545343 0.100966 0
996 1 0.551155 0.12584 0
997 1 0.566263 0.108304 0
1027 1 0.573162 0.133051 0
998 1 0.588419 0.114979 0
1000 1 0.611202 0.123225 0
1030 1 0.631966 0.130155 0
999 1 0.649057 0.11239 0
1032 1 0.653505 0.136929 0
1001 1 0.670851 0.119733 0
1002 1 0.69255 0.125124 0
972 1 0.756526 0.0913136 0
1033 1 0.7731 0.108866 0
1065 1 0.788453 0.126562 0
1004 1 0.794479 0.101258 0
1035 1 0.811062 0.119041 0
1005 1 0.816947 0.0951069 0
1006 1 0.834252 0.111641 0
1037 1 0.849434 0.130358 0
1008 1 0.855065 0.104673 0
1039 1 0.870608 0.122627 0
1009 1 0.876386 0.0984599 0
1010 1 0.892552 0.116126 0
1012 1 0.912895 0.109061 0
1041 1 0.907846 0.133806 0
1015 1 0.954558 0.0945304 0
1043 1 0.929077 0.126473 0
1013 1 0.933619 0.10241 0
1014 1 0.949968 0.119539 0
1017 1 0.970243 0.111075 0
1018 1 0.99108 0.104159 0
1047 1 0.986417 0.128523 0
1024 1 0.520246 0.160457 0
1025 1 0.535417 0.142624 0
1053 1 0.503385 0.178718 0
1055 1 0.541751 0.167641 0
1026 1 0.556974 0.150154 0
1057 1 0.561685 0.174884 0
1028 1 0.578159 0.156844 0
1029 1 0.59459 0.139949 0
1058 1 0.598794 0.165211 0
1087 1 0.583632 0.182565 0
1059 1 0.615978 0.147242 0
1060 1 0.621282 0.172155 0
1061 1 0.637632 0.1549 0