ITEM: TIMESTEP
52000
ITEM: NUMBER OF ATOMS
1800
ITEM: BOX BOUNDS pp pp pp
-9.1146237824956788e-01 1.6591146237825149e+02
1.1826529217466231e+00 1.6381734707825530e+02
0.0000000000000000e+00 5.5000000000000000e+00
ITEM: ATOMS id type xs ys zs
2 1 0.0130071 0.0134348 0
3 1 0.0375191 0.00722373 0
31 1 0.00693841 0.0382309 0
33 1 0.0307322 0.0312898 0
4 1 0.0552595 0.0248756 0
6 1 0.0804163 0.0180153 0
35 1 0.0739207 0.0433889 0
5 1 0.0624792 0.000961382 0
8 1 0.104023 0.0114059 0
37 1 0.0975971 0.0361554 0
39 1 0.121152 0.0295841 0
880 1 0.127087 0.00455709 0
9 1 0.145777 0.023505 0
10 1 0.168505 0.0164116 0
40 1 0.164335 0.0407609 0
41 1 0.187297 0.0339336 0
12 1 0.193955 0.0100648 0
14 1 0.21161 0.0281073 0
13 1 0.218702 0.00504233 0
15 1 0.235699 0.0226394 0
16 1 0.259008 0.0153469 0
46 1 0.253282 0.040654 0
47 1 0.277525 0.033502 0
18 1 0.282248 0.00908345 0
49 1 0.31256 0.0353462 0
19 1 0.30632 0.0114898 0
20 1 0.329899 0.0177794 0
21 1 0.35477 0.0218772 0
51 1 0.337763 0.0406512 0
22 1 0.361824 0.0456085 0
23 1 0.379986 0.027812 0
894 1 0.396351 0.0094478 0
24 1 0.404106 0.032574 0
892 1 0.371071 0.00415862 0
25 1 0.421356 0.0142301 0
27 1 0.444946 0.0196251 0
26 1 0.427168 0.0377875 0
28 1 0.451521 0.0436781 0
29 1 0.46969 0.0262819 0
900 1 0.485144 0.00785984 0
30 1 0.493255 0.0309833 0
898 1 0.461396 0.00146677 0
32 1 0.0260913 0.0556951 0
62 1 0.0183628 0.0798337 0
63 1 0.0432254 0.0735336 0
449 1 0.47788 0.494926 0
34 1 0.0506019 0.0492085 0
65 1 0.0677034 0.0680914 0
66 1 0.0852596 0.0842219 0
36 1 0.0919851 0.0605013 0
38 1 0.116287 0.054813 0
67 1 0.110334 0.0790418 0
68 1 0.133547 0.0720774 0
69 1 0.140247 0.0477482 0
71 1 0.158132 0.0653113 0
72 1 0.174841 0.0838167 0
70 1 0.150906 0.0903607 0
42 1 0.181479 0.0586876 0
43 1 0.205238 0.0531126 0
73 1 0.199262 0.0770278 0
44 1 0.222786 0.0702288 0
45 1 0.228715 0.0459818 0
75 1 0.246611 0.0641593 0
76 1 0.264033 0.0826979 0
77 1 0.270216 0.0586771 0
74 1 0.239626 0.089158 0
48 1 0.295155 0.0538546 0
79 1 0.303296 0.0772662 0
50 1 0.321164 0.0587763 0
81 1 0.327067 0.0818361 0
52 1 0.345583 0.064242 0
82 1 0.351714 0.088477 0
53 1 0.387002 0.0511581 0
83 1 0.369815 0.069111 0
54 1 0.39447 0.0757757 0
55 1 0.410506 0.0563877 0
57 1 0.434996 0.0618567 0
56 1 0.418838 0.0799838 0
87 1 0.443523 0.0853187 0
59 1 0.477097 0.0494147 0
58 1 0.460139 0.067343 0
89 1 0.483738 0.0727047 0
88 1 0.467693 0.0915804 0
92 1 0.0325165 0.121832 0
93 1 0.0370824 0.0972382 0
91 1 0.0131081 0.105149 0
121 1 0.00927869 0.129416 0
64 1 0.0609147 0.0911627 0
94 1 0.055372 0.116211 0
95 1 0.0788715 0.109596 0
125 1 0.0724066 0.133816 0
96 1 0.0966911 0.127851 0
97 1 0.102056 0.103357 0
98 1 0.120459 0.121213 0
99 1 0.127394 0.0969204 0
100 1 0.145079 0.115297 0
101 1 0.167965 0.108289 0
130 1 0.162696 0.13336 0
103 1 0.192414 0.101405 0
102 1 0.186924 0.126073 0
105 1 0.216105 0.0955745 0
104 1 0.21067 0.120647 0
106 1 0.234385 0.112944 0
137 1 0.252394 0.129423 0
107 1 0.268394 0.111054 0
78 1 0.286364 0.0944191 0
109 1 0.293056 0.11849 0
108 1 0.276326 0.135548 0
80 1 0.310171 0.10059 0
110 1 0.318318 0.123775 0
111 1 0.334758 0.106178 0
141 1 0.34339 0.129647 0
113 1 0.360682 0.111825 0
84 1 0.377564 0.0933511 0
112 1 0.384855 0.11728 0
85 1 0.402175 0.0994509 0
143 1 0.367017 0.135364 0
115 1 0.40903 0.122983 0
86 1 0.427171 0.104743 0
116 1 0.433266 0.12884 0
117 1 0.450508 0.110253 0
119 1 0.47476 0.114961 0
90 1 0.49217 0.0974459 0
118 1 0.458056 0.133155 0
120 1 0.498882 0.120613 0
122 1 0.0261021 0.146905 0
152 1 0.0199173 0.171126 0
153 1 0.0446538 0.167355 0
123 1 0.0496557 0.142524 0
124 1 0.0677731 0.158805 0
126 1 0.0912791 0.15318 0
155 1 0.0822728 0.178382 0
127 1 0.11471 0.145627 0
157 1 0.109025 0.169289 0
128 1 0.13262 0.162769 0
129 1 0.138672 0.139338 0
159 1 0.157736 0.158401 0
131 1 0.181632 0.149322 0
132 1 0.185081 0.17374 0
133 1 0.205915 0.146049 0
134 1 0.225029 0.163991 0
135 1 0.229068 0.137862 0
136 1 0.260394 0.154122 0
165 1 0.246998 0.174105 0
167 1 0.270569 0.178461 0
139 1 0.301792 0.142863 0
138 1 0.28447 0.159515 0
169 1 0.309847 0.165791 0
140 1 0.326358 0.147929 0
142 1 0.351316 0.153251 0
171 1 0.334573 0.171223 0
172 1 0.358417 0.176645 0
114 1 0.392245 0.141004 0
144 1 0.39997 0.164944 0
173 1 0.376332 0.15921 0
145 1 0.416986 0.146907 0
146 1 0.424093 0.170596 0
147 1 0.44121 0.152342 0
177 1 0.448228 0.176012 0
149 1 0.482074 0.13864 0
148 1 0.464843 0.15804 0
150 1 0.490167 0.163267 0
183 1 0.0371228 0.191069 0
182 1 0.0419729 0.215417 0
181 1 0.0170947 0.207248 0
154 1 0.0622553 0.198546 0
184 1 0.0656611 0.22374 0
185 1 0.084118 0.206818 0
186 1 0.108532 0.215809 0
156 1 0.102621 0.192256 0
158 1 0.126698 0.197465 0
187 1 0.131572 0.222566 0
160 1 0.146392 0.182767 0
161 1 0.168432 0.191121 0
189 1 0.150456 0.207194 0
191 1 0.173306 0.21578 0
163 1 0.208027 0.18098 0
162 1 0.190114 0.198879 0
193 1 0.212785 0.20778 0
192 1 0.195412 0.223392 0
164 1 0.229342 0.190052 0
195 1 0.236379 0.213471 0
166 1 0.253749 0.197732 0
196 1 0.26099 0.221029 0
168 1 0.294118 0.184912 0
197 1 0.277559 0.203893 0
199 1 0.301322 0.209168 0
198 1 0.283845 0.227216 0
170 1 0.31856 0.190758 0
201 1 0.34305 0.1956 0
200 1 0.324987 0.214634 0
202 1 0.348982 0.220099 0
174 1 0.383159 0.183205 0
203 1 0.366898 0.201164 0
204 1 0.38979 0.207608 0
175 1 0.40737 0.189397 0
233 1 0.373574 0.225627 0
205 1 0.414253 0.212728 0
176 1 0.432081 0.195075 0
207 1 0.439702 0.219095 0
179 1 0.472338 0.18188 0
178 1 0.455949 0.200881 0
209 1 0.479992 0.205633 0
208 1 0.463312 0.225244 0
180 1 0.496146 0.186769 0
212 1 0.0280312 0.256728 0
211 1 0.0234923 0.231508 0
1140 1 0.00500684 0.24873 0
213 1 0.0464467 0.240761 0
243 1 0.0517333 0.264634 0
215 1 0.0892719 0.232022 0
214 1 0.0703708 0.247698 0
216 1 0.0942382 0.257277 0
217 1 0.11334 0.239212 0
218 1 0.118216 0.265947 0
188 1 0.13614 0.247394 0
190 1 0.155055 0.232181 0
221 1 0.17818 0.2409 0
220 1 0.160023 0.257239 0
222 1 0.18396 0.266468 0
194 1 0.219286 0.231621 0
223 1 0.20233 0.249318 0
224 1 0.225867 0.25585 0
253 1 0.207709 0.273757 0
225 1 0.242329 0.237568 0
227 1 0.266457 0.24514 0
226 1 0.249119 0.263167 0
257 1 0.272581 0.269991 0
229 1 0.307265 0.233656 0
228 1 0.289373 0.251389 0
230 1 0.313688 0.257099 0
231 1 0.332 0.238901 0
232 1 0.356451 0.243905 0
261 1 0.338493 0.262195 0
263 1 0.363908 0.268209 0
235 1 0.396821 0.231653 0
234 1 0.381161 0.24968 0
265 1 0.405478 0.255566 0
206 1 0.42244 0.236268 0
237 1 0.445881 0.242586 0
236 1 0.428942 0.261342 0
238 1 0.453479 0.266249 0
210 1 0.488012 0.230437 0
239 1 0.470246 0.248778 0
240 1 0.49503 0.253959 0
269 1 0.478946 0.272224 0
241 1 0.00982694 0.274693 0
242 1 0.0333617 0.281145 0
271 1 0.0142374 0.298012 0
273 1 0.0387442 0.305672 0
245 1 0.0745963 0.271929 0
244 1 0.056895 0.289553 0
246 1 0.0809226 0.296325 0
275 1 0.0625282 0.313725 0
247 1 0.0997914 0.281591 0
249 1 0.124386 0.289759 0
248 1 0.104596 0.305571 0
279 1 0.128275 0.314729 0
219 1 0.142187 0.273285 0
251 1 0.166445 0.28323 0
250 1 0.147323 0.298763 0
281 1 0.171696 0.30764 0
252 1 0.189956 0.291406 0
254 1 0.213401 0.298311 0
283 1 0.194966 0.315688 0
255 1 0.230559 0.281447 0
256 1 0.255063 0.288839 0
285 1 0.237051 0.306297 0
287 1 0.262717 0.312343 0
259 1 0.296933 0.276499 0
258 1 0.280852 0.29511 0
288 1 0.286817 0.318982 0
289 1 0.304963 0.299897 0
260 1 0.322014 0.280604 0
262 1 0.346207 0.28637 0
291 1 0.329003 0.305369 0
292 1 0.353311 0.310019 0
264 1 0.388377 0.272747 0
293 1 0.370979 0.292024 0
295 1 0.39423 0.297468 0
294 1 0.377244 0.315921 0
266 1 0.412323 0.28008 0
267 1 0.436697 0.285904 0
297 1 0.418782 0.303873 0
298 1 0.444568 0.309801 0
268 1 0.460427 0.290187 0
270 1 0.485888 0.295645 0
299 1 0.46836 0.314599 0
1200 1 0.0209014 0.32282 0
272 1 0.0453804 0.331057 0
301 1 0.0264732 0.34717 0
1229 1 0.00298222 0.338921 0
1230 1 0.00749599 0.362905 0
303 1 0.0507433 0.355146 0
276 1 0.0863934 0.321499 0
274 1 0.0692355 0.33883 0
305 1 0.0921705 0.346304 0
277 1 0.110049 0.330588 0
307 1 0.115877 0.35482 0
278 1 0.134551 0.339294 0
280 1 0.153008 0.323727 0
282 1 0.177194 0.332099 0
311 1 0.157929 0.348381 0
309 1 0.138643 0.363814 0
284 1 0.21867 0.322542 0
312 1 0.182483 0.356497 0
313 1 0.201222 0.339468 0
315 1 0.226476 0.345975 0
314 1 0.208515 0.362666 0
286 1 0.245097 0.329572 0
317 1 0.27023 0.336214 0
316 1 0.251544 0.354129 0
290 1 0.311375 0.324114 0
318 1 0.275131 0.361274 0
319 1 0.295174 0.343743 0
320 1 0.319543 0.349383 0
321 1 0.335821 0.329903 0
323 1 0.359483 0.335544 0
322 1 0.342861 0.354921 0
296 1 0.402177 0.321776 0
324 1 0.367219 0.359399 0
325 1 0.385136 0.340303 0
326 1 0.410036 0.346126 0
327 1 0.426063 0.327317 0
328 1 0.433106 0.35071 0
329 1 0.451645 0.332586 0
420 1 0.470723 0.470595 0
300 1 0.493491 0.318924 0
359 1 0.459101 0.356718 0
330 1 0.47589 0.337419 0
360 1 0.483845 0.362595 0
302 1 0.0323578 0.371439 0
332 1 0.0367195 0.395787 0
331 1 0.0132109 0.387376 0
304 1 0.0737647 0.363338 0
333 1 0.0551796 0.379638 0
335 1 0.0786124 0.387619 0
334 1 0.0608482 0.404651 0
306 1 0.097409 0.371841 0
308 1 0.120004 0.380498 0
337 1 0.102299 0.39713 0
338 1 0.127497 0.404212 0
310 1 0.163916 0.37194 0
339 1 0.145962 0.388704 0
341 1 0.170132 0.396568 0
343 1 0.188839 0.379524 0
342 1 0.194813 0.404376 0
344 1 0.213268 0.387358 0
345 1 0.232791 0.370044 0
347 1 0.257531 0.37845 0
346 1 0.238009 0.395564 0
377 1 0.263114 0.403168 0
349 1 0.300428 0.368383 0
348 1 0.280688 0.385562 0
350 1 0.305897 0.392761 0
351 1 0.325016 0.373344 0
381 1 0.330546 0.397703 0
353 1 0.348906 0.378309 0
352 1 0.356213 0.402904 0
355 1 0.390369 0.364019 0
354 1 0.373651 0.383119 0
385 1 0.381109 0.406501 0
356 1 0.398291 0.387885 0
387 1 0.423335 0.393049 0
357 1 0.416483 0.3699 0
358 1 0.4412 0.37469 0
389 1 0.448215 0.397819 0
1232 1 0.466704 0.380258 0
1262 1 0.490778 0.38627 0
1261 1 0.473449 0.404288 0
361 1 0.0192585 0.411783 0
362 1 0.0230701 0.436526 0
363 1 0.0419619 0.421004 0
392 1 0.00518079 0.454515 0
336 1 0.0835972 0.413051 0
364 1 0.0480438 0.445871 0
365 1 0.0659896 0.43014 0
395 1 0.0724146 0.453651 0
366 1 0.0914365 0.437484 0
367 1 0.109468 0.420922 0
368 1 0.115496 0.445554 0
369 1 0.133606 0.428993 0
340 1 0.151987 0.41296 0
371 1 0.176146 0.420839 0
370 1 0.158079 0.438049 0
399 1 0.139921 0.454519 0
401 1 0.181775 0.446286 0
373 1 0.218182 0.412794 0
372 1 0.20033 0.428921 0
374 1 0.226414 0.437563 0
403 1 0.206587 0.453509 0
375 1 0.243797 0.419535 0
376 1 0.269046 0.427066 0
405 1 0.250242 0.444354 0
407 1 0.274487 0.451385 0
378 1 0.288103 0.410506 0
379 1 0.313922 0.417259 0
409 1 0.293756 0.43486 0
380 1 0.321207 0.441518 0
382 1 0.340214 0.421968 0
413 1 0.348171 0.445144 0
383 1 0.364876 0.426017 0
386 1 0.407325 0.41158 0
414 1 0.375078 0.448418 0
384 1 0.390763 0.429963 0
415 1 0.398449 0.453739 0
417 1 0.414816 0.435864 0
388 1 0.43207 0.417322 0
418 1 0.439353 0.441378 0
419 1 0.455939 0.422729 0
1293 1 0.497856 0.409955 0
390 1 0.464241 0.446846 0
1291 1 0.480038 0.427144 0
1321 1 0.487896 0.451323 0
393 1 0.0293744 0.461443 0
422 1 0.0120893 0.478883 0
423 1 0.0373211 0.486637 0
394 1 0.054916 0.469878 0
396 1 0.0770854 0.479181 0
425 1 0.0593098 0.495327 0
397 1 0.0958135 0.462637 0
398 1 0.12139 0.47052 0
427 1 0.101571 0.48739 0
428 1 0.125714 0.495736 0
400 1 0.165089 0.463368 0
429 1 0.144665 0.47891 0
431 1 0.169328 0.488003 0
402 1 0.188211 0.471063 0
432 1 0.193743 0.49601 0
433 1 0.213563 0.479941 0
404 1 0.230647 0.462541 0
406 1 0.256146 0.469068 0
435 1 0.237866 0.488312 0
436 1 0.260785 0.495574 0
410 1 0.297482 0.460453 0
408 1 0.278584 0.477737 0
441 1 0.301744 0.486849 0
411 1 0.320397 0.470559 0
412 1 0.358893 0.467055 0
442 1 0.341117 0.483765 0
473 1 0.364555 0.492046 0
443 1 0.38265 0.472089 0
444 1 0.389452 0.496625 0
445 1 0.406063 0.478551 0
448 1 0.45332 0.488427 0
416 1 0.422225 0.459987 0
447 1 0.446473 0.464856 0
446 1 0.429937 0.483879 0
450 1 0.494713 0.47568 0
151 1 0.00177601 0.153345 0
440 1 0.323102 0.500491 0
454 1 0.022462 0.528996 0
453 1 0.0175144 0.503944 0
424 1 0.0406168 0.513493 0
485 1 0.0464121 0.53764 0
455 1 0.0644755 0.520558 0
426 1 0.0824945 0.503565 0
456 1 0.0867908 0.52835 0
486 1 0.0690522 0.545729 0
457 1 0.105812 0.512453 0
458 1 0.110516 0.538419 0
459 1 0.130209 0.520219 0
489 1 0.134664 0.544245 0
460 1 0.154819 0.52815 0
461 1 0.173885 0.512328 0
462 1 0.178025 0.536744 0
430 1 0.149555 0.503676 0
463 1 0.198184 0.520287 0
434 1 0.217414 0.50431 0
464 1 0.222183 0.529461 0
493 1 0.203353 0.545308 0
466 1 0.245215 0.538466 0
465 1 0.241006 0.513074 0
437 1 0.265227 0.522949 0
467 1 0.288588 0.533583 0
438 1 0.307342 0.519118 0
468 1 0.311481 0.544519 0
439 1 0.285673 0.506112 0
469 1 0.33041 0.527093 0
470 1 0.354481 0.532615 0
471 1 0.346864 0.509547 0
1771 1 0.494588 0.963675 0
472 1 0.37234 0.514377 0
503 1 0.37868 0.539096 0
474 1 0.396971 0.520782 0
476 1 0.420904 0.526145 0
477 1 0.437934 0.507139 0
507 1 0.445317 0.531058 0
475 1 0.413736 0.502198 0
478 1 0.462283 0.513415 0
480 1 0.469036 0.53627 0
479 1 0.486185 0.518784 0
510 1 0.492648 0.542846 0
483 1 0.00283462 0.545604 0
513 1 0.0276429 0.55371 0
514 1 0.0315463 0.579134 0
482 1 0.00861334 0.56965 0
484 1 0.051442 0.561708 0
515 1 0.0736946 0.571223 0
545 1 0.0541259 0.588297 0
487 1 0.0918927 0.554109 0
488 1 0.11585 0.563206 0
517 1 0.0961904 0.579254 0
519 1 0.121033 0.588282 0
491 1 0.158514 0.552243 0
490 1 0.140244 0.568253 0
521 1 0.164802 0.575839 0
492 1 0.183682 0.560733 0
523 1 0.18798 0.58618 0
494 1 0.207944 0.570244 0
495 1 0.227006 0.555447 0
496 1 0.249535 0.564196 0
525 1 0.230356 0.580944 0
497 1 0.268953 0.548191 0
526 1 0.253738 0.589623 0
527 1 0.273035 0.573713 0
498 1 0.291009 0.558132 0
529 1 0.297679 0.584669 0
500 1 0.318765 0.569721 0
499 1 0.337357 0.552617 0
501 1 0.361798 0.557647 0
531 1 0.342957 0.576471 0
505 1 0.402699 0.544969 0
533 1 0.36911 0.581828 0
502 1 0.386252 0.563305 0
534 1 0.393732 0.587086 0
504 1 0.411274 0.568751 0
506 1 0.428319 0.549599 0
508 1 0.434924 0.573322 0
509 1 0.452235 0.554305 0
539 1 0.458965 0.579775 0
540 1 0.476139 0.56138 0
569 1 0.483992 0.584732 0
512 1 0.0128988 0.595126 0
542 1 0.0173825 0.619766 0
543 1 0.0363936 0.603914 0
544 1 0.0411038 0.628267 0
516 1 0.0777333 0.595137 0
546 1 0.0606927 0.613859 0
547 1 0.0836026 0.623217 0
518 1 0.100679 0.604101 0
548 1 0.123768 0.613569 0
577 1 0.108555 0.633557 0
520 1 0.145097 0.592577 0
522 1 0.168712 0.601275 0
549 1 0.148332 0.616736 0
551 1 0.171535 0.625958 0
524 1 0.210959 0.594823 0
553 1 0.191335 0.610558 0
554 1 0.214449 0.620132 0
552 1 0.193836 0.635404 0
555 1 0.23447 0.605595 0
556 1 0.236661 0.630558 0
557 1 0.256724 0.614929 0
528 1 0.277404 0.599425 0
559 1 0.299831 0.610466 0
558 1 0.278632 0.625244 0
560 1 0.301632 0.638431 0
530 1 0.321471 0.596403 0
561 1 0.321716 0.622477 0
532 1 0.350648 0.600145 0
562 1 0.361642 0.624094 0
563 1 0.377413 0.605569 0
565 1 0.385638 0.630122 0
536 1 0.402618 0.611173 0
566 1 0.41089 0.635208 0
535 1 0.418317 0.592356 0
537 1 0.442694 0.597319 0
567 1 0.426403 0.616693 0
568 1 0.451451 0.621679 0
538 1 0.46773 0.602697 0
570 1 0.491008 0.60893 0
600 1 0.475674 0.627794 0
573 1 0.0211163 0.645157 0
603 1 0.0245558 0.66927 0
572 1 0.000728347 0.660807 0
574 1 0.0440674 0.653866 0
604 1 0.0488079 0.678814 0
575 1 0.0642159 0.638466 0
605 1 0.0676641 0.663737 0
576 1 0.0886704 0.650682 0
607 1 0.0881779 0.67791 0
578 1 0.108486 0.665895 0
579 1 0.128035 0.650393 0
609 1 0.130247 0.676999 0
550 1 0.150929 0.640802 0
581 1 0.173273 0.650694 0
580 1 0.151876 0.665818 0
611 1 0.175232 0.676172 0
583 1 0.215485 0.64652 0
582 1 0.195367 0.661774 0
584 1 0.217267 0.672459 0
587 1 0.258751 0.641172 0
585 1 0.238694 0.656189 0
586 1 0.260251 0.666836 0
615 1 0.240649 0.682352 0
589 1 0.280962 0.651799 0
588 1 0.280875 0.678317 0
590 1 0.302347 0.66338 0
591 1 0.324031 0.649198 0
593 1 0.352425 0.666507 0
621 1 0.325382 0.67406 0
564 1 0.370178 0.648766 0
594 1 0.377633 0.671671 0
595 1 0.394939 0.654286 0
625 1 0.401553 0.677672 0
596 1 0.418396 0.659406 0
597 1 0.434487 0.640699 0
598 1 0.443181 0.665124 0
599 1 0.459596 0.645735 0
629 1 0.484555 0.650754 0
628 1 0.467347 0.669746 0
630 1 0.492135 0.675183 0
602 1 0.00634205 0.701288 0
633 1 0.0286901 0.692927 0
634 1 0.0255526 0.716862 0
632 1 0.000865373 0.724595 0
635 1 0.0485691 0.70632 0
606 1 0.0685476 0.692529 0
636 1 0.0689962 0.718717 0
637 1 0.0899743 0.704898 0
608 1 0.110395 0.691354 0
638 1 0.110876 0.717182 0
639 1 0.131451 0.703185 0
610 1 0.152495 0.690507 0
641 1 0.155959 0.715379 0
612 1 0.175523 0.700964 0
642 1 0.177676 0.726761 0
613 1 0.197172 0.687128 0
614 1 0.219993 0.697956 0
643 1 0.199593 0.713187 0
645 1 0.221837 0.72393 0
617 1 0.262727 0.692391 0
616 1 0.242669 0.707833 0
647 1 0.264321 0.719814 0
619 1 0.303148 0.688305 0
618 1 0.284713 0.704305 0
620 1 0.306657 0.715361 0
592 1 0.361609 0.688896 0
622 1 0.325122 0.699062 0
653 1 0.346743 0.707932 0
651 1 0.328911 0.725509 0
623 1 0.386217 0.696594 0
624 1 0.369622 0.714008 0
655 1 0.393236 0.719748 0
627 1 0.426817 0.683573 0
626 1 0.410782 0.702004 0
657 1 0.450828 0.689305 0
656 1 0.435074 0.707837 0
686 1 0.418074 0.725163 0
658 1 0.459589 0.713203 0
659 1 0.476512 0.693866 0
660 1 0.483332 0.718009 0
1531 1 0.500567 0.700011 0
662 1 0.0106771 0.765557 0
664 1 0.0182426 0.740802 0
695 1 0.035986 0.757037 0
665 1 0.0446222 0.732736 0
666 1 0.0692375 0.744416 0
697 1 0.0759569 0.769797 0
667 1 0.0910378 0.731614 0
668 1 0.0951328 0.755551 0
669 1 0.114448 0.741891 0
699 1 0.116145 0.769531 0
640 1 0.134312 0.728363 0
670 1 0.136989 0.754217 0
671 1 0.156524 0.739897 0
672 1 0.160009 0.766127 0
673 1 0.179732 0.7513 0
644 1 0.200274 0.73776 0
674 1 0.201505 0.763264 0
675 1 0.222424 0.748585 0
705 1 0.223809 0.774251 0
646 1 0.243874 0.734553 0
677 1 0.244025 0.759838 0
648 1 0.266373 0.74539 0
678 1 0.266698 0.769805 0
649 1 0.286949 0.731265 0
650 1 0.309964 0.742353 0
679 1 0.289917 0.756776 0
681 1 0.314418 0.768073 0
652 1 0.333846 0.749815 0
683 1 0.359023 0.755497 0
654 1 0.35344 0.731562 0
685 1 0.377149 0.738457 0
715 1 0.401665 0.744008 0
684 1 0.383796 0.761788 0
714 1 0.408954 0.767848 0
687 1 0.442919 0.731291 0
717 1 0.425537 0.749165 0
688 1 0.449687 0.755249 0
689 1 0.46616 0.737356 0
690 1 0.489911 0.742146 0
719 1 0.474956 0.760726 0
1591 1 0.499028 0.766073 0
694 1 0.0299502 0.782712 0
693 1 0.00486138 0.790798 0
723 1 0.0229149 0.80721 0
696 1 0.0531485 0.776023 0
725 1 0.0474451 0.80143 0
727 1 0.0724334 0.794675 0
728 1 0.0930807 0.810379 0
698 1 0.0954114 0.783448 0
700 1 0.118318 0.794745 0
701 1 0.139272 0.779502 0
731 1 0.14098 0.804685 0
702 1 0.161372 0.79055 0
732 1 0.161912 0.815832 0
703 1 0.182231 0.777355 0
733 1 0.183034 0.802338 0
704 1 0.203921 0.78885 0
735 1 0.205799 0.813451 0
706 1 0.225906 0.799458 0
676 1 0.245776 0.784574 0
737 1 0.247673 0.809598 0
707 1 0.267367 0.795795 0
709 1 0.288077 0.780747 0
708 1 0.289169 0.805118 0
710 1 0.310992 0.813685 0
680 1 0.326451 0.793352 0
682 1 0.342699 0.774431 0
711 1 0.350527 0.798414 0
741 1 0.334211 0.817397 0
713 1 0.367392 0.780085 0
712 1 0.3747 0.8044 0
743 1 0.391926 0.78692 0
745 1 0.399577 0.809815 0
716 1 0.433797 0.774019 0
747 1 0.441673 0.797416 0
746 1 0.416442 0.791799 0
775 1 0.424107 0.814604 0
718 1 0.45782 0.778963 0
720 1 0.482016 0.783831 0
749 1 0.465965 0.802184 0
1621 1 0.490046 0.808787 0
751 1 0.0175892 0.832382 0
752 1 0.00947472 0.857227 0
753 1 0.0345189 0.849483 0
722 1 0.041337 0.824441 0
726 1 0.0659147 0.818909 0
724 1 0.0581952 0.842866 0
755 1 0.0750092 0.861267 0
757 1 0.0829976 0.836184 0
729 1 0.121244 0.820099 0
756 1 0.0992816 0.855347 0
759 1 0.123026 0.847543 0
730 1 0.141844 0.830901 0
761 1 0.16357 0.841051 0
763 1 0.184961 0.826761 0
762 1 0.186106 0.852087 0
734 1 0.206785 0.839231 0
738 1 0.271125 0.823209 0
736 1 0.228134 0.82599 0
765 1 0.229735 0.852794 0
767 1 0.250391 0.834708 0
766 1 0.254467 0.85864 0
768 1 0.275195 0.847543 0
739 1 0.293986 0.830264 0
769 1 0.299722 0.855099 0
740 1 0.31765 0.837724 0
742 1 0.357703 0.823445 0
771 1 0.341377 0.841827 0
770 1 0.324756 0.860601 0
773 1 0.365215 0.847603 0
744 1 0.381735 0.828412 0
803 1 0.38979 0.851979 0
774 1 0.406938 0.833465 0
748 1 0.448748 0.821307 0
777 1 0.432085 0.838936 0
776 1 0.414108 0.857792 0
778 1 0.439063 0.862478 0
779 1 0.455674 0.845126 0
1651 1 0.49689 0.831629 0
750 1 0.472043 0.82659 0
780 1 0.479401 0.850577 0
783 1 0.0282595 0.873768 0
782 1 0.00381179 0.880775 0
813 1 0.0211875 0.898135 0
784 1 0.0456983 0.890798 0
754 1 0.0514863 0.866622 0
785 1 0.0695175 0.884593 0
786 1 0.087389 0.903341 0
815 1 0.0627356 0.908702 0
758 1 0.118009 0.871102 0
787 1 0.0931584 0.87906 0
788 1 0.111816 0.895804 0
789 1 0.135661 0.887783 0
760 1 0.141818 0.863441 0
791 1 0.159694 0.881763 0
790 1 0.153004 0.906975 0
823 1 0.176748 0.900651 0
764 1 0.207772 0.866162 0
792 1 0.183899 0.876243 0
793 1 0.200972 0.893749 0
795 1 0.22475 0.886697 0
796 1 0.249142 0.882227 0
827 1 0.266327 0.898657 0
825 1 0.241974 0.906098 0
797 1 0.273396 0.875288 0
799 1 0.307529 0.878774 0
798 1 0.289882 0.897426 0
829 1 0.313848 0.903101 0
800 1 0.332175 0.884443 0
801 1 0.349353 0.866178 0
802 1 0.356208 0.889359 0
831 1 0.339019 0.908392 0
772 1 0.373536 0.871293 0
805 1 0.397816 0.876603 0
804 1 0.381279 0.895273 0
806 1 0.40515 0.899804 0
807 1 0.421952 0.881379 0
808 1 0.44619 0.887212 0
837 1 0.430279 0.905838 0
809 1 0.463138 0.869377 0
1681 1 0.488556 0.874655 0
810 1 0.471413 0.893071 0
1711 1 0.496521 0.898083 0
842 1 0.00815644 0.947181 0
843 1 0.0146091 0.922685 0
844 1 0.0322041 0.940857 0
814 1 0.0387599 0.916742 0
816 1 0.0808959 0.926493 0
845 1 0.0563208 0.933646 0
846 1 0.0743169 0.950993 0
819 1 0.129082 0.913083 0
817 1 0.104985 0.919873 0
818 1 0.123476 0.937523 0
847 1 0.0985995 0.944577 0
821 1 0.170324 0.924882 0
820 1 0.147295 0.932696 0
851 1 0.164668 0.948905 0
794 1 0.217206 0.912784 0
824 1 0.193707 0.918068 0
822 1 0.188519 0.942613 0
853 1 0.212071 0.937178 0
855 1 0.235904 0.930741 0
826 1 0.258782 0.922706 0
856 1 0.254753 0.947689 0
828 1 0.297659 0.921887 0
857 1 0.279438 0.939843 0
859 1 0.30465 0.946114 0
830 1 0.322382 0.927675 0
832 1 0.347471 0.931908 0
860 1 0.331683 0.950173 0
833 1 0.363503 0.91261 0
863 1 0.372042 0.93737 0
834 1 0.388633 0.91836 0
865 1 0.395387 0.942519 0
835 1 0.412696 0.923905 0
838 1 0.436416 0.929243 0
836 1 0.420491 0.948654 0
867 1 0.445844 0.952866 0
839 1 0.454432 0.910863 0
1741 1 0.488182 0.939906 0
840 1 0.480587 0.916466 0
869 1 0.462558 0.93361 0
872 1 0.0205988 0.98846 0
873 1 0.0268796 0.96528 0
871 1 0.00210799 0.970764 0
874 1 0.0440962 0.982951 0
875 1 0.0502845 0.958039 0
876 1 0.0678563 0.976096 0
7 1 0.0861966 0.993671 0
877 1 0.0924495 0.969266 0
848 1 0.116042 0.96261 0
878 1 0.109378 0.987361 0
879 1 0.133184 0.979831 0
881 1 0.150768 0.99754 0
849 1 0.139679 0.955579 0
850 1 0.158263 0.97333 0
11 1 0.177198 0.99253 0
852 1 0.182236 0.968201 0
882 1 0.201161 0.986432 0
883 1 0.205789 0.961681 0
884 1 0.224336 0.980109 0
854 1 0.229961 0.954725 0
885 1 0.24718 0.972667 0
17 1 0.266728 0.989898 0
886 1 0.242284 0.997263 0
887 1 0.272554 0.964172 0
858 1 0.314884 0.969212 0
888 1 0.297548 0.987843 0
861 1 0.35518 0.956499 0
889 1 0.321852 0.992591 0
891 1 0.339219 0.974503 0
890 1 0.345947 0.998629 0
862 1 0.363629 0.980642 0
864 1 0.378859 0.962041 0
893 1 0.388303 0.98573 0
895 1 0.403909 0.967343 0
868 1 0.453388 0.977477 0
897 1 0.436388 0.995874 0
896 1 0.411934 0.990987 0
866 1 0.428865 0.972436 0
899 1 0.477887 0.982727 0
870 1 0.470009 0.957962 0
902 1 0.535186 0.0176676 0
931 1 0.518994 0.0363112 0
901 1 0.510689 0.0130405 0
933 1 0.543278 0.0420076 0
904 1 0.559668 0.0233549 0
906 1 0.57607 0.00388889 0
935 1 0.583237 0.0282882 0
908 1 0.600789 0.00951059 0
937 1 0.608377 0.0338564 0
939 1 0.625334 0.0159492 0
938 1 0.6341 0.0387704 0
940 1 0.652305 0.0203232 0
971 1 0.670681 0.0371715 0
942 1 0.676508 0.0122381 0
944 1 0.695297 0.0305278 0
945 1 0.718623 0.0252404 0
943 1 0.701061 0.00598305 0
947 1 0.742231 0.0187381 0
948 1 0.761056 0.0361029 0
918 1 0.767104 0.0124191 0
946 1 0.736266 0.0427055 0
919 1 0.791017 0.00478805 0
949 1 0.784964 0.029236 0
920 1 0.810382 0.022277 0
951 1 0.834083 0.0173464 0
952 1 0.852271 0.0357385 0
922 1 0.857048 0.0100277 0
950 1 0.827541 0.0408952 0
953 1 0.875027 0.0278788 0
955 1 0.899636 0.0207684 0
924 1 0.88129 0.00348694 0
926 1 0.922895 0.0138707 0
928 1 0.947717 0.00805726 0
957 1 0.94104 0.0310547 0
956 1 0.916214 0.0382663 0
930 1 0.989795 0.0197051 0
959 1 0.965202 0.0264949 0
929 1 0.972302 0.002106 0
960 1 0.98318 0.0448964 0
932 1 0.52649 0.0607777 0
962 1 0.534505 0.0852684 0
961 1 0.509695 0.0794058 0
60 1 0.501747 0.0555484 0
934 1 0.567365 0.0473299 0
963 1 0.549991 0.0653817 0
965 1 0.57476 0.0705954 0
964 1 0.557741 0.089976 0
936 1 0.591862 0.0527027 0
966 1 0.599072 0.0764474 0
967 1 0.615762 0.0570169 0
968 1 0.622667 0.0817879 0
969 1 0.640073 0.0635649 0
970 1 0.664043 0.0627987 0
999 1 0.647169 0.0876283 0
972 1 0.6831 0.0793278 0
975 1 0.712082 0.0491451 0
973 1 0.687887 0.0555129 0
1003 1 0.707568 0.0734101 0
1004 1 0.725501 0.0921589 0
974 1 0.731052 0.0672303 0
976 1 0.754713 0.0608075 0
1005 1 0.749657 0.0843921 0
1007 1 0.77352 0.0783201 0
979 1 0.803992 0.0471267 0
977 1 0.779724 0.0543192 0
978 1 0.797443 0.0719304 0
980 1 0.821051 0.0658 0
981 1 0.845551 0.0597946 0
1011 1 0.838588 0.0830624 0
982 1 0.863323 0.0774859 0
954 1 0.89337 0.0447503 0
983 1 0.869133 0.0531175 0
984 1 0.887223 0.0707257 0
1015 1 0.904779 0.0885539 0
985 1 0.910282 0.0630599 0
986 1 0.928539 0.0813392 0
987 1 0.935026 0.0565115 0
988 1 0.951571 0.0741747 0
958 1 0.958774 0.0500315 0
989 1 0.976883 0.0691678 0
990 1 0.995671 0.0868534 0
991 1 0.516326 0.103364 0
992 1 0.523196 0.126298 0
993 1 0.541059 0.107914 0
994 1 0.564484 0.113629 0
995 1 0.581709 0.0950088 0
1023 1 0.548023 0.131992 0
996 1 0.588815 0.119551 0
997 1 0.605629 0.101002 0
1027 1 0.612861 0.124745 0
998 1 0.629245 0.105589 0
1000 1 0.653642 0.111683 0
1001 1 0.675898 0.102813 0
1029 1 0.637585 0.130711 0
1030 1 0.661091 0.13685 0
1031 1 0.694808 0.120059 0
1002 1 0.700859 0.0965155 0
1033 1 0.718725 0.116152 0
1035 1 0.743691 0.110173 0
1006 1 0.767286 0.102982 0
1036 1 0.761183 0.128098 0
1034 1 0.736405 0.13394 0
1009 1 0.815101 0.0902328 0
1008 1 0.790946 0.0966993 0
1037 1 0.785639 0.12089 0
1039 1 0.808886 0.11522 0
1040 1 0.825399 0.133196 0
1010 1 0.833193 0.107664 0
1012 1 0.855962 0.101646 0
1041 1 0.849103 0.126331 0
1043 1 0.873357 0.119344 0
1013 1 0.881865 0.0946351 0
1014 1 0.89985 0.113849 0
1016 1 0.917398 0.131255 0
1017 1 0.923802 0.107183 0
1018 1 0.946895 0.0996682 0
1047 1 0.941774 0.124491 0
1019 1 0.970815 0.0926696 0
1020 1 0.989167 0.112065 0
1049 1 0.964542 0.117246 0
1050 1 0.983101 0.135617 0
1021 1 0.506118 0.144505 0
1022 1 0.532204 0.15061 0
1053 1 0.538713 0.174265 0
1051 1 0.514464 0.168169 0
1025 1 0.571973 0.13754 0
1024 1 0.555696 0.155817 0
1055 1 0.579973 0.162441 0
1054 1 0.562251 0.179661 0
1026 1 0.595692 0.143371 0
1028 1 0.620095 0.148795 0
1057 1 0.603425 0.16766 0
1058 1 0.627636 0.173491 0
1059 1 0.644094 0.154637 0
1061 1 0.668931 0.160436 0
1060 1 0.652409 0.17807 0
1032 1 0.685403 0.143156 0
1063 1 0.710623 0.139669 0
1062 1 0.695975 0.165027 0
1064 1 0.729229 0.15877 0
1065 1 0.753516 0.151473 0
1095 1 0.746685 0.177127 0
1066 1 0.771363 0.170125 0
1038 1 0.802436 0.139659 0
1067 1 0.778682 0.144985 0
1068 1 0.795018 0.163482 0
1099 1 0.81425 0.181655 0
1069 1 0.819128 0.157522 0
1071 1 0.842885 0.150207 0
1070 1 0.838431 0.174598 0
1044 1 0.891615 0.136861 0
1072 1 0.861184 0.167203 0
1042 1 0.867843 0.142971 0
1073 1 0.885855 0.162629 0
1074 1 0.904181 0.179323 0
1045 1 0.910191 0.154658 0
1075 1 0.927572 0.172901 0
1046 1 0.935567 0.148495 0
1077 1 0.953245 0.166033 0
451 1 0.993899 0.495158 0
1048 1 0.960052 0.141858 0
1079 1 0.977234 0.159996 0
1080 1 0.995186 0.177373 0
1052 1 0.521339 0.192663 0
1082 1 0.528572 0.216174 0
1081 1 0.50445 0.210343 0
1083 1 0.544808 0.197845 0
1085 1 0.569887 0.20364 0
1084 1 0.553649 0.221661 0
1056 1 0.586556 0.185694 0
1086 1 0.594031 0.208629 0
1087 1 0.61147 0.191138 0
1088 1 0.619377 0.21537 0
1089 1 0.634907 0.196596 0
1091 1 0.676842 0.183186 0
1090 1 0.661154 0.202175 0
1119 1 0.644091 0.219828 0
1121 1 0.668647 0.226101 0
1092 1 0.685838 0.206259 0
1093 1 0.702985 0.188198 0
1123 1 0.71116 0.212792 0
1094 1 0.727291 0.193205 0
1096 1 0.752054 0.201969 0
1125 1 0.735342 0.219266 0
1126 1 0.759158 0.22619 0
1097 1 0.790418 0.187648 0
1127 1 0.776927 0.207904 0
1098 1 0.801529 0.212623 0
1129 1 0.826253 0.223044 0
1100 1 0.832729 0.199019 0
1101 1 0.856538 0.192475 0
1131 1 0.850115 0.217688 0
1102 1 0.873935 0.210125 0
1103 1 0.88101 0.186846 0
1104 1 0.897068 0.205417 0
1135 1 0.915476 0.221332 0
1105 1 0.922821 0.196604 0
1076 1 0.947411 0.190352 0
1107 1 0.968538 0.212841 0
1078 1 0.97253 0.184527 0
1109 1 0.990087 0.201684 0
1110 1 0.999956 0.224574 0
1111 1 0.512007 0.234559 0
1113 1 0.536644 0.2404 0
1112 1 0.519623 0.258719 0
1143 1 0.543176 0.264077 0
1115 1 0.578142 0.228252 0
1114 1 0.559889 0.245579 0
1116 1 0.584167 0.251593 0
1145 1 0.567966 0.26969 0
1117 1 0.602043 0.23322 0
1118 1 0.626445 0.238572 0
1147 1 0.608933 0.257642 0
1149 1 0.633786 0.262188 0
1120 1 0.650261 0.244759 0
1151 1 0.676519 0.250088 0
1150 1 0.658935 0.267917 0
1122 1 0.693037 0.230806 0
1124 1 0.717439 0.236676 0
1153 1 0.701289 0.255713 0
1154 1 0.724951 0.261868 0
1155 1 0.742603 0.243001 0
1156 1 0.749264 0.267586 0
1157 1 0.767243 0.25065 0
1128 1 0.783798 0.232087 0
1159 1 0.806651 0.237871 0
1158 1 0.790547 0.25664 0
1160 1 0.815151 0.262449 0
1187 1 0.774191 0.276057 0
1130 1 0.841638 0.243001 0
1191 1 0.838929 0.268771 0
1161 1 0.8607 0.257799 0
1133 1 0.89186 0.22891 0
1132 1 0.867249 0.234824 0
1163 1 0.886501 0.255943 0
1134 1 0.910148 0.245105 0
1165 1 0.918221 0.268272 0
1136 1 0.936188 0.250195 0
1106 1 0.953362 0.2321 0