ITEM: TIMESTEP
335000
ITEM: NUMBER OF ATOMS
1800
ITEM: BOX BOUNDS pp pp pp
-1.2308282183998070e+01 1.7730828218399998e+02
1.1826529217466231e+00 1.6381734707825530e+02
0.0000000000000000e+00 5.5000000000000000e+00
ITEM: ATOMS id type xs ys zs
929 1 0.0230287 0.00806634 0
959 1 0.0178992 0.0320879 0
928 1 0.00280372 0.0146121 0
930 1 0.0384653 0.025304 0
31 1 0.0540003 0.0420412 0
2 1 0.0596601 0.0184103 0
33 1 0.0748488 0.0359576 0
1 1 0.0432351 0.000437259 0
3 1 0.0791635 0.0104266 0
4 1 0.0951964 0.0268096 0
5 1 0.0997292 0.00267276 0
6 1 0.115485 0.0202173 0
35 1 0.110308 0.044091 0
37 1 0.130922 0.0371235 0
8 1 0.135931 0.0117688 0
39 1 0.151241 0.0290901 0
880 1 0.157135 0.004316 0
9 1 0.17145 0.0224551 0
40 1 0.187247 0.0389687 0
10 1 0.192777 0.0152785 0
41 1 0.207883 0.0334271 0
12 1 0.212681 0.00978773 0
14 1 0.228331 0.0266309 0
13 1 0.232987 0.00311617 0
15 1 0.24844 0.0188853 0
46 1 0.269245 0.0198979 0
45 1 0.244197 0.04358 0
77 1 0.273095 0.0436201 0
47 1 0.289485 0.0256482 0
19 1 0.302978 0.00589023 0
49 1 0.309366 0.0316623 0
20 1 0.323977 0.0134613 0
51 1 0.329635 0.0367611 0
21 1 0.344917 0.0185555 0
23 1 0.365066 0.0251765 0
22 1 0.350332 0.0430765 0
894 1 0.380085 0.0070416 0
24 1 0.385451 0.0311961 0
25 1 0.400589 0.0139215 0
26 1 0.405823 0.0376196 0
27 1 0.421037 0.0210073 0
898 1 0.436005 0.0036073 0
29 1 0.442195 0.0269312 0
900 1 0.457052 0.00805581 0
28 1 0.427438 0.0441965 0
902 1 0.498729 0.0212785 0
30 1 0.462304 0.0315432 0
901 1 0.478331 0.0142737 0
931 1 0.482808 0.0387655 0
988 1 0.00727218 0.0820405 0
960 1 0.0334577 0.0490466 0
989 1 0.0280289 0.0733994 0
958 1 0.0131266 0.0570341 0
61 1 0.0493196 0.066528 0
62 1 0.0644537 0.0846789 0
32 1 0.0692785 0.059742 0
63 1 0.0851431 0.0766537 0
34 1 0.0903158 0.0517171 0
65 1 0.105232 0.0691673 0
66 1 0.12161 0.0861301 0
36 1 0.125461 0.0611849 0
67 1 0.140871 0.0776517 0
38 1 0.146385 0.0533865 0
69 1 0.167041 0.0469122 0
68 1 0.16162 0.0709812 0
71 1 0.181929 0.0635835 0
70 1 0.176804 0.087405 0
72 1 0.196421 0.0802698 0
42 1 0.202877 0.0564646 0
43 1 0.22376 0.0502202 0
73 1 0.218163 0.0737013 0
44 1 0.23871 0.0691196 0
74 1 0.257678 0.0858249 0
75 1 0.258899 0.0617254 0
76 1 0.279226 0.0675619 0
48 1 0.294435 0.049868 0
79 1 0.299268 0.0740278 0
78 1 0.284227 0.0915127 0
50 1 0.31539 0.0565581 0
81 1 0.320606 0.0805722 0
52 1 0.336078 0.0612369 0
82 1 0.340766 0.0869057 0
83 1 0.356289 0.0679349 0
53 1 0.370479 0.0500318 0
54 1 0.376511 0.074021 0
55 1 0.391399 0.0559991 0
56 1 0.397021 0.0816894 0
57 1 0.412019 0.0617905 0
87 1 0.417643 0.0872838 0
58 1 0.433029 0.0692329 0
59 1 0.44831 0.0506301 0
89 1 0.453133 0.0765148 0
932 1 0.488988 0.0631695 0
60 1 0.468203 0.0571282 0
961 1 0.473632 0.0824955 0
962 1 0.494606 0.0880532 0
1019 1 0.0230705 0.098929 0
1049 1 0.0187982 0.123419 0
1018 1 0.00165909 0.106667 0
1020 1 0.0392451 0.116862 0
990 1 0.0441449 0.0912133 0
121 1 0.0546208 0.133305 0
91 1 0.0591359 0.109606 0
92 1 0.0749197 0.125327 0
93 1 0.0793408 0.10115 0
64 1 0.100564 0.0935888 0
94 1 0.0950347 0.117496 0
95 1 0.116278 0.111137 0
125 1 0.110856 0.13459 0
96 1 0.131371 0.127036 0
97 1 0.136266 0.103341 0
98 1 0.152039 0.120181 0
99 1 0.156051 0.0948599 0
100 1 0.171954 0.112173 0
130 1 0.187342 0.129965 0
101 1 0.192878 0.104291 0
102 1 0.206914 0.122539 0
103 1 0.212745 0.0981089 0
104 1 0.227099 0.116326 0
105 1 0.232531 0.0914318 0
106 1 0.247476 0.107871 0
137 1 0.255434 0.130319 0
107 1 0.26902 0.109327 0
109 1 0.289815 0.116001 0
108 1 0.275641 0.134732 0
80 1 0.304397 0.0980483 0
110 1 0.310485 0.122819 0
111 1 0.325394 0.104971 0
141 1 0.330785 0.129845 0
113 1 0.345425 0.111141 0
84 1 0.360826 0.0940537 0
112 1 0.366375 0.117882 0
85 1 0.382065 0.100448 0
143 1 0.351109 0.135612 0
115 1 0.387078 0.124021 0
86 1 0.402339 0.105533 0
116 1 0.407519 0.130658 0
117 1 0.423283 0.112866 0
88 1 0.437853 0.0946682 0
119 1 0.443799 0.11944 0
90 1 0.459605 0.100804 0
118 1 0.427914 0.138012 0
120 1 0.464419 0.125215 0
991 1 0.479815 0.106985 0
992 1 0.485959 0.131067 0
1050 1 0.0337389 0.142244 0
1079 1 0.028573 0.166028 0
1048 1 0.0131138 0.148398 0
1077 1 0.00769212 0.172464 0
151 1 0.0495297 0.15899 0
122 1 0.0696468 0.151129 0
152 1 0.0650884 0.176813 0
153 1 0.0850288 0.168292 0
123 1 0.0901716 0.142527 0
124 1 0.104721 0.159944 0
155 1 0.121122 0.175287 0
126 1 0.125043 0.151606 0
157 1 0.140979 0.168114 0
127 1 0.146019 0.144395 0
129 1 0.167073 0.137701 0
128 1 0.162732 0.162135 0
159 1 0.182845 0.153363 0
132 1 0.190134 0.176008 0
131 1 0.204653 0.156999 0
133 1 0.221103 0.140226 0
134 1 0.225278 0.164857 0
135 1 0.240679 0.147145 0
165 1 0.24528 0.171476 0
136 1 0.261127 0.154101 0
167 1 0.266598 0.178197 0
138 1 0.281293 0.158882 0
139 1 0.296217 0.141977 0
169 1 0.301361 0.165358 0
140 1 0.316542 0.148393 0
171 1 0.322191 0.171238 0
142 1 0.336568 0.153708 0
172 1 0.342528 0.178306 0
173 1 0.357418 0.160497 0
114 1 0.371954 0.141513 0
144 1 0.378308 0.165778 0
145 1 0.392502 0.147778 0
146 1 0.398235 0.173409 0
147 1 0.412902 0.155045 0
177 1 0.419605 0.178662 0
148 1 0.434097 0.161243 0
149 1 0.449016 0.143819 0
150 1 0.45519 0.168413 0
1051 1 0.475765 0.174539 0
1021 1 0.470196 0.149115 0
1022 1 0.491606 0.155398 0
1053 1 0.496561 0.179913 0
1076 1 0.00220947 0.196702 0
1107 1 0.0172642 0.213402 0
1078 1 0.0242538 0.189611 0
1109 1 0.0396875 0.209126 0
1080 1 0.044158 0.183482 0
181 1 0.0598268 0.200196 0
182 1 0.0632313 0.224823 0
183 1 0.080932 0.19514 0
154 1 0.100335 0.183968 0
185 1 0.0974488 0.210156 0
156 1 0.116683 0.19921 0
186 1 0.122328 0.221877 0
158 1 0.138133 0.203217 0
160 1 0.154772 0.186922 0
189 1 0.159329 0.210751 0
161 1 0.17483 0.193074 0
191 1 0.180031 0.216793 0
163 1 0.210719 0.182919 0
162 1 0.195022 0.199965 0
192 1 0.199943 0.224703 0
193 1 0.215294 0.207256 0
164 1 0.230366 0.189683 0
195 1 0.235665 0.213734 0
166 1 0.251212 0.196413 0
196 1 0.256571 0.220458 0
168 1 0.286705 0.184357 0
197 1 0.271563 0.202395 0
199 1 0.292344 0.208325 0
170 1 0.307708 0.190179 0
198 1 0.277364 0.226272 0
200 1 0.312956 0.214219 0
201 1 0.328118 0.196081 0
202 1 0.334085 0.220043 0
174 1 0.363469 0.183704 0
203 1 0.348318 0.20244 0
204 1 0.36883 0.208768 0
233 1 0.354465 0.226814 0
175 1 0.384165 0.191425 0
205 1 0.389351 0.215363 0
176 1 0.404683 0.197887 0
207 1 0.410311 0.221844 0
179 1 0.440199 0.185924 0
178 1 0.425311 0.204115 0
209 1 0.446417 0.21039 0
180 1 0.461093 0.192513 0
1081 1 0.46657 0.217778 0
1052 1 0.481535 0.198265 0
1082 1 0.486875 0.223383 0
1140 1 0.0341441 0.25912 0
1110 1 0.0294495 0.234498 0
1108 1 0.0136618 0.251636 0
211 1 0.0496012 0.243203 0
212 1 0.0546206 0.267001 0
213 1 0.0707538 0.249154 0
184 1 0.0841105 0.230118 0
214 1 0.0916495 0.255024 0
215 1 0.106544 0.237068 0
216 1 0.112534 0.262016 0
187 1 0.143682 0.228954 0
217 1 0.127944 0.245056 0
218 1 0.133212 0.270035 0
188 1 0.148541 0.253025 0
190 1 0.163676 0.234786 0
220 1 0.169143 0.258646 0
221 1 0.184701 0.241663 0
222 1 0.189434 0.26635 0
223 1 0.205084 0.249305 0
194 1 0.220372 0.230831 0
224 1 0.225523 0.255535 0
225 1 0.24106 0.23738 0
226 1 0.24592 0.261335 0
227 1 0.261487 0.243829 0
257 1 0.267037 0.267873 0
228 1 0.282617 0.250238 0
229 1 0.297508 0.232389 0
230 1 0.302961 0.255867 0
231 1 0.318455 0.239154 0
261 1 0.324421 0.262684 0
232 1 0.339104 0.245072 0
263 1 0.344398 0.269889 0
234 1 0.359645 0.251514 0
235 1 0.37454 0.23411 0
265 1 0.380003 0.258033 0
206 1 0.394969 0.239642 0
236 1 0.400762 0.264148 0
237 1 0.41547 0.245794 0
238 1 0.42123 0.270689 0
208 1 0.431021 0.227955 0
239 1 0.43596 0.25263 0
210 1 0.451267 0.23576 0
240 1 0.456968 0.259776 0
1111 1 0.472137 0.242438 0
1112 1 0.477552 0.26704 0
1113 1 0.492437 0.248916 0
1142 1 0.498012 0.272348 0
1138 1 0.00437275 0.2938 0
1139 1 0.0182803 0.276312 0
1169 1 0.0244415 0.30127 0
243 1 0.0761368 0.273204 0
241 1 0.0392556 0.284044 0
271 1 0.0454108 0.309116 0
242 1 0.0600835 0.291126 0
273 1 0.0654595 0.316265 0
244 1 0.0803072 0.297687 0
245 1 0.0967319 0.279934 0
246 1 0.102457 0.303984 0
247 1 0.11797 0.286849 0
248 1 0.123681 0.311249 0
249 1 0.138632 0.293877 0
279 1 0.143815 0.317563 0
219 1 0.154108 0.27654 0
250 1 0.159336 0.30098 0
251 1 0.174115 0.283659 0
281 1 0.179411 0.307967 0
253 1 0.209865 0.27344 0
252 1 0.194307 0.290463 0
283 1 0.200124 0.315536 0
254 1 0.21453 0.297858 0
255 1 0.230649 0.279549 0
285 1 0.235808 0.302556 0
256 1 0.251475 0.286049 0
287 1 0.257356 0.31018 0
259 1 0.287804 0.273459 0
258 1 0.272386 0.291657 0
289 1 0.293615 0.297778 0
260 1 0.309509 0.279667 0
291 1 0.314128 0.30457 0
262 1 0.329142 0.28696 0
292 1 0.334179 0.311245 0
293 1 0.349057 0.293974 0
264 1 0.365018 0.276725 0
295 1 0.370651 0.3005 0
266 1 0.385109 0.281921 0
297 1 0.391575 0.306787 0
267 1 0.406011 0.28827 0
298 1 0.411251 0.313635 0
268 1 0.426052 0.295727 0
269 1 0.441642 0.277435 0
270 1 0.446973 0.301991 0
1141 1 0.462158 0.283823 0
300 1 0.467703 0.307783 0
1171 1 0.482808 0.29062 0
1172 1 0.488057 0.314993 0
1168 1 0.00998418 0.31782 0
1229 1 0.0343529 0.349903 0
1170 1 0.0295026 0.326248 0
1199 1 0.0140188 0.343388 0
1200 1 0.0498621 0.332863 0
301 1 0.0552632 0.357062 0
272 1 0.0711247 0.34029 0
275 1 0.0876881 0.322611 0
274 1 0.0921138 0.346928 0
276 1 0.108464 0.329414 0
305 1 0.11364 0.354945 0
277 1 0.128609 0.335541 0
278 1 0.148718 0.342963 0
307 1 0.134589 0.3603 0
280 1 0.164297 0.325893 0
311 1 0.169603 0.350727 0
282 1 0.18479 0.332875 0
312 1 0.190332 0.356974 0
313 1 0.204934 0.339036 0
284 1 0.220672 0.320984 0
315 1 0.225881 0.344136 0
314 1 0.211091 0.363021 0
286 1 0.241182 0.327214 0
316 1 0.246488 0.351749 0
317 1 0.261422 0.334656 0
318 1 0.267489 0.358699 0
288 1 0.278079 0.317009 0
319 1 0.28294 0.341248 0
290 1 0.298375 0.322549 0
320 1 0.304476 0.34596 0
321 1 0.319056 0.328427 0
322 1 0.324185 0.353619 0
323 1 0.339425 0.336491 0
324 1 0.344547 0.360869 0
294 1 0.354426 0.318393 0
325 1 0.360248 0.342306 0
296 1 0.3747 0.324507 0
326 1 0.38125 0.348457 0
327 1 0.395861 0.330549 0
328 1 0.401339 0.355012 0
329 1 0.416374 0.337428 0
358 1 0.422307 0.360926 0
299 1 0.43191 0.319538 0
359 1 0.43726 0.343082 0
330 1 0.45305 0.325761 0
360 1 0.457758 0.350399 0
1233 1 0.499915 0.363423 0
1202 1 0.493566 0.339783 0
1201 1 0.473819 0.333013 0
1231 1 0.478009 0.357595 0
1259 1 0.0210017 0.368253 0
1260 1 0.0252975 0.393036 0
1258 1 0.00490453 0.386134 0
1230 1 0.040928 0.375733 0
331 1 0.0459759 0.399719 0
302 1 0.0613179 0.382288 0
332 1 0.0667873 0.407174 0
303 1 0.0766153 0.364421 0
333 1 0.08246 0.389706 0
304 1 0.0979554 0.37181 0
335 1 0.102923 0.396409 0
306 1 0.118564 0.379424 0
337 1 0.12409 0.402526 0
308 1 0.13932 0.384626 0
309 1 0.154742 0.368131 0
339 1 0.159715 0.392649 0
310 1 0.175069 0.37544 0
341 1 0.181213 0.398685 0
343 1 0.196315 0.381023 0
342 1 0.201464 0.406002 0
344 1 0.216139 0.387992 0
345 1 0.231746 0.370866 0
346 1 0.237117 0.394984 0
347 1 0.25262 0.375401 0
377 1 0.257519 0.401876 0
349 1 0.28901 0.363875 0
348 1 0.272118 0.383156 0
350 1 0.293119 0.389266 0
378 1 0.277932 0.407745 0
351 1 0.308602 0.370614 0
381 1 0.314226 0.395598 0
353 1 0.329445 0.378317 0
352 1 0.334944 0.402972 0
354 1 0.350272 0.384461 0
355 1 0.364909 0.366573 0
356 1 0.371231 0.391489 0
357 1 0.385377 0.37265 0
386 1 0.391873 0.397781 0
387 1 0.406759 0.379633 0
388 1 0.412848 0.403876 0
389 1 0.427172 0.385232 0
1232 1 0.442679 0.367928 0
1261 1 0.447557 0.392949 0
1262 1 0.463105 0.374984 0
1293 1 0.469043 0.399506 0
1263 1 0.483108 0.381151 0
1294 1 0.489662 0.405431 0
1289 1 0.0102806 0.410928 0
1319 1 0.0157779 0.434868 0
391 1 0.0368773 0.441623 0
1290 1 0.030936 0.417377 0
1318 1 0.0008133 0.452365 0
361 1 0.0514949 0.424091 0
362 1 0.0575518 0.44884 0
363 1 0.0720378 0.432278 0
334 1 0.0875674 0.413826 0
365 1 0.0923455 0.437757 0
336 1 0.108322 0.421414 0
366 1 0.113798 0.445067 0
338 1 0.144657 0.409289 0
367 1 0.12888 0.427084 0
369 1 0.150013 0.434578 0
368 1 0.134255 0.452419 0
340 1 0.165916 0.41564 0
370 1 0.170366 0.441371 0
371 1 0.185644 0.422933 0
401 1 0.191205 0.448118 0
372 1 0.206764 0.430221 0
373 1 0.221975 0.412923 0
374 1 0.226964 0.437454 0
375 1 0.242619 0.419676 0
405 1 0.247884 0.444975 0
376 1 0.263271 0.426126 0
407 1 0.269153 0.450461 0
409 1 0.283385 0.433118 0
379 1 0.298508 0.413621 0
380 1 0.304655 0.438467 0
382 1 0.319381 0.420233 0
413 1 0.324958 0.444404 0
383 1 0.339985 0.427127 0
412 1 0.345507 0.450898 0
385 1 0.354864 0.409394 0
414 1 0.360668 0.433328 0
384 1 0.376741 0.415241 0
415 1 0.381293 0.4395 0
417 1 0.397233 0.421906 0
416 1 0.402192 0.44701 0
418 1 0.417074 0.428938 0
447 1 0.423082 0.45282 0
419 1 0.433416 0.411102 0
390 1 0.438033 0.434686 0
1291 1 0.454151 0.417899 0
1321 1 0.459314 0.441274 0
1323 1 0.495197 0.429169 0
1292 1 0.474567 0.423692 0
1322 1 0.480382 0.447498 0
1324 1 0.501665 0.453702 0
1320 1 0.021596 0.458906 0
421 1 0.0274628 0.484945 0
1349 1 0.00650468 0.476282 0
423 1 0.0690619 0.497356 0
392 1 0.0421568 0.466009 0
422 1 0.0488132 0.491976 0
393 1 0.0630168 0.473682 0
364 1 0.0781979 0.456392 0
394 1 0.0847644 0.479981 0
395 1 0.0997857 0.463481 0
396 1 0.104334 0.488234 0
397 1 0.119958 0.470678 0
427 1 0.124773 0.495381 0
398 1 0.140215 0.47725 0
399 1 0.154963 0.459197 0
429 1 0.16029 0.483567 0
400 1 0.175517 0.46546 0
431 1 0.181085 0.489645 0
403 1 0.211602 0.454733 0
402 1 0.196529 0.472287 0
432 1 0.201418 0.496788 0
433 1 0.216798 0.479261 0
404 1 0.233036 0.462322 0
435 1 0.237671 0.48708 0
406 1 0.253564 0.46856 0
436 1 0.258532 0.492079 0
408 1 0.27442 0.474365 0
410 1 0.290507 0.456349 0
441 1 0.294866 0.481735 0
439 1 0.279569 0.499165 0
411 1 0.310077 0.462695 0
440 1 0.31566 0.487659 0
442 1 0.331402 0.470227 0
471 1 0.337425 0.49444 0
473 1 0.352178 0.475924 0
443 1 0.366764 0.457368 0
444 1 0.373162 0.481963 0
445 1 0.387734 0.464775 0
475 1 0.393346 0.488399 0
446 1 0.408383 0.471894 0
477 1 0.41384 0.496341 0
448 1 0.428488 0.477959 0
420 1 0.444083 0.459056 0
449 1 0.449965 0.483533 0
1353 1 0.486159 0.471608 0
1352 1 0.491586 0.495247 0
1351 1 0.470557 0.489789 0
450 1 0.465719 0.466326 0
451 1 0.032864 0.508976 0
1380 1 0.0172401 0.525645 0
1350 1 0.011236 0.500769 0
452 1 0.0379775 0.533398 0
1409 1 0.00234254 0.543628 0
453 1 0.0540242 0.515987 0
454 1 0.0588612 0.54083 0
424 1 0.0746757 0.522679 0
425 1 0.0894508 0.50543 0
455 1 0.0951929 0.530127 0
426 1 0.110012 0.51305 0
456 1 0.11521 0.537833 0
457 1 0.130326 0.520388 0
459 1 0.150956 0.526353 0
458 1 0.135964 0.544374 0
428 1 0.145338 0.501854 0
430 1 0.166204 0.506966 0
460 1 0.172441 0.531507 0
461 1 0.186851 0.513797 0
462 1 0.1924 0.53847 0
463 1 0.207255 0.52105 0
434 1 0.222611 0.503888 0
464 1 0.227887 0.528011 0
465 1 0.243078 0.510463 0
466 1 0.247483 0.5355 0
437 1 0.264482 0.517075 0
497 1 0.26953 0.541802 0
467 1 0.284703 0.5237 0
438 1 0.299827 0.506764 0
468 1 0.30542 0.530513 0
469 1 0.321223 0.512537 0
499 1 0.326526 0.536533 0
470 1 0.342156 0.517967 0
503 1 0.362882 0.52539 0
501 1 0.347461 0.542498 0
474 1 0.377947 0.507353 0
472 1 0.357845 0.500567 0
505 1 0.382974 0.531568 0
476 1 0.3983 0.513924 0
506 1 0.403495 0.538647 0
507 1 0.419264 0.520736 0
480 1 0.440357 0.525037 0
479 1 0.455453 0.507808 0
478 1 0.434484 0.50176 0
509 1 0.424729 0.544023 0
510 1 0.460829 0.532727 0
1382 1 0.497688 0.52032 0
1381 1 0.476925 0.514553 0
1411 1 0.481625 0.538386 0
481 1 0.0228671 0.550239 0
1410 1 0.0274415 0.576383 0
1408 1 0.00683988 0.568971 0
483 1 0.0435015 0.558901 0
482 1 0.0479128 0.583839 0
513 1 0.0638531 0.565177 0
514 1 0.0687496 0.588954 0
485 1 0.079191 0.547032 0
484 1 0.0843875 0.572259 0
486 1 0.0993475 0.554518 0
515 1 0.10506 0.58025 0
487 1 0.120116 0.562491 0
517 1 0.12619 0.58628 0
488 1 0.141166 0.567577 0
489 1 0.157204 0.549504 0
490 1 0.161651 0.574566 0
491 1 0.177459 0.556922 0
521 1 0.182185 0.581297 0
493 1 0.212639 0.546272 0
492 1 0.197191 0.564096 0
523 1 0.202691 0.58895 0
494 1 0.217363 0.570904 0
495 1 0.232533 0.552702 0
525 1 0.238788 0.576938 0
496 1 0.254406 0.559536 0
526 1 0.259455 0.583373 0
527 1 0.274756 0.566421 0
498 1 0.290224 0.548444 0
529 1 0.295903 0.573409 0
528 1 0.280435 0.590541 0
500 1 0.310555 0.554695 0
530 1 0.316461 0.5791 0
531 1 0.331811 0.560963 0
532 1 0.337179 0.585198 0
533 1 0.352838 0.567418 0
502 1 0.367816 0.549523 0
534 1 0.373394 0.573025 0
563 1 0.357898 0.591076 0
504 1 0.389065 0.555781 0
535 1 0.394165 0.579974 0
508 1 0.410313 0.562037 0
537 1 0.415415 0.586895 0
539 1 0.43067 0.568458 0
540 1 0.445355 0.54983 0
569 1 0.451115 0.574359 0
1443 1 0.493455 0.588251 0
1442 1 0.472944 0.580791 0
1441 1 0.466628 0.556285 0
1412 1 0.488089 0.562901 0
511 1 0.03241 0.600718 0
1440 1 0.0171715 0.617989 0
1439 1 0.0121595 0.593638 0
541 1 0.0385778 0.624861 0
512 1 0.0539621 0.608224 0
542 1 0.0602015 0.631637 0
543 1 0.0748418 0.613717 0
545 1 0.0893712 0.596631 0
546 1 0.0954623 0.620779 0
516 1 0.110932 0.603796 0
547 1 0.116393 0.628512 0
519 1 0.146729 0.593796 0
518 1 0.131495 0.611135 0
548 1 0.152629 0.616778 0
577 1 0.1372 0.634846 0
520 1 0.166882 0.599032 0
549 1 0.172921 0.623479 0
522 1 0.187475 0.605399 0
551 1 0.193395 0.630683 0
553 1 0.208226 0.61301 0
524 1 0.224012 0.594739 0
554 1 0.229552 0.618985 0
555 1 0.244761 0.602079 0
556 1 0.251211 0.625958 0
557 1 0.265153 0.607155 0
558 1 0.286272 0.614127 0
587 1 0.271539 0.632133 0
559 1 0.301583 0.596648 0
560 1 0.307274 0.622108 0
561 1 0.322709 0.603563 0
591 1 0.328166 0.62771 0
562 1 0.343651 0.609754 0
565 1 0.364233 0.61599 0
536 1 0.378629 0.597356 0
564 1 0.349091 0.633758 0
566 1 0.384735 0.622825 0
567 1 0.400223 0.604773 0
597 1 0.405741 0.628369 0
568 1 0.421152 0.610898 0
538 1 0.436422 0.592975 0
600 1 0.441633 0.618089 0
570 1 0.456744 0.600026 0
599 1 0.426109 0.635033 0
1501 1 0.462865 0.624632 0
1471 1 0.477797 0.606202 0
1472 1 0.482752 0.630934 0
1473 1 0.498558 0.611626 0
1470 1 0.0235121 0.642875 0
1500 1 0.0199657 0.666627 0
1499 1 0.00407022 0.650911 0
571 1 0.043976 0.649895 0
572 1 0.0507824 0.672441 0
573 1 0.0650607 0.655938 0
603 1 0.0695788 0.682293 0
544 1 0.0806936 0.639578 0
574 1 0.0849025 0.663905 0
575 1 0.100684 0.644936 0
605 1 0.10608 0.669793 0
576 1 0.121403 0.652122 0
607 1 0.126193 0.676007 0
578 1 0.141812 0.658882 0
579 1 0.158475 0.641452 0
609 1 0.163217 0.666072 0
550 1 0.178574 0.648042 0
580 1 0.183594 0.672419 0
552 1 0.214611 0.635724 0
581 1 0.199525 0.65516 0
582 1 0.219928 0.660877 0
583 1 0.234975 0.642843 0
584 1 0.24127 0.667863 0
585 1 0.256828 0.649815 0
615 1 0.262576 0.674222 0
586 1 0.277195 0.657336 0
589 1 0.291654 0.638089 0
588 1 0.298038 0.663086 0
617 1 0.2833 0.680846 0
590 1 0.313724 0.645742 0
621 1 0.319262 0.669825 0
593 1 0.334322 0.651867 0
592 1 0.34016 0.675806 0
594 1 0.355576 0.657967 0
595 1 0.369576 0.640211 0
625 1 0.37592 0.665593 0
596 1 0.390595 0.647652 0
627 1 0.396789 0.672349 0
598 1 0.411762 0.653768 0
657 1 0.416708 0.679138 0
628 1 0.432188 0.659154 0
629 1 0.447834 0.642039 0
630 1 0.452185 0.666274 0
1503 1 0.488574 0.654754 0
1502 1 0.46804 0.649679 0
1533 1 0.473503 0.673335 0
1504 1 0.494366 0.679089 0
601 1 0.0342003 0.685792 0
631 1 0.0317218 0.710159 0
1530 1 0.014499 0.693284 0
1560 1 0.00982207 0.717317 0
602 1 0.0529144 0.700115 0
633 1 0.0749359 0.705316 0
632 1 0.0487171 0.727084 0
604 1 0.0904318 0.688093 0
635 1 0.0956212 0.711553 0
606 1 0.11201 0.694801 0
636 1 0.115773 0.718874 0
608 1 0.147552 0.683986 0
637 1 0.131951 0.701685 0
667 1 0.137855 0.72587 0
638 1 0.153166 0.708197 0
639 1 0.168944 0.690588 0
641 1 0.17437 0.715282 0
610 1 0.18924 0.696385 0
611 1 0.205042 0.679069 0
642 1 0.195132 0.721845 0
612 1 0.210243 0.703665 0
613 1 0.225942 0.685683 0
643 1 0.232711 0.708919 0
614 1 0.247463 0.691507 0
645 1 0.252225 0.716749 0
616 1 0.267897 0.699759 0
647 1 0.27367 0.723954 0
618 1 0.289063 0.70507 0
619 1 0.304326 0.687362 0
620 1 0.309954 0.711942 0
622 1 0.324877 0.694398 0
651 1 0.330996 0.718163 0
653 1 0.345392 0.700283 0
623 1 0.361193 0.683926 0
624 1 0.366928 0.707741 0
626 1 0.382411 0.689608 0
654 1 0.351487 0.724319 0
655 1 0.387342 0.715579 0
656 1 0.402671 0.697327 0
686 1 0.407541 0.721911 0
658 1 0.422994 0.702804 0
659 1 0.437168 0.683328 0
660 1 0.443137 0.709258 0
1531 1 0.458276 0.690714 0
687 1 0.428195 0.727502 0
1561 1 0.465236 0.714792 0
1532 1 0.479229 0.696777 0
1563 1 0.485788 0.72157 0
1589 1 0.00398831 0.741381 0
661 1 0.0250507 0.735128 0
1590 1 0.0202164 0.758924 0
663 1 0.0416866 0.75106 0
662 1 0.0555974 0.769419 0
664 1 0.063944 0.746305 0
634 1 0.0792119 0.729377 0
695 1 0.085773 0.754625 0
665 1 0.099872 0.735464 0
697 1 0.107548 0.759416 0
666 1 0.121715 0.741897 0
668 1 0.127365 0.76631 0
669 1 0.144458 0.749875 0
640 1 0.159664 0.732434 0
670 1 0.164668 0.757034 0
671 1 0.180194 0.73961 0
672 1 0.186631 0.762609 0
644 1 0.216509 0.727283 0
673 1 0.202751 0.746182 0
674 1 0.222262 0.752262 0
703 1 0.208162 0.771103 0
675 1 0.237356 0.734806 0
705 1 0.243258 0.75914 0
646 1 0.257985 0.741409 0
677 1 0.264686 0.765352 0
648 1 0.278928 0.747561 0
649 1 0.294672 0.729181 0
679 1 0.301517 0.753892 0
650 1 0.314748 0.735782 0
681 1 0.322392 0.760638 0
652 1 0.336213 0.741935 0
682 1 0.342603 0.767033 0
683 1 0.356857 0.749308 0
685 1 0.372069 0.73238 0
684 1 0.377232 0.756322 0
715 1 0.393436 0.739091 0
714 1 0.398636 0.762406 0
717 1 0.413491 0.745456 0
716 1 0.419286 0.770106 0
688 1 0.434968 0.751598 0
689 1 0.449688 0.732402 0
719 1 0.455985 0.757466 0
690 1 0.469992 0.739051 0
1591 1 0.475872 0.764468 0
1562 1 0.490201 0.745622 0
1593 1 0.496377 0.769922 0
691 1 0.0348505 0.77637 0
721 1 0.0287293 0.800831 0
1620 1 0.0137398 0.782622 0
1649 1 0.00884349 0.806461 0
693 1 0.0495508 0.793375 0
723 1 0.0653736 0.810474 0
694 1 0.070861 0.785655 0
725 1 0.0862486 0.803171 0
696 1 0.0921065 0.779025 0
727 1 0.107173 0.797075 0
699 1 0.147238 0.775591 0
728 1 0.120958 0.816316 0
698 1 0.128354 0.791852 0
700 1 0.141392 0.810931 0
731 1 0.158161 0.796335 0
701 1 0.172522 0.780243 0
732 1 0.177348 0.809362 0
702 1 0.192742 0.789724 0
763 1 0.198214 0.815311 0
733 1 0.213858 0.795856 0
704 1 0.228518 0.77745 0
706 1 0.234411 0.801557 0
676 1 0.249681 0.783415 0
737 1 0.255554 0.807616 0
707 1 0.270938 0.789984 0
678 1 0.28529 0.770852 0
738 1 0.276777 0.814855 0
708 1 0.291388 0.796639 0
709 1 0.306167 0.778128 0
710 1 0.312386 0.803549 0
680 1 0.32705 0.784985 0
741 1 0.332934 0.810729 0
713 1 0.362778 0.774349 0
711 1 0.347978 0.792763 0
712 1 0.369428 0.798277 0
743 1 0.383481 0.780379 0
742 1 0.353638 0.81661 0
745 1 0.38984 0.806056 0
746 1 0.403914 0.78744 0
775 1 0.41079 0.813093 0
718 1 0.43983 0.77562 0
747 1 0.426028 0.79491 0
749 1 0.446418 0.800692 0
748 1 0.431418 0.818354 0
720 1 0.461541 0.781456 0
1621 1 0.467112 0.806888 0
1592 1 0.481387 0.789559 0
1622 1 0.487941 0.813658 0
1650 1 0.0239013 0.824389 0
1709 1 0.0183719 0.848531 0
1679 1 0.00368687 0.831667 0
692 1 0.044384 0.817688 0
1680 1 0.0387035 0.841754 0
752 1 0.0541953 0.860211 0
751 1 0.0600591 0.836082 0
753 1 0.0738899 0.853435 0
722 1 0.0800561 0.828749 0
726 1 0.100318 0.822262 0
724 1 0.0951422 0.845935 0
757 1 0.1157 0.840538 0
756 1 0.131702 0.85719 0
729 1 0.136663 0.833979 0
759 1 0.153764 0.848705 0
730 1 0.159724 0.823812 0
761 1 0.182893 0.832995 0
792 1 0.188915 0.857275 0
735 1 0.219333 0.821028 0
762 1 0.204106 0.839375 0
734 1 0.225309 0.845229 0
736 1 0.240387 0.825178 0
765 1 0.245943 0.849819 0
767 1 0.261034 0.832383 0
766 1 0.266525 0.857463 0
768 1 0.28181 0.839477 0
739 1 0.297375 0.821718 0
769 1 0.303688 0.845814 0
740 1 0.318439 0.827786 0
770 1 0.324458 0.852189 0
771 1 0.339291 0.834999 0
801 1 0.344247 0.860251 0
773 1 0.359933 0.842515 0
744 1 0.374428 0.823364 0
803 1 0.380575 0.848189 0
774 1 0.395095 0.83028 0
776 1 0.401386 0.854985 0
777 1 0.416051 0.836298 0
778 1 0.421823 0.861053 0
779 1 0.436681 0.842705 0
750 1 0.451953 0.82559 0
780 1 0.458084 0.848897 0
1651 1 0.47348 0.830661 0
1652 1 0.478352 0.855124 0
1653 1 0.493925 0.837974 0
1683 1 0.499171 0.861639 0
781 1 0.0335734 0.866855 0
1710 1 0.0140831 0.874543 0
811 1 0.0292527 0.892696 0
1739 1 0.00822772 0.899518 0
782 1 0.049501 0.885281 0
813 1 0.0647469 0.902864 0
783 1 0.0690557 0.878553 0
812 1 0.0446196 0.910375 0
755 1 0.11061 0.863242 0
784 1 0.0859175 0.895672 0
754 1 0.0899325 0.869973 0
785 1 0.105534 0.886843 0
786 1 0.122343 0.904351 0
787 1 0.1267 0.880038 0
788 1 0.143258 0.896767 0
758 1 0.14761 0.873151 0
760 1 0.168424 0.866196 0
789 1 0.164973 0.89115 0
791 1 0.185969 0.88246 0
790 1 0.179641 0.909238 0
764 1 0.209777 0.863022 0
823 1 0.199971 0.901019 0
793 1 0.216546 0.886922 0
795 1 0.230277 0.868245 0
794 1 0.23726 0.892775 0
796 1 0.251735 0.874877 0
825 1 0.258578 0.899859 0
797 1 0.288131 0.864424 0
827 1 0.273412 0.882264 0
826 1 0.278948 0.905675 0
798 1 0.294983 0.887923 0
799 1 0.309306 0.87019 0
829 1 0.315582 0.896113 0
800 1 0.330035 0.877784 0
831 1 0.335654 0.903344 0
802 1 0.350507 0.885021 0
772 1 0.365545 0.866013 0
804 1 0.371465 0.890998 0
833 1 0.355903 0.910305 0
805 1 0.386479 0.872619 0
806 1 0.391933 0.897566 0
807 1 0.406638 0.880054 0
837 1 0.412884 0.904621 0
809 1 0.442768 0.867214 0
808 1 0.427852 0.885149 0
810 1 0.448715 0.892121 0
1681 1 0.463391 0.873409 0
1711 1 0.46939 0.898544 0
1682 1 0.484132 0.879931 0
1713 1 0.489755 0.904622 0
1740 1 0.0240131 0.91756 0
1769 1 0.0178812 0.94192 0
1738 1 0.0035261 0.924234 0
841 1 0.0387205 0.934418 0
842 1 0.0539077 0.951765 0
843 1 0.0596088 0.926802 0
844 1 0.0751603 0.943215 0
814 1 0.0800483 0.919283 0
815 1 0.101449 0.911851 0
845 1 0.095327 0.936372 0
846 1 0.110151 0.952631 0
816 1 0.116805 0.929344 0
847 1 0.131879 0.946226 0
817 1 0.137818 0.921162 0
818 1 0.152581 0.940215 0
819 1 0.158034 0.915446 0
820 1 0.173897 0.932627 0
851 1 0.188692 0.949921 0
821 1 0.195653 0.925833 0
824 1 0.220855 0.911101 0
822 1 0.209255 0.943565 0
853 1 0.228058 0.935257 0
855 1 0.241997 0.91711 0
854 1 0.248238 0.942715 0
856 1 0.263433 0.924262 0
885 1 0.268978 0.948301 0
857 1 0.285661 0.931625 0
828 1 0.299867 0.913732 0
859 1 0.305624 0.938355 0
830 1 0.320041 0.920169 0
860 1 0.326018 0.945573 0
832 1 0.340388 0.928255 0
861 1 0.347489 0.952245 0
863 1 0.363032 0.933968 0
834 1 0.377341 0.915829 0
865 1 0.383757 0.941638 0
835 1 0.398019 0.922301 0
836 1 0.404619 0.946051 0
838 1 0.418969 0.928202 0
839 1 0.433673 0.909881 0
869 1 0.438215 0.935234 0
840 1 0.454575 0.916416 0
867 1 0.424304 0.95334 0
1741 1 0.45943 0.940051 0
1743 1 0.495549 0.930222 0
1712 1 0.474792 0.922989 0
1742 1 0.480684 0.94769 0
1770 1 0.0331476 0.958429 0
1799 1 0.0128113 0.965801 0
1800 1 0.0288691 0.983066 0
1798 1 0.00832444 0.989482 0
871 1 0.0488198 0.975877 0
872 1 0.0639982 0.993043 0
873 1 0.0696646 0.968023 0
874 1 0.0843032 0.985374 0
875 1 0.0900872 0.961195 0
876 1 0.105357 0.978272 0
7 1 0.120401 0.995333 0
877 1 0.125821 0.970603 0
878 1 0.1414 0.987768 0
848 1 0.147179 0.964045 0
881 1 0.177548 0.998434 0
849 1 0.167651 0.956156 0
879 1 0.161994 0.980412 0
850 1 0.182343 0.974275 0
11 1 0.197738 0.991661 0
852 1 0.203879 0.966804 0
883 1 0.225739 0.960553 0
882 1 0.21825 0.985294 0
884 1 0.238373 0.97971 0
886 1 0.255908 0.967523 0
16 1 0.257678 0.994336 0
887 1 0.290646 0.956335 0
17 1 0.276158 0.974762 0
888 1 0.297554 0.980929 0
18 1 0.281317 0.998815 0
858 1 0.311586 0.963021 0
889 1 0.317312 0.988503 0
891 1 0.33321 0.970537 0
890 1 0.339163 0.99453 0
862 1 0.353589 0.976028 0
864 1 0.368157 0.95842 0
893 1 0.374815 0.982826 0
892 1 0.359892 1.00061 0
895 1 0.389895 0.96575 0
896 1 0.395164 0.990122 0
866 1 0.410298 0.971554 0
897 1 0.415655 0.996145 0
868 1 0.431013 0.977951 0
899 1 0.450632 0.984097 0
870 1 0.44486 0.959274 0
1773 1 0.486786 0.972457 0
1772 1 0.472079 0.990151 0
903 1 0.492554 0.997229 0
1771 1 0.46592 0.964669 0
904 1 0.519522 0.0276044 0
905 1 0.513313 0.00307904 0
906 1 0.5339 0.00891377 0
935 1 0.539496 0.0334151 0
908 1 0.55461 0.0158529 0
937 1 0.560257 0.039585 0
939 1 0.575378 0.0215945 0
940 1 0.595691 0.028248 0
941 1 0.589838 0.00431987 0
942 1 0.771654 0.022028 0
943 1 0.792612 0.0168312 0
945 1 0.807505 0.0342384 0
944 1 0.786845 0.0407358 0
914 1 0.813379 0.0103766 0
947 1 0.828572 0.0277713 0
916 1 0.834308 0.0036495 0
918 1 0.848646 0.0219894 0
949 1 0.864149 0.0395155 0
919 1 0.869061 0.0151792 0
920 1 0.884229 0.0328253 0
1790 1 0.89005 0.00752329 0
951 1 0.905243 0.0252876 0
952 1 0.919716 0.0432977 0
921 1 0.910874 -0.00052076 0
922 1 0.925667 0.0177308 0
953 1 0.940763 0.0360517 0
924 1 0.947175 0.0122989 0
955 1 0.96204 0.029442 0
925 1 0.96747 0.00480943 0
926 1 0.982345 0.0218428 0
957 1 0.99741 0.0396595 0
933 1 0.503291 0.0460424 0
963 1 0.509671 0.0708445 0
934 1 0.524806 0.05286 0
965 1 0.530825 0.0779833 0
936 1 0.545294 0.0588479 0
966 1 0.55141 0.083967 0
967 1 0.566127 0.0644123 0
938 1 0.580677 0.0465993 0
969 1 0.587311 0.0709739 0
971 1 0.76636 0.0463987 0
970 1 0.759919 0.0708964 0
973 1 0.781432 0.0655145 0
975 1 0.802231 0.0591221 0
1003 1 0.796212 0.0830173 0
972 1 0.774564 0.0897296 0
948 1 0.84253 0.0456306 0
974 1 0.817064 0.0771871 0
946 1 0.822339 0.0525023 0
976 1 0.837642 0.0698513 0
977 1 0.858871 0.0630795 0
979 1 0.879046 0.0569054 0
978 1 0.873668 0.0804904 0
1007 1 0.852669 0.087364 0
950 1 0.899335 0.0505394 0
980 1 0.894125 0.0752591 0
981 1 0.914417 0.0678137 0
982 1 0.930221 0.0856749 0
983 1 0.936077 0.0610611 0
984 1 0.950686 0.0787157 0
954 1 0.956617 0.0528454 0
956 1 0.977019 0.0470456 0
985 1 0.971183 0.0711635 0
987 1 0.9917 0.064193 0
986 1 0.987071 0.0888249 0
964 1 0.515118 0.0951094 0
993 1 0.500812 0.112996 0
994 1 0.521764 0.119949 0
995 1 0.536713 0.101906 0
968 1 0.573157 0.0892574 0
996 1 0.542345 0.127761 0
997 1 0.558005 0.108008 0
1027 1 0.563657 0.133141 0
998 1 0.578874 0.114048 0
1000 1 0.599684 0.123613 0
1030 1 0.620383 0.130096 0
999 1 0.636661 0.111365 0
1001 1 0.656987 0.117458 0
1002 1 0.677407 0.126636 0
1033 1 0.791232 0.107988 0
1065 1 0.806731 0.126294 0
1005 1 0.832915 0.0947517 0