ITEM: TIMESTEP
168000
ITEM: NUMBER OF ATOMS
1800
ITEM: BOX BOUNDS pp pp pp
-5.5829503551641491e+00 1.7058295035516608e+02
1.1826529217466231e+00 1.6381734707825530e+02
0.0000000000000000e+00 5.5000000000000000e+00
ITEM: ATOMS id type xs ys zs
2 1 0.0374632 0.0196943 0
930 1 0.0151261 0.0272355 0
1 1 0.0208831 0.00327257 0
33 1 0.05396 0.0363888 0
3 1 0.0590162 0.0112258 0
4 1 0.0762592 0.0288858 0
5 1 0.0812127 0.00428523 0
6 1 0.0987037 0.0218353 0
8 1 0.121047 0.0140188 0
37 1 0.115863 0.0385642 0
39 1 0.137554 0.0305475 0
880 1 0.142751 0.00616336 0
9 1 0.159281 0.0230728 0
40 1 0.176757 0.0402766 0
10 1 0.181784 0.0148871 0
41 1 0.199051 0.0320722 0
12 1 0.204239 0.00751649 0
14 1 0.220912 0.0235799 0
15 1 0.242036 0.014876 0
45 1 0.23668 0.0404983 0
16 1 0.26314 0.00768074 0
46 1 0.257518 0.0316999 0
47 1 0.288079 0.0266391 0
18 1 0.284654 0.00106944 0
49 1 0.310808 0.0319319 0
19 1 0.304733 0.00864342 0
20 1 0.327277 0.0133795 0
51 1 0.33255 0.0375996 0
21 1 0.349672 0.0183702 0
23 1 0.371472 0.0243888 0
22 1 0.354754 0.0425667 0
894 1 0.387201 0.00611241 0
24 1 0.393251 0.0307599 0
25 1 0.409483 0.0122056 0
26 1 0.416411 0.0355411 0
27 1 0.431643 0.0173657 0
29 1 0.453798 0.0231299 0
28 1 0.438372 0.0413724 0
420 1 0.460753 0.459849 0
900 1 0.469321 0.00485696 0
30 1 0.476806 0.0286171 0
901 1 0.491761 0.00889787 0
931 1 0.500189 0.0348762 0
31 1 0.0315329 0.0438674 0
989 1 0.00508227 0.0770171 0
61 1 0.0264472 0.0686221 0
960 1 0.00976849 0.0523184 0
62 1 0.0434809 0.0855141 0
32 1 0.0486727 0.0614794 0
63 1 0.0662442 0.079161 0
34 1 0.0710195 0.054586 0
35 1 0.0924844 0.0462948 0
65 1 0.087621 0.0719228 0
36 1 0.109589 0.0624037 0
66 1 0.10415 0.0880826 0
69 1 0.154838 0.0477155 0
67 1 0.125826 0.0794381 0
38 1 0.132742 0.054325 0
68 1 0.148199 0.0719923 0
70 1 0.166846 0.0897913 0
71 1 0.170748 0.0654865 0
72 1 0.1891 0.0806936 0
42 1 0.193687 0.0563755 0
73 1 0.210686 0.0732406 0
43 1 0.2152 0.0492562 0
44 1 0.232821 0.0659793 0
105 1 0.229018 0.0901289 0
74 1 0.251445 0.0818333 0
75 1 0.254323 0.0568269 0
76 1 0.274364 0.0709188 0
77 1 0.274503 0.0469128 0
48 1 0.296173 0.0503806 0
79 1 0.30165 0.0753817 0
50 1 0.317467 0.0562633 0
81 1 0.324615 0.0808912 0
52 1 0.339606 0.0615781 0
83 1 0.362154 0.0680347 0
82 1 0.346905 0.086467 0
53 1 0.377362 0.0494482 0
54 1 0.384136 0.074712 0
55 1 0.400265 0.0541709 0
56 1 0.40682 0.0796035 0
57 1 0.422586 0.060527 0
58 1 0.444881 0.065767 0
87 1 0.42876 0.0854818 0
59 1 0.46127 0.0479258 0
89 1 0.467663 0.0719283 0
60 1 0.48421 0.0526053 0
961 1 0.49086 0.0785778 0
990 1 0.0211727 0.0940461 0
1020 1 0.0170271 0.120037 0
121 1 0.034182 0.13634 0
1019 1 0.000152109 0.102828 0
91 1 0.0379792 0.110951 0
92 1 0.0554938 0.127487 0
93 1 0.0601397 0.103333 0
94 1 0.0769718 0.120249 0
64 1 0.0827397 0.0969118 0
95 1 0.0999441 0.112397 0
96 1 0.118074 0.128532 0
97 1 0.12298 0.103808 0
98 1 0.14036 0.121049 0
99 1 0.145052 0.0963413 0
100 1 0.162948 0.113859 0
130 1 0.180474 0.131217 0
101 1 0.185001 0.105022 0
102 1 0.201822 0.12216 0
103 1 0.207097 0.097743 0
104 1 0.224681 0.117164 0
106 1 0.245984 0.10638 0
137 1 0.253069 0.129929 0
107 1 0.268304 0.111348 0
78 1 0.285207 0.0929968 0
109 1 0.292227 0.117246 0
80 1 0.307591 0.0993732 0
110 1 0.314346 0.123421 0
111 1 0.329515 0.105206 0
141 1 0.337052 0.129363 0
113 1 0.35228 0.110812 0
84 1 0.369121 0.0933927 0
143 1 0.359484 0.135981 0
112 1 0.375427 0.11724 0
85 1 0.391379 0.0983404 0
115 1 0.398342 0.123695 0
86 1 0.413368 0.104568 0
88 1 0.452282 0.0906791 0
116 1 0.42081 0.129136 0
117 1 0.436103 0.109041 0
118 1 0.442865 0.134624 0
119 1 0.45921 0.114567 0
90 1 0.475018 0.0969988 0
120 1 0.481975 0.121861 0
991 1 0.497782 0.102713 0
1079 1 0.008527 0.16905 0
151 1 0.0298706 0.161312 0
1050 1 0.012207 0.143845 0
152 1 0.048123 0.17811 0
122 1 0.0513874 0.15336 0
153 1 0.0691001 0.170824 0
123 1 0.0732455 0.144482 0
125 1 0.0946206 0.135993 0
124 1 0.089826 0.16057 0
126 1 0.111923 0.152252 0
155 1 0.106473 0.17581 0
157 1 0.128104 0.170493 0
127 1 0.135265 0.146104 0
129 1 0.157792 0.138104 0
128 1 0.152858 0.164116 0
159 1 0.17422 0.15542 0
131 1 0.199102 0.158483 0
132 1 0.182586 0.178011 0
135 1 0.238007 0.148032 0
133 1 0.216263 0.141903 0
134 1 0.222057 0.165658 0
165 1 0.244453 0.171474 0
108 1 0.275317 0.134522 0
136 1 0.260253 0.153695 0
138 1 0.281944 0.15921 0
167 1 0.266218 0.177894 0
139 1 0.297763 0.141213 0
169 1 0.304412 0.165723 0
140 1 0.320665 0.147653 0
171 1 0.326618 0.171484 0
142 1 0.342628 0.153891 0
173 1 0.364796 0.160174 0
172 1 0.349081 0.178303 0
114 1 0.380989 0.14073 0
144 1 0.386501 0.165308 0
145 1 0.403862 0.147368 0
146 1 0.409128 0.172577 0
147 1 0.42594 0.153693 0
148 1 0.448719 0.158593 0
177 1 0.431685 0.177484 0
1051 1 0.493536 0.170102 0
149 1 0.465712 0.140713 0
150 1 0.471662 0.164113 0
1021 1 0.488319 0.146124 0
1080 1 0.0252368 0.186113 0
1109 1 0.0205974 0.212532 0
1078 1 0.00281414 0.193536 0
181 1 0.0423681 0.203262 0
183 1 0.0664758 0.197236 0
182 1 0.0521103 0.22575 0
185 1 0.0879779 0.212289 0
154 1 0.0870195 0.187841 0
186 1 0.110814 0.223359 0
156 1 0.107444 0.199887 0
158 1 0.128507 0.207606 0
160 1 0.1438 0.188943 0
189 1 0.150601 0.213648 0
161 1 0.166477 0.196039 0
191 1 0.173202 0.220023 0
163 1 0.205576 0.184866 0
162 1 0.1893 0.202561 0
192 1 0.19509 0.226146 0
193 1 0.212076 0.209419 0
164 1 0.228769 0.190461 0
195 1 0.233742 0.215012 0
166 1 0.250494 0.197327 0
196 1 0.257311 0.221217 0
197 1 0.272582 0.202631 0
168 1 0.288448 0.182934 0
198 1 0.279723 0.227318 0
199 1 0.29501 0.208403 0
170 1 0.31107 0.190569 0
200 1 0.31669 0.214785 0
201 1 0.333129 0.196207 0
202 1 0.338608 0.221424 0
203 1 0.354862 0.202446 0
174 1 0.371106 0.184538 0
233 1 0.360351 0.227385 0
204 1 0.376517 0.209346 0
175 1 0.393405 0.190822 0
205 1 0.399637 0.215169 0
176 1 0.415548 0.19707 0
179 1 0.455288 0.182422 0
207 1 0.422683 0.22002 0
178 1 0.439437 0.200803 0
208 1 0.444805 0.226158 0
209 1 0.461123 0.206453 0
180 1 0.478167 0.188488 0
1081 1 0.484554 0.212236 0
449 1 0.467508 0.48422 0
211 1 0.0361608 0.242188 0
1140 1 0.0186253 0.25977 0
212 1 0.0396877 0.267239 0
1110 1 0.0138426 0.235815 0
213 1 0.0571024 0.250553 0
184 1 0.0737694 0.232357 0
214 1 0.0790407 0.258822 0
215 1 0.0952036 0.241354 0
216 1 0.100956 0.265969 0
217 1 0.117691 0.248437 0
218 1 0.123146 0.272459 0
187 1 0.133231 0.231125 0
188 1 0.139558 0.254647 0
190 1 0.155479 0.237327 0
220 1 0.162584 0.261815 0
221 1 0.178448 0.243186 0
222 1 0.184484 0.268475 0
223 1 0.200456 0.250689 0
194 1 0.218267 0.233006 0
224 1 0.224103 0.256649 0
225 1 0.240758 0.23873 0
226 1 0.24733 0.263243 0
227 1 0.263121 0.245648 0
228 1 0.284808 0.252196 0
257 1 0.26904 0.270015 0
229 1 0.301231 0.233209 0
230 1 0.307351 0.258906 0
231 1 0.322759 0.240295 0
261 1 0.328917 0.265265 0
232 1 0.344801 0.247569 0
234 1 0.367372 0.252762 0
263 1 0.351466 0.271877 0
235 1 0.382995 0.233455 0
265 1 0.390213 0.257718 0
206 1 0.405206 0.238843 0
236 1 0.412166 0.263359 0
237 1 0.428821 0.243916 0
239 1 0.451119 0.250374 0
238 1 0.434381 0.268907 0
210 1 0.467811 0.231475 0
240 1 0.473519 0.256288 0
1111 1 0.489594 0.237825 0
1112 1 0.496023 0.262566 0
1139 1 0.00115975 0.278205 0
1169 1 0.00579911 0.303365 0
241 1 0.0225873 0.285182 0
271 1 0.0278996 0.309945 0
242 1 0.0457208 0.29314 0
243 1 0.0622639 0.276284 0
244 1 0.067569 0.300036 0
245 1 0.0842643 0.283147 0
273 1 0.0509691 0.317456 0
246 1 0.0891218 0.306729 0
247 1 0.107253 0.290175 0
248 1 0.111314 0.314797 0
249 1 0.128426 0.296908 0
219 1 0.14492 0.279416 0
250 1 0.151666 0.303503 0
251 1 0.167747 0.2862 0
253 1 0.207285 0.274176 0
281 1 0.173487 0.311313 0
252 1 0.19004 0.292244 0
254 1 0.212966 0.298782 0
255 1 0.229567 0.282308 0
285 1 0.23618 0.306585 0
256 1 0.252722 0.287983 0
287 1 0.258217 0.312639 0
258 1 0.274752 0.294357 0
259 1 0.290975 0.276353 0
289 1 0.296127 0.301474 0
260 1 0.312485 0.283413 0
291 1 0.318769 0.30773 0
262 1 0.335431 0.290507 0
293 1 0.357178 0.296525 0
292 1 0.340822 0.314544 0
264 1 0.373902 0.276218 0
295 1 0.379875 0.300505 0
266 1 0.394785 0.282555 0
297 1 0.402133 0.306093 0
267 1 0.418808 0.28753 0
268 1 0.440333 0.293253 0
298 1 0.424358 0.311648 0
269 1 0.456421 0.275174 0
270 1 0.462173 0.299652 0
1141 1 0.478833 0.281366 0
300 1 0.484979 0.305907 0
1200 1 0.03315 0.33438 0
301 1 0.0389187 0.359915 0
1229 1 0.0165383 0.352406 0
1170 1 0.0103539 0.328096 0
272 1 0.0558919 0.342106 0
275 1 0.0725496 0.324719 0
274 1 0.0774375 0.349124 0
276 1 0.0945979 0.331644 0
305 1 0.0998741 0.355722 0
277 1 0.117365 0.338835 0
307 1 0.122831 0.361971 0
279 1 0.134708 0.320732 0
278 1 0.139506 0.345023 0
280 1 0.156337 0.327598 0
311 1 0.16211 0.35227 0
283 1 0.196626 0.317141 0
282 1 0.179216 0.33504 0
312 1 0.185087 0.35851 0
313 1 0.201832 0.341405 0
284 1 0.218546 0.323977 0
315 1 0.224506 0.347936 0
286 1 0.241142 0.330839 0
316 1 0.247245 0.354847 0
288 1 0.280811 0.319551 0
317 1 0.263772 0.337471 0
319 1 0.286252 0.343564 0
318 1 0.268808 0.361208 0
290 1 0.30229 0.32566 0
320 1 0.309021 0.350379 0
321 1 0.324442 0.332612 0
322 1 0.331408 0.357403 0
323 1 0.34663 0.339379 0
294 1 0.363351 0.320648 0
325 1 0.369281 0.344506 0
324 1 0.353611 0.363318 0
296 1 0.385457 0.325729 0
326 1 0.391177 0.349749 0
327 1 0.408132 0.330988 0
328 1 0.414079 0.355412 0
299 1 0.446754 0.318225 0
329 1 0.430896 0.335708 0
359 1 0.452601 0.343411 0
358 1 0.436072 0.361389 0
330 1 0.468719 0.324057 0
360 1 0.475692 0.348727 0
1201 1 0.491055 0.330119 0
1231 1 0.497715 0.354184 0
1230 1 0.0210349 0.376376 0
331 1 0.0272267 0.401128 0
1260 1 0.00532911 0.393833 0
302 1 0.0436821 0.383833 0
303 1 0.0614782 0.367167 0
333 1 0.0672681 0.391255 0
304 1 0.0831222 0.3751 0
332 1 0.0498204 0.407239 0
335 1 0.0891703 0.399352 0
306 1 0.105805 0.380454 0
337 1 0.112051 0.404866 0
308 1 0.129527 0.386497 0
309 1 0.145666 0.369713 0
339 1 0.150664 0.394022 0
310 1 0.167508 0.376261 0
314 1 0.208347 0.365465 0
341 1 0.175472 0.401022 0
343 1 0.191131 0.382931 0
342 1 0.197353 0.40766 0
344 1 0.214138 0.391015 0
345 1 0.23049 0.372183 0
346 1 0.236432 0.396435 0
347 1 0.252913 0.379193 0
377 1 0.259163 0.403019 0
348 1 0.274134 0.386072 0
349 1 0.29119 0.368992 0
350 1 0.297619 0.392635 0
351 1 0.31393 0.374633 0
381 1 0.319934 0.399821 0
353 1 0.336424 0.38106 0
354 1 0.358844 0.3876 0
352 1 0.342297 0.405842 0
355 1 0.375978 0.369994 0
356 1 0.381557 0.393462 0
357 1 0.398344 0.373546 0
386 1 0.403574 0.398992 0
387 1 0.421027 0.379864 0
389 1 0.442889 0.385192 0
388 1 0.426805 0.405033 0
1232 1 0.459474 0.367778 0
1262 1 0.482741 0.374067 0
1261 1 0.464797 0.393222 0
1293 1 0.488079 0.398109 0
361 1 0.0320888 0.424921 0
362 1 0.0382865 0.448699 0
391 1 0.0156038 0.44221 0
1290 1 0.0092662 0.418388 0
363 1 0.0553682 0.432492 0
334 1 0.071737 0.415131 0
365 1 0.0770364 0.438674 0
336 1 0.0954212 0.421916 0
366 1 0.0996834 0.446762 0
367 1 0.118175 0.428965 0
368 1 0.121721 0.452831 0
338 1 0.134456 0.41121 0
369 1 0.139701 0.435601 0
340 1 0.157567 0.419389 0
370 1 0.162791 0.443279 0
371 1 0.18009 0.424852 0
401 1 0.18522 0.449145 0
372 1 0.202756 0.432592 0
373 1 0.219878 0.414685 0
374 1 0.2249 0.438804 0
375 1 0.242149 0.421744 0
405 1 0.247353 0.446288 0
378 1 0.281496 0.410722 0
376 1 0.264962 0.42839 0
409 1 0.286773 0.435722 0
407 1 0.27034 0.455044 0
379 1 0.303094 0.417752 0
380 1 0.309701 0.442504 0
382 1 0.325675 0.423575 0
413 1 0.332012 0.448617 0
383 1 0.348059 0.430691 0
385 1 0.364526 0.412587 0
414 1 0.371057 0.436189 0
412 1 0.354805 0.454547 0
384 1 0.38748 0.418215 0
415 1 0.392901 0.442689 0
417 1 0.409378 0.423871 0
416 1 0.416439 0.449198 0
419 1 0.448794 0.41083 0
418 1 0.431876 0.428939 0
390 1 0.454354 0.435438 0
447 1 0.438819 0.454039 0
1292 1 0.493423 0.422681 0
1291 1 0.471729 0.416183 0
1321 1 0.477023 0.441172 0
1322 1 0.500576 0.446473 0
421 1 0.00348559 0.483764 0
392 1 0.0209577 0.466144 0
422 1 0.0262829 0.489814 0
393 1 0.0433977 0.473557 0
364 1 0.06082 0.455883 0
394 1 0.0652678 0.47994 0
395 1 0.0831833 0.463118 0
423 1 0.0483157 0.497768 0
396 1 0.0892973 0.488337 0
397 1 0.105815 0.471204 0
427 1 0.111497 0.496363 0
398 1 0.128052 0.476393 0
399 1 0.145039 0.459898 0
429 1 0.150125 0.483517 0
400 1 0.168275 0.467196 0
431 1 0.173823 0.490705 0
402 1 0.190936 0.473337 0
432 1 0.196775 0.497706 0
403 1 0.207471 0.456621 0
433 1 0.213717 0.480205 0
404 1 0.230281 0.462756 0
435 1 0.235862 0.48823 0
406 1 0.252474 0.469952 0
436 1 0.257736 0.496342 0
408 1 0.274022 0.478885 0
410 1 0.292256 0.460593 0
441 1 0.296902 0.485292 0
411 1 0.314494 0.46711 0
440 1 0.320282 0.492475 0
442 1 0.337565 0.473502 0
473 1 0.36041 0.478761 0
471 1 0.343417 0.498209 0
443 1 0.376903 0.461089 0
444 1 0.383209 0.486038 0
445 1 0.39914 0.46666 0
475 1 0.405297 0.492372 0
448 1 0.444306 0.478185 0
446 1 0.421685 0.473879 0
477 1 0.427713 0.4977 0
450 1 0.483195 0.465678 0
1351 1 0.489691 0.490096 0
892 1 0.365174 0.000518853 0
454 1 0.0375548 0.540409 0
453 1 0.0321705 0.51511 0
452 1 0.0157454 0.533408 0
451 1 0.0105451 0.508384 0
424 1 0.0548784 0.52172 0
455 1 0.0769494 0.529967 0
425 1 0.0707134 0.503578 0
426 1 0.0931691 0.512278 0
456 1 0.0997723 0.537218 0
457 1 0.115207 0.519684 0
458 1 0.121907 0.544993 0
459 1 0.138899 0.523776 0
460 1 0.162103 0.531486 0
430 1 0.15701 0.506983 0
428 1 0.132961 0.501188 0
461 1 0.179496 0.514912 0
462 1 0.184761 0.538393 0
463 1 0.201812 0.521708 0
434 1 0.219643 0.505497 0
464 1 0.224236 0.529911 0
466 1 0.246507 0.538608 0
465 1 0.242273 0.514104 0
437 1 0.264401 0.522096 0
467 1 0.287283 0.529022 0
497 1 0.268985 0.545994 0
439 1 0.280563 0.503835 0
438 1 0.303696 0.510595 0
468 1 0.309418 0.536222 0
469 1 0.32607 0.516887 0
499 1 0.332427 0.542073 0
470 1 0.34825 0.52253 0
472 1 0.366493 0.503695 0
503 1 0.371396 0.529058 0
474 1 0.389384 0.51119 0
505 1 0.393744 0.535844 0
476 1 0.411577 0.516941 0
507 1 0.43419 0.521576 0
506 1 0.417853 0.540557 0
478 1 0.44955 0.502345 0
480 1 0.457754 0.526837 0
479 1 0.473159 0.508282 0
510 1 0.480103 0.532857 0
1381 1 0.497287 0.514016 0
482 1 0.025904 0.582372 0
483 1 0.0206577 0.557832 0
1410 1 0.00403749 0.574609 0
513 1 0.0427403 0.564609 0
485 1 0.0601426 0.547877 0
484 1 0.0654913 0.571729 0
514 1 0.0480051 0.588841 0
486 1 0.0830802 0.555113 0
515 1 0.0887987 0.581137 0
487 1 0.104833 0.563405 0
517 1 0.110064 0.590402 0
489 1 0.144957 0.547215 0
488 1 0.126755 0.573476 0
490 1 0.150838 0.570254 0
491 1 0.16756 0.554726 0
521 1 0.173302 0.577803 0
492 1 0.189671 0.562985 0
523 1 0.194885 0.587276 0
493 1 0.207304 0.546977 0
494 1 0.211997 0.57168 0
495 1 0.229692 0.555594 0
525 1 0.234257 0.580663 0
496 1 0.25156 0.563949 0
526 1 0.256266 0.587543 0
527 1 0.275167 0.571251 0
498 1 0.291326 0.553932 0
529 1 0.297557 0.579378 0
500 1 0.314199 0.559626 0
530 1 0.320593 0.583309 0
501 1 0.355637 0.547192 0
531 1 0.337218 0.565994 0
533 1 0.362373 0.571632 0
502 1 0.378087 0.553104 0
534 1 0.385832 0.576494 0
504 1 0.40169 0.558639 0
535 1 0.40871 0.582182 0
509 1 0.440576 0.545624 0
508 1 0.425676 0.564007 0
537 1 0.431416 0.587792 0
539 1 0.448264 0.568891 0
1442 1 0.493441 0.580491 0
540 1 0.464169 0.550909 0
569 1 0.470162 0.575223 0
1441 1 0.486168 0.55644 0
512 1 0.0298384 0.606816 0
542 1 0.0340738 0.631176 0
541 1 0.0119601 0.622653 0
511 1 0.00731124 0.598604 0
543 1 0.0515438 0.614772 0
545 1 0.0704467 0.598194 0
546 1 0.0747776 0.623172 0
516 1 0.0926718 0.606783 0
547 1 0.0959245 0.632181 0
518 1 0.114362 0.617231 0
519 1 0.131239 0.600533 0
548 1 0.136334 0.629209 0
520 1 0.153935 0.593566 0
549 1 0.156592 0.617134 0
522 1 0.175662 0.602211 0
551 1 0.178055 0.626404 0
553 1 0.196957 0.611475 0
524 1 0.216117 0.596145 0
554 1 0.21901 0.622392 0
555 1 0.238331 0.605323 0
556 1 0.240087 0.631282 0
557 1 0.259871 0.612819 0
528 1 0.28107 0.598142 0
558 1 0.279957 0.624834 0
559 1 0.303845 0.60607 0
561 1 0.328751 0.607887 0
560 1 0.302093 0.632529 0
532 1 0.345365 0.588741 0
562 1 0.352233 0.611433 0
563 1 0.369702 0.594478 0
565 1 0.37534 0.619298 0
536 1 0.39237 0.600781 0
566 1 0.398658 0.624368 0
567 1 0.4152 0.606826 0
568 1 0.438861 0.612099 0
597 1 0.422314 0.630381 0
538 1 0.454512 0.593572 0
599 1 0.445612 0.636523 0
570 1 0.476718 0.598721 0
600 1 0.461645 0.618485 0
1501 1 0.483809 0.622933 0
573 1 0.0380033 0.655678 0
572 1 0.0199268 0.671062 0
571 1 0.0169357 0.646625 0
603 1 0.0414522 0.679414 0
544 1 0.0558756 0.639129 0
575 1 0.0773805 0.647604 0
574 1 0.0601312 0.663844 0
605 1 0.0807846 0.672915 0
577 1 0.117294 0.644246 0
576 1 0.0989178 0.658628 0
578 1 0.119145 0.669923 0
579 1 0.137914 0.65512 0
550 1 0.156159 0.641162 0
580 1 0.160377 0.665745 0
609 1 0.141473 0.680311 0
552 1 0.198753 0.636699 0
581 1 0.178884 0.650684 0
611 1 0.180945 0.676647 0
582 1 0.199772 0.661055 0
583 1 0.219081 0.645872 0
584 1 0.220743 0.671302 0
585 1 0.240337 0.656482 0
615 1 0.241757 0.681463 0
587 1 0.260379 0.639697 0
586 1 0.261296 0.66657 0
589 1 0.281103 0.64956 0
588 1 0.282237 0.675835 0
590 1 0.301423 0.660807 0
591 1 0.322083 0.645343 0
621 1 0.324272 0.669903 0
593 1 0.344446 0.656898 0
564 1 0.361399 0.637551 0
594 1 0.36773 0.66153 0
595 1 0.384615 0.643226 0
625 1 0.39114 0.667807 0
596 1 0.407513 0.64887 0
627 1 0.414959 0.673798 0
598 1 0.429573 0.654688 0
628 1 0.451966 0.66055 0
657 1 0.436982 0.679704 0
629 1 0.469329 0.642569 0
630 1 0.474337 0.666428 0
1502 1 0.491967 0.64847 0
1533 1 0.497877 0.672297 0
602 1 0.0226321 0.707611 0
601 1 0.00644787 0.689733 0
631 1 0.000482523 0.714859 0
633 1 0.0436022 0.702387 0
604 1 0.0620896 0.688886 0
635 1 0.0625663 0.71456 0
634 1 0.040519 0.726186 0
606 1 0.081042 0.700421 0
636 1 0.0833315 0.725101 0
607 1 0.100422 0.685804 0
637 1 0.102768 0.710507 0
608 1 0.121863 0.695074 0
638 1 0.12388 0.720442 0
639 1 0.142369 0.705784 0
610 1 0.162668 0.690619 0
641 1 0.163666 0.716433 0
612 1 0.183291 0.701327 0
613 1 0.2018 0.685072 0
643 1 0.203666 0.71064 0
642 1 0.184658 0.726059 0
614 1 0.222662 0.697559 0
645 1 0.224723 0.721497 0
616 1 0.244257 0.706023 0
617 1 0.262768 0.690774 0
647 1 0.264477 0.716789 0
618 1 0.28439 0.700428 0
649 1 0.286133 0.725683 0
619 1 0.302592 0.685587 0
620 1 0.305461 0.711124 0
622 1 0.322508 0.694393 0
651 1 0.325734 0.720008 0
592 1 0.352521 0.680339 0
653 1 0.342375 0.702862 0
624 1 0.363795 0.708056 0
623 1 0.37571 0.687019 0
655 1 0.385183 0.710742 0
626 1 0.399073 0.691499 0
686 1 0.407529 0.718167 0
656 1 0.421919 0.698474 0
658 1 0.444255 0.703185 0
687 1 0.430079 0.72218 0
659 1 0.459777 0.685598 0
660 1 0.466759 0.709867 0
1531 1 0.481856 0.690789 0
1561 1 0.489713 0.715074 0
632 1 0.0179033 0.731085 0
664 1 0.0345464 0.749021 0
663 1 0.0128482 0.756505 0
695 1 0.051591 0.764494 0
665 1 0.0606733 0.740825 0
666 1 0.0834209 0.749934 0
667 1 0.104244 0.735875 0
668 1 0.107126 0.760081 0
669 1 0.125973 0.745192 0
640 1 0.144906 0.731373 0
670 1 0.146448 0.756104 0
671 1 0.16602 0.741694 0
699 1 0.126425 0.770695 0
672 1 0.167599 0.766587 0
673 1 0.186675 0.751137 0
644 1 0.205734 0.735835 0
674 1 0.207182 0.760559 0
646 1 0.24546 0.731749 0
675 1 0.226307 0.746563 0
705 1 0.227825 0.770955 0
677 1 0.247195 0.756752 0
648 1 0.267594 0.741589 0
678 1 0.268704 0.765902 0
679 1 0.289596 0.750434 0
650 1 0.308201 0.736344 0
681 1 0.312191 0.762478 0
652 1 0.329978 0.744467 0
654 1 0.34771 0.727151 0
683 1 0.353743 0.750272 0
685 1 0.36963 0.731006 0
682 1 0.336902 0.76831 0
715 1 0.391322 0.736161 0
684 1 0.376501 0.755145 0
714 1 0.398763 0.76036 0
717 1 0.413429 0.742215 0
689 1 0.451982 0.729256 0
688 1 0.435736 0.747828 0
716 1 0.421018 0.766013 0
718 1 0.442836 0.772538 0
690 1 0.473877 0.733419 0
719 1 0.458843 0.752331 0
1591 1 0.481801 0.758337 0
1562 1 0.496758 0.739219 0
662 1 0.0292849 0.77282 0
693 1 0.0243948 0.797385 0
691 1 0.00657816 0.780843 0
721 1 0.00234442 0.805292 0
723 1 0.0408755 0.81427 0
694 1 0.0468433 0.789142 0
696 1 0.0683819 0.781898 0
725 1 0.064561 0.806352 0
697 1 0.0886499 0.773196 0
727 1 0.0869855 0.797937 0
728 1 0.107927 0.813541 0
698 1 0.107909 0.786552 0
700 1 0.128422 0.798175 0
701 1 0.147702 0.782268 0
731 1 0.150675 0.808164 0
702 1 0.169751 0.791644 0
703 1 0.188356 0.776447 0
733 1 0.190299 0.802353 0
732 1 0.171431 0.818304 0
704 1 0.209254 0.786637 0
735 1 0.211988 0.811219 0
706 1 0.230004 0.796645 0
676 1 0.248475 0.780449 0
737 1 0.250962 0.805989 0
707 1 0.269025 0.791095 0
738 1 0.271505 0.815622 0
708 1 0.289837 0.798836 0
709 1 0.29225 0.774852 0
710 1 0.310548 0.806309 0
680 1 0.323244 0.787315 0
741 1 0.332074 0.812001 0
713 1 0.360364 0.774853 0
711 1 0.34608 0.792532 0
712 1 0.369126 0.798815 0
742 1 0.353514 0.817987 0
743 1 0.383576 0.779505 0
745 1 0.391432 0.804515 0
746 1 0.40522 0.784837 0
775 1 0.413627 0.809676 0
747 1 0.427713 0.791402 0
749 1 0.450532 0.796643 0
748 1 0.436631 0.815617 0
1622 1 0.49693 0.806773 0
720 1 0.465211 0.777528 0
1621 1 0.473991 0.802468 0
1592 1 0.488065 0.782242 0
692 1 0.019476 0.821655 0
751 1 0.0355641 0.838599 0
1680 1 0.0132453 0.846123 0
753 1 0.0542293 0.85509 0
722 1 0.0583569 0.830496 0
724 1 0.076023 0.846444 0
726 1 0.0819402 0.822479 0
757 1 0.0978861 0.840198 0
756 1 0.113656 0.858011 0
729 1 0.130591 0.82268 0
759 1 0.134572 0.849226 0
730 1 0.152285 0.833012 0
760 1 0.152044 0.864686 0
761 1 0.173908 0.843431 0
763 1 0.19382 0.826818 0
762 1 0.195803 0.850794 0
734 1 0.214706 0.837418 0
736 1 0.232223 0.821431 0
765 1 0.236578 0.847963 0
764 1 0.214392 0.864327 0
767 1 0.254573 0.832445 0
766 1 0.262099 0.855466 0
768 1 0.277693 0.839377 0
739 1 0.294049 0.823115 0
769 1 0.300364 0.84828 0
740 1 0.316003 0.830485 0
770 1 0.322666 0.855705 0
771 1 0.337613 0.836371 0
773 1 0.360767 0.842337 0
801 1 0.344974 0.861035 0
744 1 0.375671 0.823537 0
803 1 0.383399 0.848008 0
774 1 0.398215 0.828887 0
776 1 0.40597 0.852762 0
777 1 0.420905 0.833956 0
779 1 0.442839 0.839119 0
778 1 0.428092 0.857669 0
809 1 0.451101 0.864272 0
750 1 0.458671 0.821006 0
1651 1 0.480653 0.826232 0
780 1 0.465129 0.845397 0
1652 1 0.488393 0.849927 0
752 1 0.0309154 0.862586 0
781 1 0.00724284 0.870607 0
782 1 0.0250731 0.886058 0
811 1 0.00283761 0.894922 0
813 1 0.0424138 0.903575 0
783 1 0.0478245 0.879367 0
784 1 0.0644022 0.896409 0
754 1 0.0700968 0.871121 0
755 1 0.0917051 0.864474 0
785 1 0.0860022 0.888617 0
787 1 0.107822 0.881856 0
786 1 0.102374 0.90609 0
788 1 0.125078 0.898289 0
758 1 0.12967 0.874323 0
789 1 0.147122 0.889712 0
790 1 0.163586 0.907007 0
791 1 0.168885 0.882304 0
823 1 0.185391 0.899777 0
792 1 0.190882 0.874428 0
793 1 0.20722 0.890844 0
795 1 0.228624 0.885839 0
825 1 0.248734 0.901174 0
796 1 0.247341 0.872763 0
827 1 0.267467 0.883406 0
797 1 0.283624 0.865658 0
798 1 0.289875 0.890578 0
799 1 0.305911 0.872808 0
829 1 0.311959 0.897939 0
800 1 0.328389 0.880076 0
831 1 0.335462 0.90353 0
802 1 0.351513 0.885466 0
772 1 0.36798 0.866989 0
833 1 0.359559 0.90828 0
804 1 0.37531 0.890129 0
805 1 0.390275 0.87083 0
806 1 0.397931 0.895954 0
807 1 0.413098 0.877097 0
808 1 0.43585 0.881904 0
837 1 0.419991 0.900393 0
839 1 0.442014 0.906867 0
810 1 0.458947 0.88837 0
1681 1 0.473489 0.869183 0
1711 1 0.481085 0.893695 0
1682 1 0.495944 0.873671 0
812 1 0.0196919 0.911412 0
843 1 0.0373528 0.928477 0
841 1 0.0143827 0.936025 0
815 1 0.0808949 0.913318 0
844 1 0.0536933 0.94561 0
814 1 0.058793 0.920659 0
845 1 0.0754982 0.938628 0
816 1 0.0979732 0.930079 0
817 1 0.119726 0.923081 0
847 1 0.114413 0.947471 0
818 1 0.136198 0.939832 0
819 1 0.142048 0.9144 0
820 1 0.158658 0.931912 0
851 1 0.174997 0.948548 0
821 1 0.179944 0.924287 0
824 1 0.202399 0.916208 0
822 1 0.196693 0.941042 0
794 1 0.225093 0.909626 0
853 1 0.219004 0.933448 0
855 1 0.242296 0.926506 0
854 1 0.236654 0.949633 0
826 1 0.272565 0.907736 0
856 1 0.259477 0.94309 0
857 1 0.280233 0.932779 0
828 1 0.295689 0.915914 0
859 1 0.303172 0.940334 0
830 1 0.318742 0.921595 0
860 1 0.326864 0.94464 0
832 1 0.342179 0.926112 0
863 1 0.364605 0.932268 0
861 1 0.348923 0.95047 0
834 1 0.382071 0.913997 0
865 1 0.388357 0.938378 0
835 1 0.404811 0.919693 0
836 1 0.410785 0.942279 0
838 1 0.426995 0.925744 0
869 1 0.450036 0.930867 0
867 1 0.433749 0.950323 0
1712 1 0.488262 0.91702 0
1741 1 0.472274 0.937166 0
840 1 0.465132 0.912356 0
1742 1 0.494874 0.94106 0
842 1 0.0307511 0.95331 0
871 1 0.0259131 0.977335 0
1770 1 0.00895389 0.961125 0
1800 1 0.00443273 0.986667 0
872 1 0.0421153 0.994805 0
873 1 0.04817 0.970643 0
874 1 0.064639 0.987127 0
875 1 0.0699073 0.962923 0
846 1 0.0921272 0.955237 0
876 1 0.0865973 0.979613 0
877 1 0.109491 0.97274 0
7 1 0.103644 0.996364 0
878 1 0.125575 0.989689 0
849 1 0.152872 0.957409 0
848 1 0.13098 0.964382 0
879 1 0.147331 0.981679 0
881 1 0.164752 0.999448 0
850 1 0.169917 0.973716 0
11 1 0.186702 0.990175 0
852 1 0.19135 0.965618 0
882 1 0.207607 0.982229 0
883 1 0.213517 0.958197 0
884 1 0.230823 0.974216 0
886 1 0.247707 0.990106 0
13 1 0.225443 0.998025 0
885 1 0.253386 0.966662 0
17 1 0.269659 0.983695 0
887 1 0.277067 0.958937 0
888 1 0.293902 0.978875 0
858 1 0.311685 0.963679 0
889 1 0.316467 0.988451 0
891 1 0.334341 0.971526 0
890 1 0.342341 0.994791 0
862 1 0.357513 0.975697 0
864 1 0.372522 0.955733 0
1471 1 0.499673 0.604199 0
893 1 0.380427 0.981574 0
895 1 0.396117 0.962453 0
896 1 0.401701 0.987533 0
866 1 0.417713 0.968507 0
870 1 0.456705 0.955154 0
897 1 0.425518 0.992539 0
868 1 0.44057 0.974744 0
1772 1 0.485128 0.985229 0
899 1 0.4627 0.979458 0
1771 1 0.479316 0.960809 0
898 1 0.447534 0.998422 0
902 1 0.514037 0.0147372 0
933 1 0.521902 0.0407178 0
904 1 0.536638 0.0218536 0
906 1 0.551857 0.00239387 0
935 1 0.559413 0.0292729 0
908 1 0.574041 0.0092057 0
937 1 0.581526 0.0332311 0
939 1 0.596771 0.0148259 0
938 1 0.603626 0.0384315 0
940 1 0.618772 0.0207587 0
942 1 0.725351 0.0393068 0
943 1 0.74855 0.03094 0
912 1 0.729956 0.0149039 0
913 1 0.752931 0.00600513 0
914 1 0.770088 0.0226132 0
947 1 0.787135 0.0388414 0
916 1 0.791723 0.014744 0
918 1 0.809819 0.0303203 0
919 1 0.831842 0.0231287 0
917 1 0.813984 0.00679797 0
920 1 0.849852 0.0396898 0
1790 1 0.854185 0.0146227 0
951 1 0.871085 0.0318506 0
1052 1 0.500119 0.194442 0
921 1 0.876832 0.00737303 0
922 1 0.893344 0.0245081 0
953 1 0.910753 0.0407671 0
924 1 0.914986 0.0159228 0
1348 1 0.958442 0.469773 0
955 1 0.932607 0.0340352 0
926 1 0.954819 0.026382 0
925 1 0.93755 0.00921585 0
957 1 0.971231 0.0429912 0
928 1 0.976846 0.0182532 0
959 1 0.993929 0.0352079 0
927 1 0.959033 0.00243582 0
929 1 0.998883 0.0099988 0
932 1 0.506093 0.0594434 0
963 1 0.52879 0.0651182 0
962 1 0.513761 0.084787 0
964 1 0.535977 0.0909929 0
934 1 0.544098 0.0468213 0
965 1 0.551146 0.0715036 0
936 1 0.56665 0.0534036 0
966 1 0.573472 0.0773031 0
967 1 0.588901 0.0577752 0
968 1 0.59637 0.0826093 0
969 1 0.611889 0.0628863 0
971 1 0.720498 0.0636385 0
944 1 0.743753 0.0549449 0
973 1 0.737769 0.0803035 0
970 1 0.716384 0.088298 0
945 1 0.765384 0.047899 0
975 1 0.759921 0.0736916 0
974 1 0.777379 0.0895428 0
946 1 0.781444 0.0646637 0
949 1 0.826835 0.0482007 0
976 1 0.799455 0.0812783 0
948 1 0.804501 0.0548451 0
977 1 0.82261 0.0727473 0
979 1 0.844402 0.0642268 0
950 1 0.86686 0.056948 0
980 1 0.861728 0.0819958 0
978 1 0.838943 0.0900358 0
952 1 0.888609 0.0492967 0
981 1 0.882846 0.07533 0
983 1 0.904238 0.066451 0
984 1 0.920652 0.0836264 0
954 1 0.927011 0.0591752 0
956 1 0.949538 0.0516072 0
985 1 0.944297 0.0758264 0
987 1 0.966321 0.0683857 0
988 1 0.982937 0.0854076 0
958 1 0.988518 0.0599448 0
992 1 0.503876 0.127284 0
993 1 0.520091 0.109896 0
1023 1 0.526505 0.133783 0
994 1 0.542295 0.115829 0
995 1 0.557698 0.0949922 0
996 1 0.565341 0.120476 0
997 1 0.580695 0.102376 0
1027 1 0.587153 0.127693 0
998 1 0.603222 0.109143 0
1029 1 0.609716 0.134578 0
1000 1 0.625276 0.117102 0
1030 1 0.647288 0.121899 0
999 1 0.664935 0.10389 0
1001 1 0.688225 0.108347 0
1032 1 0.670513 0.128602 0
1031 1 0.693924 0.133142 0
972 1 0.73272 0.104723 0
1002 1 0.710489 0.114347 0
1033 1 0.748948 0.122976 0
1003 1 0.755139 0.0979828 0
1004 1 0.772452 0.114997 0
1035 1 0.789868 0.131055 0
1005 1 0.794898 0.106082 0
1007 1 0.816864 0.0972237 0
1006 1 0.812013 0.121802 0
1008 1 0.834071 0.114515 0
1039 1 0.851154 0.131164 0
1009 1 0.856918 0.106576 0
1010 1 0.87306 0.123931 0
982 1 0.899852 0.0915385 0
1011 1 0.878613 0.0989303 0
1012 1 0.895224 0.116269 0
1043 1 0.912846 0.133322 0
1013 1 0.917329 0.108127 0
1014 1 0.934235 0.125335 0
1015 1 0.939566 0.10063 0
1017 1 0.956872 0.118537 0
986 1 0.961683 0.0930332 0
1047 1 0.97379 0.135648 0
1018 1 0.978693 0.111055 0
1049 1 0.994884 0.127168 0
1022 1 0.51006 0.15139 0
1053 1 0.516367 0.177107 0
1024 1 0.532836 0.157488 0
1025 1 0.548997 0.140164 0
1055 1 0.555146 0.164282 0
1026 1 0.571011 0.14486 0
1057 1 0.577452 0.170685 0
1028 1 0.593312 0.152928 0
1087 1 0.599303 0.17741 0
1058 1 0.616303 0.160436 0
1059 1 0.632113 0.141809 0
1060 1 0.638028 0.166193 0
1061 1 0.653493 0.146784 0
1091 1 0.661254 0.169595 0
1062 1 0.676972 0.152385 0
1093 1 0.683005 0.176441 0
1064 1 0.699135 0.157951 0
1063 1 0.717177 0.138341 0
1095 1 0.722594 0.163035 0
1034 1 0.740012 0.145929 0
1066 1 0.743629 0.169479 0
1065 1 0.763374 0.141364 0
1097 1 0.764816 0.177252 0
1037 1 0.829348 0.138539 0
1036 1 0.807662 0.14673 0
1067 1 0.82379 0.165501 0
1038 1 0.84579 0.15714 0
1040 1 0.867651 0.148775 0
1069 1 0.863629 0.17321 0
1068 1 0.841575 0.181936 0
1041 1 0.890365 0.141202 0
1071 1 0.885429 0.165422 0
1042 1 0.908293 0.157928 0
1072 1 0.90261 0.181691 0
1073 1 0.925183 0.175024 0
1044 1 0.930051 0.15006 0
1016 1 0.951752 0.141939 0
1045 1 0.946873 0.166791 0
1046 1 0.969688 0.159607 0
1077 1 0.986263 0.177245 0
1048 1 0.990744 0.151765 0
1054 1 0.539077 0.181482 0
1083 1 0.522854 0.199839 0
1082 1 0.507022 0.219308 0
1084 1 0.529866 0.224843 0
1085 1 0.546134 0.206345 0
1056 1 0.562036 0.188672 0
1115 1 0.568864 0.214055 0
1086 1 0.584698 0.195963 0
1089 1 0.622552 0.184817 0
1117 1 0.589686 0.22163 0
1088 1 0.605887 0.202526 0
1118 1 0.612536 0.226176 0