ITEM: TIMESTEP
488000
ITEM: NUMBER OF ATOMS
1800
ITEM: BOX BOUNDS pp pp pp
-1.8469813739756095e+01 1.8346981373975802e+02
1.1826529217466231e+00 1.6381734707825530e+02
0.0000000000000000e+00 5.5000000000000000e+00
ITEM: ATOMS id type xs ys zs
928 1 0.0211708 0.0139458 0
957 1 0.0156513 0.0389732 0
926 1 0.0013821 0.022443 0
959 1 0.0355527 0.0324457 0
929 1 0.0400859 0.0078929 0
930 1 0.0545483 0.0247713 0
31 1 0.0691682 0.0425973 0
2 1 0.0738536 0.0179574 0
33 1 0.0880249 0.0342442 0
3 1 0.0933529 0.0102207 0
4 1 0.107084 0.0276199 0
6 1 0.126586 0.0190513 0
37 1 0.140801 0.0356519 0
35 1 0.121914 0.0449376 0
5 1 0.112486 0.00292392 0
8 1 0.146658 0.0120547 0
39 1 0.160216 0.0300211 0
880 1 0.165476 0.00486452 0
69 1 0.173936 0.0473931 0
9 1 0.178887 0.0226428 0
40 1 0.192954 0.0396917 0
10 1 0.19789 0.016021 0
41 1 0.212473 0.0319996 0
12 1 0.217739 0.00812724 0
14 1 0.232405 0.0269715 0
45 1 0.246303 0.0439552 0
15 1 0.250951 0.0205144 0
46 1 0.27002 0.016716 0
77 1 0.273116 0.0416842 0
47 1 0.288017 0.0249634 0
19 1 0.301647 0.00595638 0
49 1 0.30769 0.0303268 0
20 1 0.320963 0.0123008 0
51 1 0.326481 0.0380324 0
21 1 0.340441 0.0194757 0
22 1 0.346489 0.0434981 0
23 1 0.360214 0.0252688 0
894 1 0.373412 0.00745357 0
24 1 0.379969 0.0330863 0
25 1 0.392953 0.0132732 0
26 1 0.39937 0.0374898 0
27 1 0.413207 0.0195815 0
898 1 0.426049 0.000343528 0
28 1 0.419066 0.0443315 0
29 1 0.432245 0.0255093 0
900 1 0.445699 0.00675512 0
30 1 0.451196 0.0320784 0
902 1 0.484823 0.0205988 0
901 1 0.465343 0.0140519 0
931 1 0.470496 0.0382838 0
933 1 0.489974 0.0465515 0
988 1 0.0257364 0.0812233 0
958 1 0.0313857 0.0561929 0
987 1 0.0115586 0.0638766 0
986 1 0.0063357 0.088043 0
960 1 0.0505232 0.0498795 0
989 1 0.045165 0.0738214 0
61 1 0.0642659 0.0665786 0
990 1 0.0597498 0.0904383 0
62 1 0.0788303 0.0826378 0
32 1 0.0838988 0.0587998 0
63 1 0.0975706 0.0760318 0
34 1 0.102893 0.0520225 0
65 1 0.117618 0.0696857 0
66 1 0.131736 0.0864648 0
36 1 0.136209 0.0612561 0
67 1 0.150673 0.0782023 0
38 1 0.154694 0.0538073 0
68 1 0.16987 0.0711176 0
71 1 0.189546 0.0635709 0
72 1 0.203799 0.0808242 0
42 1 0.208424 0.0561156 0
70 1 0.184547 0.087378 0
43 1 0.227329 0.0507469 0
73 1 0.222893 0.074247 0
44 1 0.241776 0.0672826 0
105 1 0.237573 0.0907266 0
74 1 0.264491 0.0859094 0
75 1 0.260606 0.0612347 0
76 1 0.279803 0.0679153 0
78 1 0.284458 0.0921123 0
48 1 0.293066 0.0489452 0
79 1 0.298771 0.0747908 0
50 1 0.311787 0.0565424 0
81 1 0.318208 0.0807195 0
52 1 0.332411 0.0612365 0
82 1 0.337 0.0869952 0
83 1 0.3519 0.068243 0
53 1 0.366211 0.0508706 0
54 1 0.371303 0.0759061 0
55 1 0.386575 0.0572015 0
56 1 0.39016 0.0813994 0
57 1 0.40547 0.0632934 0
87 1 0.410288 0.0870855 0
58 1 0.424487 0.0691487 0
59 1 0.438075 0.0507411 0
89 1 0.442964 0.0768048 0
60 1 0.456986 0.057674 0
961 1 0.462594 0.0830193 0
963 1 0.496813 0.0696201 0
932 1 0.476054 0.0646673 0
962 1 0.482992 0.0876979 0
1047 1 0.0166302 0.130098 0
1018 1 0.0208371 0.10621 0
1017 1 0.00107671 0.113797 0
1049 1 0.0357722 0.123062 0
1019 1 0.0410732 0.0981814 0
1020 1 0.0550181 0.114932 0
121 1 0.069998 0.132494 0
91 1 0.0743803 0.107437 0
92 1 0.088768 0.125496 0
93 1 0.0938392 0.100686 0
94 1 0.107586 0.11896 0
64 1 0.111816 0.0931793 0
95 1 0.127367 0.110175 0
96 1 0.142071 0.126934 0
125 1 0.122718 0.13479 0
97 1 0.146829 0.10292 0
98 1 0.161087 0.12013 0
99 1 0.166191 0.0954041 0
129 1 0.175769 0.137296 0
100 1 0.179814 0.112684 0
130 1 0.194494 0.128957 0
101 1 0.198951 0.10493 0
102 1 0.213279 0.122372 0
103 1 0.217949 0.0976653 0
104 1 0.234924 0.121826 0
106 1 0.252126 0.105784 0
137 1 0.255043 0.128694 0
107 1 0.271069 0.110957 0
108 1 0.274752 0.134961 0
109 1 0.2903 0.11714 0
80 1 0.304559 0.0985826 0
110 1 0.309136 0.123276 0
111 1 0.323033 0.105389 0
141 1 0.328753 0.129401 0
113 1 0.342459 0.110882 0
143 1 0.347849 0.136095 0
84 1 0.356947 0.0919887 0
112 1 0.361873 0.116818 0
85 1 0.375696 0.099737 0
115 1 0.381051 0.123556 0
86 1 0.39562 0.105398 0
116 1 0.400893 0.128893 0
117 1 0.416398 0.112008 0
88 1 0.429688 0.0941843 0
119 1 0.435655 0.118645 0
90 1 0.449309 0.101812 0
120 1 0.455418 0.124893 0
991 1 0.469412 0.107075 0
992 1 0.474309 0.131369 0
993 1 0.488739 0.113176 0
1075 1 0.00693045 0.179536 0
1048 1 0.0317179 0.14733 0
1077 1 0.0270162 0.172028 0
1046 1 0.0118805 0.155571 0
1079 1 0.0465999 0.164458 0
1050 1 0.0508147 0.139638 0
151 1 0.065452 0.157308 0
152 1 0.0795341 0.175323 0
122 1 0.0844855 0.150073 0
153 1 0.0984161 0.167362 0
123 1 0.103448 0.143241 0
124 1 0.119077 0.161359 0
126 1 0.137976 0.150867 0
155 1 0.136256 0.175684 0
157 1 0.15387 0.1663 0
127 1 0.15665 0.143334 0
128 1 0.174505 0.168153 0
159 1 0.190173 0.15248 0
132 1 0.193975 0.176062 0
131 1 0.20917 0.158238 0
163 1 0.213242 0.182582 0
133 1 0.223481 0.141726 0
134 1 0.228197 0.165555 0
135 1 0.242167 0.146312 0
165 1 0.247288 0.171618 0
136 1 0.260871 0.153103 0
167 1 0.267006 0.178355 0
138 1 0.27998 0.159804 0
139 1 0.294327 0.140707 0
169 1 0.299766 0.165844 0
140 1 0.315043 0.148065 0
171 1 0.319513 0.172222 0
142 1 0.334236 0.153389 0
172 1 0.338734 0.177275 0
173 1 0.352522 0.160131 0
114 1 0.367124 0.141067 0
144 1 0.372385 0.165993 0
145 1 0.387038 0.148354 0
146 1 0.392226 0.172915 0
118 1 0.421377 0.135492 0
147 1 0.406937 0.154138 0
177 1 0.411609 0.178141 0
148 1 0.42625 0.159352 0
149 1 0.440328 0.142344 0
150 1 0.44628 0.166185 0
1021 1 0.460218 0.148617 0
1051 1 0.465809 0.17399 0
1023 1 0.493924 0.13737 0
1022 1 0.479551 0.156682 0
1024 1 0.498976 0.162443 0
1053 1 0.484487 0.181099 0
1076 1 0.0217015 0.196709 0
1106 1 0.0165604 0.221735 0
1105 1 0.00266298 0.20358 0
1080 1 0.0597117 0.182243 0
1107 1 0.0369288 0.213485 0
1078 1 0.0411396 0.189877 0
1109 1 0.0580493 0.216607 0
181 1 0.0734766 0.199739 0
182 1 0.0780984 0.224586 0
183 1 0.0919926 0.207162 0
154 1 0.106462 0.189588 0
185 1 0.11166 0.213344 0
156 1 0.125864 0.195983 0
186 1 0.130426 0.220924 0
158 1 0.145123 0.202211 0
160 1 0.160802 0.187393 0
189 1 0.165193 0.210813 0
161 1 0.179642 0.192394 0
191 1 0.184953 0.216492 0
162 1 0.199025 0.199457 0
192 1 0.203849 0.223879 0
193 1 0.218115 0.207311 0
164 1 0.232778 0.189672 0
195 1 0.237712 0.213105 0
166 1 0.252237 0.195406 0
196 1 0.256729 0.220159 0
197 1 0.271129 0.202444 0
198 1 0.277088 0.226488 0
168 1 0.28643 0.18434 0
199 1 0.291322 0.207838 0
170 1 0.305695 0.189923 0
200 1 0.310909 0.214583 0
201 1 0.325218 0.196718 0
202 1 0.330178 0.221001 0
203 1 0.344348 0.20118 0
233 1 0.34944 0.226603 0
174 1 0.358742 0.184754 0
204 1 0.363796 0.208768 0
175 1 0.378055 0.190469 0
205 1 0.382423 0.215286 0
176 1 0.397335 0.196734 0
207 1 0.402238 0.22052 0
178 1 0.416736 0.202974 0
179 1 0.431545 0.183341 0
209 1 0.43665 0.207762 0
180 1 0.451033 0.190879 0
1081 1 0.45673 0.215717 0
1052 1 0.469871 0.197704 0
1082 1 0.475207 0.222422 0
1083 1 0.489638 0.20451 0
1108 1 0.0309284 0.252891 0
1136 1 0.0113621 0.246157 0
1137 1 0.0150905 0.270649 0
1110 1 0.0450028 0.235557 0
1140 1 0.0498494 0.260403 0
211 1 0.0642864 0.241663 0
212 1 0.0687791 0.267242 0
213 1 0.0836927 0.248532 0
184 1 0.0977894 0.231065 0
214 1 0.102504 0.255013 0
215 1 0.116649 0.238426 0
216 1 0.121585 0.262372 0
217 1 0.135803 0.245103 0
218 1 0.141643 0.269664 0
187 1 0.150393 0.228125 0
188 1 0.155183 0.2521 0
190 1 0.170185 0.234761 0
220 1 0.175635 0.25931 0
221 1 0.189408 0.241345 0
222 1 0.194972 0.266032 0
223 1 0.208177 0.248055 0
194 1 0.22313 0.230718 0
224 1 0.227585 0.254648 0
225 1 0.243225 0.237661 0
226 1 0.247673 0.261062 0
253 1 0.213691 0.271926 0
227 1 0.2626 0.243355 0
257 1 0.267727 0.268309 0
228 1 0.282234 0.250726 0
229 1 0.296329 0.231937 0
230 1 0.301797 0.256747 0
231 1 0.315898 0.23882 0
261 1 0.320765 0.263821 0
232 1 0.335039 0.245548 0
263 1 0.340353 0.270267 0
234 1 0.354689 0.251886 0
235 1 0.368275 0.233613 0
265 1 0.374022 0.257361 0
206 1 0.388265 0.239493 0
208 1 0.421418 0.226591 0
236 1 0.392655 0.263399 0
237 1 0.407841 0.245315 0
238 1 0.412387 0.270467 0
239 1 0.426604 0.251443 0
210 1 0.44184 0.233 0
240 1 0.445769 0.258732 0
1111 1 0.461091 0.241081 0
1112 1 0.465052 0.265003 0
1113 1 0.480386 0.247005 0
1084 1 0.49481 0.229077 0
1142 1 0.484732 0.272137 0
1138 1 0.0219137 0.295327 0
1197 1 0.00672577 0.313954 0
1167 1 0.00251217 0.290135 0
1139 1 0.035606 0.277147 0
1169 1 0.0403582 0.303221 0
241 1 0.0544152 0.284801 0
271 1 0.0601132 0.308232 0
242 1 0.0744365 0.290436 0
243 1 0.0885146 0.273154 0
244 1 0.0940096 0.298559 0
245 1 0.10789 0.280719 0
246 1 0.112359 0.30491 0
247 1 0.127025 0.287942 0
248 1 0.13287 0.311676 0
249 1 0.147557 0.294135 0
219 1 0.161414 0.276025 0
250 1 0.166263 0.301006 0
251 1 0.180688 0.284165 0
281 1 0.185464 0.308765 0
252 1 0.200046 0.289915 0
283 1 0.205142 0.314757 0
254 1 0.219345 0.296301 0
255 1 0.233666 0.27922 0
285 1 0.238604 0.303196 0
256 1 0.253053 0.285319 0
287 1 0.25816 0.310315 0
258 1 0.272307 0.292619 0
288 1 0.277555 0.316457 0
259 1 0.287393 0.274693 0
289 1 0.291777 0.298823 0
260 1 0.306976 0.28203 0
291 1 0.312182 0.306076 0
262 1 0.326461 0.288689 0
292 1 0.331459 0.313271 0
293 1 0.345309 0.295016 0
264 1 0.360038 0.277002 0
295 1 0.365038 0.301392 0
266 1 0.37902 0.282946 0
297 1 0.384275 0.307312 0
267 1 0.399072 0.288252 0
298 1 0.403764 0.312634 0
268 1 0.417878 0.294664 0
269 1 0.432309 0.276006 0
270 1 0.437044 0.301239 0
1141 1 0.451246 0.283859 0
300 1 0.456219 0.308092 0
1171 1 0.470853 0.28944 0
1172 1 0.475849 0.313703 0
1173 1 0.49075 0.296745 0
1168 1 0.0262675 0.319547 0
1199 1 0.03095 0.34344 0
1198 1 0.0117312 0.337756 0
1228 1 0.0175196 0.362326 0
1170 1 0.0456254 0.326255 0
1229 1 0.0507268 0.350928 0
1200 1 0.0654034 0.332549 0
301 1 0.0708046 0.357777 0
273 1 0.0787913 0.314506 0
272 1 0.0847056 0.339653 0
275 1 0.0982047 0.322334 0
274 1 0.103492 0.346844 0
276 1 0.118009 0.328606 0
305 1 0.123403 0.353659 0
277 1 0.137826 0.336054 0
307 1 0.142594 0.359744 0
279 1 0.152376 0.318349 0
278 1 0.157161 0.342948 0
280 1 0.171283 0.326276 0
311 1 0.176178 0.350384 0
282 1 0.190657 0.332716 0
312 1 0.196778 0.356629 0
313 1 0.209604 0.3381 0
284 1 0.224221 0.320351 0
315 1 0.229098 0.345448 0
286 1 0.243302 0.327179 0
316 1 0.248456 0.352464 0
314 1 0.215092 0.363692 0
317 1 0.263457 0.334342 0
318 1 0.268435 0.358504 0
319 1 0.282658 0.339837 0
290 1 0.297618 0.323259 0
320 1 0.301984 0.347021 0
321 1 0.316391 0.330096 0
294 1 0.350511 0.319183 0
322 1 0.321329 0.354662 0
323 1 0.335963 0.337156 0
324 1 0.341295 0.361476 0
325 1 0.355238 0.343335 0
296 1 0.369688 0.324162 0
326 1 0.375614 0.348631 0
327 1 0.390025 0.330751 0
299 1 0.42333 0.31935 0
328 1 0.395212 0.355092 0
329 1 0.409486 0.338034 0
358 1 0.41414 0.361747 0
359 1 0.428531 0.344324 0
330 1 0.44192 0.326258 0
360 1 0.44781 0.350297 0
1201 1 0.461461 0.331817 0
1202 1 0.480454 0.338198 0
1231 1 0.466956 0.356118 0
1203 1 0.494463 0.321108 0
1233 1 0.487648 0.361988 0
1287 1 0.0096316 0.406157 0
1258 1 0.0230751 0.38702 0
1257 1 0.00396207 0.380796 0
1259 1 0.0365671 0.367721 0
1260 1 0.0417285 0.394249 0
1230 1 0.0563054 0.375547 0
331 1 0.0612108 0.399632 0
303 1 0.0905066 0.364591 0
302 1 0.0756548 0.38266 0
333 1 0.0950151 0.38877 0
332 1 0.0806467 0.406475 0
304 1 0.109835 0.371624 0
335 1 0.113823 0.395393 0
306 1 0.129768 0.378116 0
337 1 0.133827 0.403663 0
308 1 0.147977 0.385356 0
309 1 0.162596 0.368087 0
339 1 0.167808 0.392058 0
310 1 0.182023 0.374164 0
341 1 0.186086 0.398689 0
343 1 0.201277 0.381484 0
342 1 0.206205 0.40576 0
344 1 0.22056 0.387642 0
345 1 0.234382 0.369856 0
346 1 0.240169 0.39486 0
347 1 0.253839 0.376247 0
377 1 0.258927 0.400243 0
348 1 0.273478 0.383264 0
378 1 0.277809 0.407457 0
349 1 0.287585 0.365305 0
350 1 0.292955 0.389919 0
351 1 0.306945 0.37213 0
381 1 0.312267 0.397182 0
353 1 0.327005 0.379021 0
352 1 0.33173 0.403293 0
354 1 0.346693 0.385472 0
385 1 0.351135 0.4094 0
355 1 0.360764 0.367112 0
356 1 0.36597 0.39171 0
357 1 0.380134 0.373202 0
386 1 0.38555 0.397303 0
387 1 0.39968 0.379017 0
388 1 0.404515 0.404044 0
389 1 0.419243 0.386368 0
1232 1 0.433454 0.369339 0
1261 1 0.439668 0.392805 0
1262 1 0.453347 0.37536 0
1293 1 0.459521 0.399143 0
1263 1 0.473226 0.38108 0
1294 1 0.478788 0.405706 0
1264 1 0.492781 0.38753 0
1289 1 0.028542 0.413254 0
1319 1 0.0335615 0.437222 0
1288 1 0.0139059 0.430494 0
1318 1 0.0187192 0.455246 0
1290 1 0.0475265 0.417811 0
391 1 0.0532169 0.443525 0
361 1 0.0670911 0.424419 0
362 1 0.0722816 0.448943 0
363 1 0.0870197 0.430577 0
334 1 0.100079 0.41308 0
365 1 0.105579 0.438272 0
336 1 0.119271 0.420809 0
366 1 0.124768 0.445638 0
367 1 0.139201 0.428143 0
368 1 0.144146 0.453055 0
338 1 0.153359 0.409914 0
369 1 0.158821 0.434543 0
340 1 0.172461 0.416131 0
370 1 0.178106 0.442111 0
371 1 0.191821 0.422794 0
401 1 0.19699 0.447984 0
372 1 0.210964 0.430948 0
373 1 0.225539 0.412013 0
374 1 0.230319 0.436503 0
375 1 0.245268 0.418139 0
403 1 0.216229 0.454495 0
405 1 0.249919 0.442918 0
376 1 0.263841 0.425803 0
407 1 0.269127 0.450547 0
409 1 0.284162 0.43296 0
379 1 0.297722 0.41435 0
380 1 0.303192 0.439458 0
382 1 0.317848 0.421457 0
413 1 0.322865 0.445888 0
383 1 0.337481 0.428128 0
412 1 0.343034 0.451503 0
414 1 0.357407 0.432804 0
384 1 0.370847 0.414894 0
415 1 0.377206 0.43974 0
417 1 0.390455 0.420783 0
419 1 0.424578 0.410211 0
416 1 0.39606 0.445781 0
418 1 0.409865 0.428317 0
447 1 0.415605 0.452493 0
390 1 0.429873 0.43488 0
1291 1 0.444757 0.41668 0
1321 1 0.449328 0.441778 0
1292 1 0.464314 0.423897 0
1323 1 0.483461 0.429808 0
1322 1 0.468778 0.447816 0
1295 1 0.498487 0.412198 0
1348 1 0.00512139 0.472001 0
1349 1 0.0238679 0.479448 0
1379 1 0.00896029 0.496311 0
1320 1 0.0388614 0.46157 0
421 1 0.0434499 0.486405 0
392 1 0.0576502 0.467461 0
422 1 0.0623549 0.492378 0
393 1 0.0765184 0.473931 0
364 1 0.0914425 0.456589 0
394 1 0.0956274 0.480757 0
423 1 0.0821643 0.499069 0
395 1 0.110341 0.463061 0
396 1 0.114955 0.487384 0
397 1 0.129391 0.469954 0
427 1 0.134859 0.494109 0
398 1 0.149744 0.477419 0
399 1 0.163902 0.459613 0
429 1 0.168869 0.483671 0
400 1 0.183167 0.46635 0
431 1 0.188699 0.49047 0
402 1 0.203169 0.472695 0
432 1 0.207876 0.4974 0
433 1 0.222327 0.479223 0
404 1 0.235336 0.460714 0
435 1 0.240609 0.486034 0
406 1 0.254165 0.468267 0
436 1 0.260088 0.492816 0
408 1 0.274583 0.475041 0
439 1 0.279682 0.500429 0
410 1 0.288897 0.45692 0
441 1 0.294181 0.482013 0
411 1 0.307927 0.464052 0
440 1 0.313916 0.488598 0
442 1 0.328254 0.469527 0
471 1 0.333021 0.494686 0
473 1 0.347578 0.476537 0
443 1 0.362136 0.457499 0
444 1 0.366651 0.481763 0
445 1 0.381643 0.46407 0
475 1 0.386087 0.48861 0
446 1 0.401117 0.470792 0
477 1 0.406083 0.495402 0
448 1 0.419998 0.476965 0
450 1 0.45421 0.465289 0
449 1 0.43928 0.483327 0
420 1 0.435412 0.459283 0
1351 1 0.45945 0.48993 0
1324 1 0.488565 0.454371 0
1354 1 0.49343 0.479142 0
1353 1 0.473895 0.472106 0
1352 1 0.479647 0.496516 0
905 1 0.498396 0.0021072 0
1143 1 0.499836 0.253698 0
1 1 0.0597256 0.000384921 0
13 1 0.238411 0.0025079 0
1380 1 0.0344047 0.527543 0
1350 1 0.0290002 0.50388 0
451 1 0.0483659 0.510295 0
452 1 0.0543207 0.535056 0
453 1 0.0682282 0.516906 0
454 1 0.0726143 0.541503 0
424 1 0.0873309 0.52389 0
425 1 0.101373 0.505967 0
455 1 0.106473 0.530367 0
426 1 0.120508 0.511861 0
456 1 0.125171 0.536657 0
457 1 0.13986 0.51962 0
458 1 0.144885 0.543634 0
459 1 0.158839 0.525079 0
430 1 0.17326 0.507728 0
428 1 0.154391 0.501548 0
460 1 0.178471 0.532485 0
461 1 0.192809 0.514779 0
462 1 0.198262 0.538517 0
463 1 0.212143 0.521422 0
434 1 0.226826 0.504058 0
464 1 0.2315 0.52818 0
465 1 0.245823 0.511107 0
466 1 0.251381 0.534899 0
437 1 0.265285 0.517408 0
497 1 0.271003 0.541519 0
467 1 0.285765 0.524098 0
438 1 0.299093 0.50619 0
468 1 0.305448 0.529506 0
469 1 0.31952 0.512787 0
499 1 0.32487 0.536289 0
470 1 0.339645 0.518979 0
501 1 0.344532 0.543104 0
472 1 0.352616 0.500342 0
503 1 0.358432 0.524472 0
474 1 0.372379 0.506109 0
505 1 0.378138 0.530014 0
476 1 0.391944 0.512567 0
506 1 0.396912 0.537097 0
507 1 0.411298 0.519338 0
478 1 0.425631 0.501989 0
509 1 0.416212 0.543679 0
480 1 0.43039 0.526521 0
479 1 0.444868 0.50903 0
510 1 0.450756 0.532611 0
1381 1 0.464495 0.514399 0
1382 1 0.484396 0.520544 0
1411 1 0.46986 0.539404 0
1383 1 0.499068 0.502548 0
1413 1 0.489556 0.545187 0
1409 1 0.0195752 0.543548 0
1408 1 0.0233062 0.569424 0
481 1 0.0393353 0.552104 0
1410 1 0.0436709 0.576468 0
483 1 0.0582607 0.559008 0
482 1 0.0634159 0.583137 0
485 1 0.0923479 0.548055 0
513 1 0.0779297 0.565548 0
484 1 0.097505 0.572502 0
486 1 0.111679 0.554899 0
515 1 0.117103 0.578988 0
487 1 0.13118 0.561539 0
517 1 0.136277 0.586276 0
488 1 0.150569 0.567226 0
489 1 0.16379 0.549559 0
490 1 0.169894 0.573666 0
491 1 0.184006 0.556754 0
521 1 0.188576 0.581898 0
492 1 0.203294 0.563113 0
523 1 0.208983 0.588402 0
493 1 0.2181 0.545932 0
494 1 0.223223 0.570813 0
495 1 0.237094 0.553203 0
525 1 0.242571 0.577526 0
496 1 0.255911 0.55894 0
526 1 0.262553 0.583222 0
527 1 0.275843 0.565379 0
528 1 0.281496 0.58998 0
498 1 0.291377 0.547435 0
529 1 0.296178 0.57239 0
500 1 0.310843 0.55395 0
530 1 0.315345 0.577813 0
531 1 0.330627 0.560552 0
532 1 0.33542 0.584504 0
533 1 0.350382 0.567103 0
502 1 0.364074 0.548648 0
534 1 0.368757 0.574111 0
504 1 0.383304 0.555227 0
535 1 0.388256 0.580371 0
508 1 0.401913 0.562729 0
537 1 0.408277 0.58602 0
539 1 0.421604 0.567641 0
540 1 0.435772 0.551292 0
569 1 0.441497 0.575096 0
1441 1 0.455002 0.556638 0
1442 1 0.461254 0.581465 0
1443 1 0.480639 0.587041 0
1412 1 0.474778 0.562344 0
1414 1 0.494991 0.569228 0
1439 1 0.0295999 0.593773 0
1440 1 0.0333864 0.620072 0
1438 1 0.0144421 0.609524 0
1469 1 0.00829655 0.632915 0
511 1 0.0480879 0.602436 0
541 1 0.0546414 0.625806 0
512 1 0.0686859 0.606931 0
514 1 0.0830528 0.589606 0
542 1 0.0738875 0.631608 0
543 1 0.0883206 0.613832 0
545 1 0.102676 0.596413 0
546 1 0.107972 0.620667 0
516 1 0.122145 0.603393 0
547 1 0.127284 0.627564 0
518 1 0.141381 0.609718 0
519 1 0.155885 0.592328 0
548 1 0.161184 0.616531 0
520 1 0.174769 0.598232 0
577 1 0.146152 0.633604 0
549 1 0.180371 0.622855 0
522 1 0.194821 0.605059 0
551 1 0.199422 0.630787 0
553 1 0.213878 0.612905 0
524 1 0.229002 0.596383 0
554 1 0.233447 0.619756 0
555 1 0.248132 0.600913 0
556 1 0.253277 0.626205 0
557 1 0.267126 0.607573 0
587 1 0.271935 0.6326 0
558 1 0.286058 0.614921 0
559 1 0.30117 0.595953 0
560 1 0.306509 0.620388 0
561 1 0.320974 0.602023 0
563 1 0.354348 0.59193 0
591 1 0.325892 0.628219 0
562 1 0.340511 0.609135 0
564 1 0.345329 0.633799 0
565 1 0.360345 0.616732 0
536 1 0.374448 0.598573 0
566 1 0.380084 0.622081 0
567 1 0.393894 0.604221 0
597 1 0.399726 0.628908 0
568 1 0.413236 0.609741 0
538 1 0.426967 0.592028 0
599 1 0.41874 0.63476 0
600 1 0.432351 0.616647 0
570 1 0.446453 0.599771 0
1501 1 0.451298 0.624142 0
1774 1 0.494507 0.977902 0
1471 1 0.466493 0.605381 0
1472 1 0.470953 0.629311 0
1473 1 0.486076 0.611909 0
1529 1 0.0173845 0.675729 0
1499 1 0.0222576 0.651148 0
1498 1 0.00337843 0.658023 0
1500 1 0.0383129 0.66785 0
1470 1 0.0406614 0.642907 0
571 1 0.0586811 0.651033 0
572 1 0.0661553 0.673668 0
573 1 0.0790362 0.65536 0
544 1 0.0942686 0.638745 0
574 1 0.098201 0.66339 0
575 1 0.112656 0.645415 0
605 1 0.117396 0.670045 0
576 1 0.132298 0.651913 0
607 1 0.136987 0.677464 0
578 1 0.151506 0.660057 0
579 1 0.165255 0.642207 0
609 1 0.170294 0.666155 0
550 1 0.184873 0.648096 0
580 1 0.189755 0.671869 0
581 1 0.204602 0.654494 0
611 1 0.209639 0.678885 0
552 1 0.218932 0.637495 0
582 1 0.223734 0.661763 0
583 1 0.238311 0.644438 0
584 1 0.243046 0.668496 0
585 1 0.257722 0.650214 0
615 1 0.262896 0.674597 0
586 1 0.277645 0.656321 0
617 1 0.282236 0.680787 0
589 1 0.291853 0.63832 0
588 1 0.297292 0.66308 0
590 1 0.311289 0.644764 0
621 1 0.316814 0.66937 0
593 1 0.330498 0.652305 0
592 1 0.337001 0.676073 0
594 1 0.349952 0.65772 0
595 1 0.364417 0.641176 0
625 1 0.370132 0.664568 0
596 1 0.384352 0.645796 0
627 1 0.38946 0.670965 0
598 1 0.404071 0.653374 0
657 1 0.410042 0.677901 0
628 1 0.423668 0.659561 0
629 1 0.438041 0.642446 0
630 1 0.443099 0.666765 0
1502 1 0.457236 0.6476 0
1533 1 0.462057 0.671412 0
1474 1 0.490502 0.635491 0
1505 1 0.495509 0.66054 0
1503 1 0.476476 0.653698 0
1504 1 0.481558 0.677951 0
1558 1 0.00813821 0.724239 0
1559 1 0.0121258 0.700438 0
1530 1 0.0317262 0.693442 0
1560 1 0.0275962 0.717084 0
631 1 0.0467393 0.710193 0
601 1 0.0501159 0.686475 0
602 1 0.0672272 0.699964 0
632 1 0.063077 0.725732 0
603 1 0.0839469 0.682466 0
633 1 0.0868415 0.707239 0
604 1 0.102732 0.687271 0
635 1 0.106575 0.712462 0
606 1 0.122081 0.694807 0
636 1 0.126133 0.719011 0
637 1 0.142208 0.702152 0
608 1 0.156521 0.683547 0
638 1 0.161804 0.708223 0
639 1 0.176341 0.689915 0
667 1 0.147532 0.726003 0
641 1 0.181769 0.71452 0
610 1 0.195462 0.696861 0
642 1 0.20126 0.721327 0
612 1 0.21502 0.703889 0
613 1 0.228467 0.686154 0
643 1 0.235183 0.709514 0
614 1 0.249322 0.69286 0
645 1 0.254648 0.717356 0
616 1 0.268296 0.698842 0
647 1 0.274338 0.724014 0
618 1 0.287693 0.705795 0
619 1 0.303181 0.687733 0
620 1 0.307909 0.712264 0
622 1 0.323224 0.693739 0
651 1 0.327901 0.717826 0
653 1 0.342322 0.700449 0
654 1 0.34803 0.724586 0
623 1 0.356588 0.683201 0
624 1 0.362192 0.706716 0
626 1 0.376288 0.689513 0
655 1 0.381701 0.713834 0
656 1 0.395298 0.695497 0
686 1 0.401676 0.719567 0
658 1 0.415256 0.702636 0
659 1 0.428692 0.684135 0
687 1 0.420615 0.726066 0
660 1 0.434469 0.708168 0
1531 1 0.448905 0.690832 0
1561 1 0.453142 0.714837 0
1532 1 0.467553 0.695114 0
1563 1 0.472649 0.720795 0
1534 1 0.487357 0.702225 0
1619 1 0.0173989 0.765767 0
1589 1 0.0223405 0.74122 0
1588 1 0.00240529 0.748591 0
1590 1 0.0373198 0.758209 0
661 1 0.0430682 0.733871 0
663 1 0.0566331 0.751213 0
662 1 0.0716425 0.767902 0
664 1 0.0759294 0.744179 0
695 1 0.0937249 0.756668 0
634 1 0.0933777 0.730548 0
665 1 0.11146 0.738877 0
697 1 0.118384 0.762632 0
666 1 0.131437 0.742999 0
668 1 0.13804 0.766207 0
669 1 0.153089 0.749972 0
640 1 0.167561 0.732073 0
670 1 0.172937 0.757064 0
671 1 0.186672 0.738762 0
672 1 0.193438 0.763761 0
673 1 0.2071 0.746216 0
703 1 0.21221 0.771826 0
644 1 0.221211 0.729339 0
674 1 0.226255 0.753364 0
675 1 0.241208 0.735446 0
705 1 0.245456 0.759968 0
646 1 0.260873 0.742034 0
677 1 0.265551 0.76605 0
648 1 0.279619 0.747534 0
649 1 0.294829 0.730228 0
679 1 0.299654 0.754469 0
650 1 0.314732 0.736441 0
681 1 0.320216 0.759371 0
652 1 0.333503 0.742285 0
682 1 0.339536 0.76771 0
683 1 0.352867 0.749523 0
685 1 0.36719 0.730838 0
684 1 0.371864 0.755381 0
715 1 0.387316 0.73803 0
714 1 0.392215 0.762287 0
717 1 0.406883 0.744286 0
716 1 0.411855 0.768001 0
688 1 0.425803 0.750365 0
689 1 0.439727 0.732914 0
719 1 0.444888 0.75696 0
690 1 0.459073 0.739739 0
1565 1 0.492101 0.727016 0
1591 1 0.464754 0.763088 0
1562 1 0.478344 0.745303 0
1593 1 0.484324 0.770226 0
1564 1 0.49776 0.750709 0
1620 1 0.031663 0.78289 0
1649 1 0.0263938 0.806484 0
1618 1 0.0121905 0.790537 0
1648 1 0.00711323 0.814709 0
691 1 0.0519383 0.776246 0
721 1 0.0458803 0.800142 0
693 1 0.0658381 0.792906 0
692 1 0.0596622 0.816967 0
723 1 0.0791412 0.810418 0
694 1 0.0847498 0.786549 0
725 1 0.0983837 0.805034 0
696 1 0.103375 0.77946 0
727 1 0.117424 0.797924 0
728 1 0.131005 0.815405 0
698 1 0.136815 0.789593 0
699 1 0.156395 0.777115 0
700 1 0.1494 0.808208 0
731 1 0.166999 0.798831 0
701 1 0.179146 0.780474 0
702 1 0.198328 0.78949 0
763 1 0.203578 0.813742 0
732 1 0.184203 0.812479 0
733 1 0.218163 0.79626 0
704 1 0.231935 0.778406 0
706 1 0.238106 0.802182 0
678 1 0.284731 0.77269 0
676 1 0.251278 0.784099 0
737 1 0.257101 0.809214 0
707 1 0.271056 0.790457 0
738 1 0.276082 0.81466 0
708 1 0.291158 0.796547 0
709 1 0.30461 0.77821 0
710 1 0.310526 0.803019 0
680 1 0.324431 0.784036 0
741 1 0.331023 0.809335 0
711 1 0.344611 0.791451 0
742 1 0.350766 0.81619 0
713 1 0.359034 0.773174 0
712 1 0.364595 0.797853 0
743 1 0.377832 0.780168 0
745 1 0.383645 0.804382 0
746 1 0.397638 0.787052 0
775 1 0.403514 0.811267 0
747 1 0.417489 0.792315 0
748 1 0.422745 0.817222 0
718 1 0.43075 0.774451 0
749 1 0.436985 0.799251 0
720 1 0.450555 0.780582 0
1621 1 0.455856 0.806118 0
1623 1 0.489267 0.794855 0
1592 1 0.469728 0.788231 0
1622 1 0.475787 0.812571 0
1679 1 0.0213971 0.831237 0
1678 1 0.017211 0.85595 0
1677 1 0.00227224 0.839846 0
1709 1 0.0357913 0.84874 0
1650 1 0.0398927 0.824431 0
1680 1 0.0547652 0.841854 0
752 1 0.0686043 0.859483 0
751 1 0.0740128 0.834292 0
753 1 0.0877797 0.854353 0
722 1 0.0932219 0.828831 0
726 1 0.112353 0.822614 0
724 1 0.107231 0.846673 0
757 1 0.127272 0.840533 0
756 1 0.141521 0.856308 0
729 1 0.146557 0.832203 0
759 1 0.160883 0.848432 0
730 1 0.165712 0.825086 0
761 1 0.18312 0.838253 0
792 1 0.194956 0.858907 0
762 1 0.208378 0.838209 0
735 1 0.223545 0.820139 0
734 1 0.229689 0.845246 0
736 1 0.24334 0.82719 0
765 1 0.249121 0.850925 0
764 1 0.215407 0.86252 0
767 1 0.26325 0.833848 0
766 1 0.268808 0.85876 0
768 1 0.282684 0.839929 0
739 1 0.295717 0.821085 0
769 1 0.302464 0.845585 0
740 1 0.31551 0.827346 0
770 1 0.321615 0.851607 0
771 1 0.336066 0.834028 0
801 1 0.340461 0.858133 0
773 1 0.355507 0.840584 0
744 1 0.369631 0.822456 0
803 1 0.374707 0.846375 0
774 1 0.389171 0.828814 0
776 1 0.3944 0.853759 0
777 1 0.408636 0.835125 0
778 1 0.41423 0.859379 0
779 1 0.428374 0.84091 0
750 1 0.442431 0.823444 0
780 1 0.447409 0.847562 0
1651 1 0.461347 0.830374 0
1624 1 0.495718 0.818667 0
1652 1 0.466631 0.854466 0
1653 1 0.48115 0.836495 0
1683 1 0.487095 0.8609 0
1710 1 0.0308783 0.873979 0
1739 1 0.0259531 0.898276 0
1708 1 0.0112693 0.880211 0
1737 1 0.00664833 0.905378 0
781 1 0.0503021 0.866368 0
811 1 0.0455563 0.891122 0
782 1 0.0645657 0.884251 0
812 1 0.0588194 0.908583 0
813 1 0.0785239 0.902683 0
783 1 0.0833505 0.877947 0
784 1 0.0980372 0.895092 0
754 1 0.102243 0.870788 0
755 1 0.121614 0.8641 0
785 1 0.117321 0.888399 0
786 1 0.132024 0.904514 0
787 1 0.136648 0.880765 0
760 1 0.175877 0.864505 0
788 1 0.15137 0.897944 0
758 1 0.15643 0.873503 0
789 1 0.170727 0.890119 0
791 1 0.190564 0.883298 0
823 1 0.204752 0.900537 0
790 1 0.184598 0.908277 0
793 1 0.220811 0.88629 0
795 1 0.235237 0.868515 0
794 1 0.239986 0.892933 0
796 1 0.254286 0.875691 0
825 1 0.260155 0.900169 0
827 1 0.274676 0.883025 0
826 1 0.280283 0.906161 0
797 1 0.288856 0.863973 0
798 1 0.293705 0.888368 0
799 1 0.308756 0.871487 0
829 1 0.3134 0.89613 0
800 1 0.327762 0.878636 0
831 1 0.332482 0.901947 0
802 1 0.346806 0.882434 0
833 1 0.352211 0.906305 0
772 1 0.361349 0.864776 0
804 1 0.36679 0.889477 0
805 1 0.380488 0.87122 0
806 1 0.386594 0.895885 0
807 1 0.40068 0.877656 0
837 1 0.405788 0.902219 0
808 1 0.420507 0.884154 0
809 1 0.433765 0.865325 0
810 1 0.438816 0.89057 0
1681 1 0.452663 0.873037 0
1711 1 0.458682 0.896935 0
1684 1 0.491761 0.885978 0
1682 1 0.472726 0.87882 0
1713 1 0.477894 0.903566 0
1767 1 0.00193881 0.930811 0
1769 1 0.0356899 0.940981 0
1738 1 0.0208452 0.922688 0
1768 1 0.0170138 0.947771 0
1740 1 0.0402541 0.916159 0
841 1 0.0547352 0.9332 0
842 1 0.0697999 0.950513 0
843 1 0.0735657 0.926064 0
844 1 0.0885231 0.943696 0
814 1 0.0933664 0.919798 0
845 1 0.107567 0.936375 0
815 1 0.112214 0.912611 0
816 1 0.127098 0.928916 0
847 1 0.141414 0.946788 0
846 1 0.12249 0.953672 0
817 1 0.145942 0.92225 0
818 1 0.161181 0.939535 0
819 1 0.165456 0.915596 0
849 1 0.175549 0.956517 0
820 1 0.180405 0.932681 0
851 1 0.194839 0.949967 0
821 1 0.200231 0.924539 0
822 1 0.2142 0.942075 0
824 1 0.225237 0.911857 0
853 1 0.23299 0.935569 0
855 1 0.245517 0.916296 0
854 1 0.2523 0.942585 0
856 1 0.265656 0.923823 0
885 1 0.271628 0.948844 0
857 1 0.285766 0.931022 0
828 1 0.299509 0.91293 0
859 1 0.304751 0.938304 0
830 1 0.319376 0.919933 0
860 1 0.324145 0.944552 0
832 1 0.339191 0.925169 0
861 1 0.343826 0.950723 0
863 1 0.358274 0.932303 0
834 1 0.371772 0.914103 0
865 1 0.377214 0.938348 0
835 1 0.391215 0.921003 0
839 1 0.425129 0.908325 0
836 1 0.396703 0.945773 0
838 1 0.410526 0.927067 0
867 1 0.415208 0.951667 0
869 1 0.430017 0.933132 0
840 1 0.444574 0.915144 0
1741 1 0.449724 0.939617 0
1712 1 0.463882 0.921728 0
1714 1 0.497378 0.910121 0
1743 1 0.483617 0.929347 0
1742 1 0.46894 0.946421 0
1744 1 0.487985 0.95386 0
1799 1 0.0313241 0.965486 0
1798 1 0.0251509 0.989568 0
1797 1 0.0113503 0.972239 0
927 1 0.0065816 0.997071 0
1800 1 0.0454712 0.982097 0
1770 1 0.0503694 0.957162 0
871 1 0.0649679 0.974385 0
1654 1 0.500951 0.843231 0
872 1 0.0786762 0.992448 0
873 1 0.0843888 0.967966 0
874 1 0.0983792 0.985553 0
875 1 0.103329 0.960702 0
876 1 0.118047 0.978035 0
7 1 0.131556 0.995223 0
877 1 0.136906 0.971239 0
878 1 0.150896 0.987775 0
848 1 0.156113 0.963859 0
879 1 0.170163 0.981217 0
850 1 0.189421 0.97439 0
11 1 0.20388 0.990753 0
852 1 0.209184 0.96667 0
881 1 0.184675 0.998117 0
883 1 0.228347 0.959699 0
882 1 0.223353 0.98469 0
884 1 0.242107 0.978484 0
1773 1 0.475066 0.971658 0
886 1 0.2592 0.967148 0
16 1 0.260291 0.994794 0
17 1 0.277209 0.974929 0
18 1 0.282448 0.997884 0
887 1 0.290797 0.955827 0
888 1 0.296397 0.980466 0
858 1 0.310417 0.962717 0
889 1 0.315545 0.987961 0
891 1 0.329885 0.969312 0
890 1 0.335118 0.994389 0
862 1 0.349174 0.975712 0
892 1 0.354126 1.00094 0
864 1 0.362839 0.957385 0
893 1 0.368789 0.981364 0
895 1 0.382287 0.962697 0
896 1 0.388177 0.989169 0
866 1 0.400653 0.969753 0
897 1 0.407119 0.995316 0
868 1 0.420321 0.975953 0
899 1 0.440118 0.982222 0
1772 1 0.45996 0.989169 0
870 1 0.434787 0.957176 0
1771 1 0.454246 0.964347 0
903 1 0.479321 0.995786 0
904 1 0.503985 0.0273891 0
906 1 0.517654 0.0101658 0
935 1 0.524561 0.0338016 0
1378 1 0.985361 0.464658 0
908 1 0.537898 0.0152617 0
937 1 0.54416 0.0395236 0
939 1 0.558589 0.0210659 0
938 1 0.563291 0.0461334 0
941 1 0.573189 0.00427042 0
940 1 0.577667 0.0289828 0
942 1 0.802529 0.0266088 0
944 1 0.817406 0.0432433 0
1467 1 0.970853 0.48267 0
943 1 0.821687 0.0181083 0