ITEM: TIMESTEP
258000
ITEM: NUMBER OF ATOMS
1800
ITEM: BOX BOUNDS pp pp pp
-9.2073806820806325e+00 1.7420738068208254e+02
1.1826529217466231e+00 1.6381734707825530e+02
0.0000000000000000e+00 5.5000000000000000e+00
ITEM: ATOMS id type xs ys zs
930 1 0.029775 0.0232943 0
929 1 0.0142609 0.00577849 0
959 1 0.00897668 0.0307042 0
31 1 0.0463768 0.0397911 0
2 1 0.0506407 0.0153498 0
33 1 0.0668006 0.0332002 0
3 1 0.0722088 0.00837403 0
4 1 0.0877579 0.0253524 0
6 1 0.109377 0.0186832 0
35 1 0.10439 0.0436823 0
5 1 0.0943788 0.000734272 0
37 1 0.124712 0.035632 0
8 1 0.130042 0.0102155 0
39 1 0.145701 0.0276133 0
880 1 0.151767 0.00311208 0
9 1 0.167502 0.0203393 0
40 1 0.18393 0.0373612 0
10 1 0.188762 0.0127101 0
69 1 0.16328 0.0459029 0
41 1 0.205266 0.0298802 0
12 1 0.209326 0.00550096 0
14 1 0.226551 0.0229143 0
15 1 0.247562 0.014498 0
45 1 0.244095 0.0395378 0
46 1 0.269086 0.0160861 0
77 1 0.271542 0.0408593 0
47 1 0.289333 0.0243536 0
19 1 0.304498 0.00545525 0
49 1 0.310613 0.0295857 0
20 1 0.325897 0.0123769 0
51 1 0.3316 0.0373684 0
21 1 0.346823 0.0180359 0
23 1 0.367886 0.0246308 0
22 1 0.352795 0.0428562 0
894 1 0.383594 0.00623829 0
24 1 0.388996 0.0314099 0
25 1 0.404666 0.0127165 0
26 1 0.410044 0.0386934 0
27 1 0.425947 0.0202297 0
29 1 0.446691 0.0283053 0
28 1 0.431535 0.045564 0
898 1 0.441082 0.00222249 0
900 1 0.462176 0.00956648 0
30 1 0.467819 0.0337344 0
901 1 0.483582 0.0146877 0
931 1 0.489528 0.0403593 0
960 1 0.0254327 0.0478162 0
989 1 0.0201236 0.0715861 0
958 1 0.00361312 0.0553819 0
990 1 0.0359072 0.0887884 0
61 1 0.0410632 0.0649741 0
62 1 0.0577424 0.0823823 0
32 1 0.0626035 0.0580594 0
63 1 0.078947 0.074453 0
34 1 0.0832342 0.050269 0
65 1 0.0996273 0.0676773 0
66 1 0.116024 0.0849076 0
36 1 0.120772 0.0611058 0
67 1 0.136625 0.0779268 0
38 1 0.141889 0.0521759 0
68 1 0.158623 0.0699427 0
70 1 0.174733 0.0873006 0
71 1 0.180175 0.0623675 0
72 1 0.195837 0.0790021 0
42 1 0.200558 0.0538701 0
43 1 0.221045 0.0458316 0
73 1 0.216329 0.0702082 0
44 1 0.236529 0.0626638 0
74 1 0.260076 0.0859491 0
75 1 0.257883 0.0604497 0
105 1 0.232755 0.0863586 0
76 1 0.278941 0.0658835 0
48 1 0.293419 0.0481904 0
79 1 0.299414 0.0720999 0
78 1 0.282861 0.0900423 0
50 1 0.315365 0.0546356 0
81 1 0.321247 0.0792455 0
52 1 0.336483 0.0611507 0
82 1 0.342799 0.0850238 0
83 1 0.35831 0.0673633 0
53 1 0.373808 0.0492747 0
54 1 0.379811 0.0750343 0
55 1 0.394585 0.0567542 0
56 1 0.400691 0.08138 0
57 1 0.415858 0.0638064 0
87 1 0.421107 0.0894067 0
58 1 0.437491 0.0713985 0
59 1 0.452823 0.0526385 0
89 1 0.458384 0.0772329 0
932 1 0.495542 0.0642309 0
60 1 0.474171 0.0588034 0
961 1 0.48015 0.0833367 0
1020 1 0.0319555 0.115646 0
1019 1 0.015984 0.0989898 0
1049 1 0.00999598 0.122155 0
121 1 0.0477267 0.132572 0
91 1 0.052488 0.108404 0
92 1 0.0685246 0.124441 0
93 1 0.072821 0.0996778 0
64 1 0.09566 0.0921019 0
94 1 0.089948 0.116396 0
95 1 0.111134 0.109713 0
125 1 0.105992 0.134384 0
96 1 0.127168 0.126252 0
99 1 0.153914 0.0945889 0
97 1 0.131491 0.10169 0
98 1 0.14799 0.117819 0
100 1 0.170432 0.1109 0
130 1 0.187111 0.129879 0
101 1 0.192032 0.103244 0
129 1 0.165247 0.134205 0
102 1 0.208397 0.118986 0
103 1 0.212188 0.0951699 0
104 1 0.229843 0.123309 0
106 1 0.245457 0.105531 0
137 1 0.252535 0.129413 0
107 1 0.266924 0.110299 0
109 1 0.289864 0.115069 0
108 1 0.274513 0.133589 0
80 1 0.305019 0.0970471 0
110 1 0.311215 0.120721 0
111 1 0.326922 0.103337 0
141 1 0.332611 0.127674 0
84 1 0.364307 0.0922019 0
113 1 0.348512 0.109753 0
112 1 0.369108 0.116588 0
143 1 0.353007 0.134873 0
85 1 0.385248 0.0997303 0
115 1 0.390119 0.124028 0
86 1 0.405559 0.107006 0
116 1 0.411864 0.131697 0
88 1 0.442952 0.0954377 0
117 1 0.426817 0.113551 0
119 1 0.448527 0.120121 0
118 1 0.433638 0.137471 0
90 1 0.464699 0.102002 0
120 1 0.470003 0.126136 0
991 1 0.486703 0.106964 0
992 1 0.491694 0.130719 0
1050 1 0.0261604 0.139776 0
1079 1 0.0200453 0.16411 0
1048 1 0.00499195 0.146185 0
450 1 0.472212 0.467363 0
1080 1 0.0364832 0.180991 0
151 1 0.0418126 0.156747 0
122 1 0.0635341 0.149063 0
152 1 0.0585999 0.174352 0
153 1 0.0805584 0.165373 0
123 1 0.085052 0.140824 0
124 1 0.101886 0.170076 0
126 1 0.121922 0.151923 0
157 1 0.140191 0.164895 0
127 1 0.144098 0.142118 0
155 1 0.123195 0.179377 0
128 1 0.161575 0.169846 0
159 1 0.178876 0.153176 0
132 1 0.184154 0.176877 0
131 1 0.199745 0.157603 0
133 1 0.216499 0.141585 0
134 1 0.221644 0.165047 0
135 1 0.237131 0.147543 0
165 1 0.243616 0.171492 0
136 1 0.259091 0.152443 0
167 1 0.264099 0.177054 0
138 1 0.280326 0.158088 0
139 1 0.296222 0.139836 0
169 1 0.301365 0.164513 0
140 1 0.317783 0.145515 0
171 1 0.322649 0.171193 0
142 1 0.338747 0.153325 0
172 1 0.343498 0.177043 0
173 1 0.359157 0.159769 0
114 1 0.374111 0.141879 0
144 1 0.380293 0.166284 0
145 1 0.395169 0.147936 0
146 1 0.401415 0.173714 0
147 1 0.417073 0.155063 0
148 1 0.438915 0.16162 0
177 1 0.423216 0.180244 0
149 1 0.454652 0.143678 0
150 1 0.460398 0.167036 0
1051 1 0.481564 0.174608 0
1021 1 0.475821 0.150192 0
1022 1 0.496842 0.15615 0
1107 1 0.0100678 0.21244 0
1109 1 0.0335719 0.214001 0
1078 1 0.0153085 0.188684 0
181 1 0.0509048 0.199574 0
183 1 0.0720849 0.206181 0
182 1 0.0557188 0.223997 0
154 1 0.087283 0.187811 0
185 1 0.0921602 0.214188 0
156 1 0.108133 0.197417 0
186 1 0.113515 0.221202 0
158 1 0.129974 0.204414 0
160 1 0.145907 0.187837 0
189 1 0.151734 0.21098 0
161 1 0.1678 0.194018 0
191 1 0.174342 0.218247 0
162 1 0.189748 0.200276 0
163 1 0.205559 0.182288 0
192 1 0.195119 0.224818 0
193 1 0.210905 0.207101 0
164 1 0.227378 0.189141 0
195 1 0.232482 0.212946 0
166 1 0.248524 0.195753 0
196 1 0.254002 0.219795 0
197 1 0.269909 0.200276 0
168 1 0.285844 0.182266 0
198 1 0.275513 0.225104 0
199 1 0.291171 0.207139 0
170 1 0.307253 0.18881 0
200 1 0.312442 0.213225 0
201 1 0.328734 0.196106 0
202 1 0.333733 0.220798 0
174 1 0.364837 0.184 0
203 1 0.349636 0.201983 0
204 1 0.370442 0.208929 0
233 1 0.355643 0.226761 0
175 1 0.385723 0.191096 0
205 1 0.391506 0.215129 0
176 1 0.407142 0.197479 0
207 1 0.413346 0.222495 0
179 1 0.445112 0.184983 0
178 1 0.427609 0.204706 0
209 1 0.449617 0.209392 0
180 1 0.4662 0.192877 0
1081 1 0.471218 0.217345 0
1052 1 0.487928 0.198657 0
1082 1 0.493324 0.223744 0
1140 1 0.0247605 0.259183 0
1110 1 0.0180537 0.235093 0
1108 1 0.00383204 0.252245 0
211 1 0.0408982 0.242704 0
212 1 0.0466426 0.266939 0
213 1 0.0618612 0.249512 0
184 1 0.0769821 0.230865 0
214 1 0.0835172 0.256545 0
215 1 0.0981448 0.239222 0
216 1 0.104173 0.264176 0
187 1 0.135732 0.228339 0
217 1 0.119978 0.246531 0
218 1 0.125698 0.270629 0
188 1 0.141658 0.252925 0
190 1 0.157671 0.234747 0
220 1 0.162526 0.259258 0
221 1 0.178826 0.242448 0
222 1 0.184302 0.265867 0
223 1 0.200835 0.249331 0
194 1 0.21603 0.231354 0
224 1 0.222319 0.254837 0
225 1 0.238304 0.236882 0
226 1 0.243242 0.262261 0
227 1 0.260083 0.243741 0
257 1 0.265979 0.267803 0
228 1 0.2813 0.249717 0
229 1 0.296918 0.230531 0
230 1 0.301767 0.256498 0
231 1 0.318414 0.238089 0
261 1 0.323092 0.262186 0
232 1 0.339648 0.244877 0
263 1 0.344894 0.268783 0
234 1 0.361095 0.251251 0
235 1 0.376525 0.233404 0
265 1 0.382484 0.257915 0
206 1 0.397792 0.24004 0
236 1 0.403706 0.264508 0
237 1 0.419798 0.246837 0
208 1 0.434282 0.227919 0
239 1 0.440691 0.253151 0
238 1 0.425007 0.271258 0
210 1 0.456182 0.235005 0
240 1 0.462236 0.258925 0
1111 1 0.477582 0.241446 0
1112 1 0.482782 0.267066 0
1113 1 0.498608 0.248936 0
1139 1 0.00854307 0.277025 0
1169 1 0.0155609 0.301997 0
241 1 0.0307919 0.283414 0
271 1 0.0366058 0.309097 0
243 1 0.0675987 0.27349 0
242 1 0.0523167 0.291606 0
244 1 0.0730821 0.299557 0
273 1 0.0583464 0.316808 0
245 1 0.0884029 0.282165 0
246 1 0.0949174 0.306668 0
247 1 0.10989 0.289022 0
248 1 0.115697 0.313392 0
249 1 0.130903 0.295068 0
219 1 0.148117 0.277661 0
250 1 0.153797 0.301064 0
251 1 0.169154 0.283549 0
281 1 0.174842 0.30836 0
252 1 0.190601 0.289895 0
253 1 0.206169 0.273298 0
283 1 0.196405 0.314312 0
254 1 0.211871 0.296979 0
255 1 0.227747 0.278971 0
285 1 0.233188 0.302832 0
256 1 0.249449 0.28553 0
287 1 0.256229 0.309626 0
259 1 0.286863 0.275012 0
258 1 0.270924 0.291928 0
288 1 0.276359 0.316966 0
289 1 0.292524 0.299444 0
260 1 0.308167 0.280289 0
291 1 0.313308 0.304663 0
262 1 0.329375 0.287294 0
292 1 0.334784 0.312513 0
293 1 0.350152 0.293624 0
264 1 0.366577 0.275 0
295 1 0.372118 0.299419 0
294 1 0.35608 0.317478 0
266 1 0.38786 0.282183 0
297 1 0.392884 0.306417 0
267 1 0.408495 0.289156 0
298 1 0.414843 0.311953 0
268 1 0.431062 0.295874 0
269 1 0.446768 0.277885 0
270 1 0.452469 0.302847 0
1141 1 0.467733 0.283934 0
300 1 0.47325 0.308752 0
1171 1 0.488737 0.291552 0
1172 1 0.495239 0.316078 0
1353 1 0.493678 0.47412 0
1229 1 0.0254473 0.35176 0
1170 1 0.0207706 0.327058 0
1199 1 0.00385612 0.345519 0
1200 1 0.04211 0.333878 0
301 1 0.0477501 0.358847 0
272 1 0.0633057 0.341818 0
275 1 0.0797076 0.32398 0
274 1 0.0843591 0.348679 0
276 1 0.100562 0.331636 0
305 1 0.105946 0.355008 0
279 1 0.137238 0.320033 0
277 1 0.121664 0.337368 0
278 1 0.143262 0.343756 0
307 1 0.127311 0.361387 0
280 1 0.159312 0.325056 0
311 1 0.165197 0.350075 0
282 1 0.181283 0.332082 0
312 1 0.185974 0.356455 0
313 1 0.20228 0.339786 0
284 1 0.217675 0.320841 0
315 1 0.223887 0.345234 0
314 1 0.207738 0.363224 0
286 1 0.238629 0.327376 0
316 1 0.244917 0.352035 0
317 1 0.259732 0.334589 0
318 1 0.265291 0.358973 0
319 1 0.280928 0.341097 0
290 1 0.297118 0.323224 0
320 1 0.302391 0.347178 0
321 1 0.318099 0.329726 0
322 1 0.324955 0.353303 0
323 1 0.341031 0.335454 0
324 1 0.346354 0.359721 0
325 1 0.362065 0.341763 0
296 1 0.378378 0.32493 0
326 1 0.382472 0.349498 0
327 1 0.399564 0.330607 0
328 1 0.404398 0.354994 0
329 1 0.420299 0.337386 0
299 1 0.435789 0.319822 0
359 1 0.441986 0.345398 0
330 1 0.457812 0.32672 0
358 1 0.426096 0.362271 0
360 1 0.463945 0.351241 0
1201 1 0.479516 0.333135 0
1231 1 0.485064 0.357951 0
1259 1 0.0104559 0.370402 0
1230 1 0.0321097 0.377048 0
1260 1 0.0163726 0.395107 0
331 1 0.0380051 0.400778 0
303 1 0.0690412 0.365864 0
302 1 0.0537065 0.383868 0
333 1 0.0753546 0.390218 0
332 1 0.0600093 0.407537 0
304 1 0.0909561 0.373478 0
335 1 0.0965347 0.397402 0
306 1 0.111877 0.37952 0
337 1 0.117798 0.403082 0
308 1 0.133301 0.38596 0
309 1 0.148977 0.368263 0
339 1 0.155191 0.392192 0
310 1 0.170573 0.374671 0
341 1 0.176527 0.400342 0
343 1 0.192063 0.381483 0
342 1 0.198162 0.40589 0
344 1 0.213288 0.388453 0
345 1 0.229371 0.36904 0
346 1 0.235469 0.394504 0
347 1 0.250365 0.376397 0
377 1 0.256769 0.40104 0
348 1 0.271542 0.382885 0
349 1 0.28666 0.364466 0
378 1 0.278809 0.407397 0
350 1 0.292809 0.388524 0
351 1 0.309611 0.371666 0
381 1 0.314845 0.395489 0
353 1 0.330392 0.37686 0
352 1 0.336711 0.40198 0
354 1 0.351915 0.383693 0
355 1 0.367706 0.367335 0
356 1 0.372651 0.390936 0
357 1 0.388989 0.374161 0
386 1 0.39488 0.398982 0
387 1 0.411108 0.380887 0
388 1 0.416621 0.404977 0
389 1 0.433049 0.386486 0
1232 1 0.448413 0.368356 0
1261 1 0.453822 0.394219 0
1262 1 0.469182 0.375948 0
1293 1 0.475284 0.400895 0
1263 1 0.490167 0.382077 0
1294 1 0.495738 0.406552 0
1289 1 0.000688343 0.411817 0
1319 1 0.00723094 0.436534 0
391 1 0.0285282 0.443072 0
1290 1 0.023032 0.418602 0
361 1 0.0439771 0.425598 0
362 1 0.0497307 0.449843 0
363 1 0.0656282 0.432218 0
334 1 0.0816805 0.41435 0
365 1 0.0871431 0.438423 0
336 1 0.102872 0.420126 0
366 1 0.107853 0.445966 0
338 1 0.139112 0.409599 0
367 1 0.123165 0.427676 0
369 1 0.144484 0.435405 0
368 1 0.12881 0.453127 0
340 1 0.160575 0.416685 0
370 1 0.166123 0.44151 0
371 1 0.181996 0.424186 0
401 1 0.188594 0.447464 0
372 1 0.203928 0.430579 0
373 1 0.219194 0.412823 0
374 1 0.224542 0.437823 0
403 1 0.209657 0.455193 0
375 1 0.240413 0.418616 0
405 1 0.246498 0.44288 0
376 1 0.262655 0.425433 0
407 1 0.268071 0.451291 0
409 1 0.284091 0.431906 0
379 1 0.299397 0.412673 0
380 1 0.306246 0.438293 0
382 1 0.32108 0.419666 0
413 1 0.32763 0.444746 0
383 1 0.3422 0.426916 0
385 1 0.35754 0.408966 0
414 1 0.363676 0.434002 0
412 1 0.348509 0.451718 0
384 1 0.378898 0.416061 0
415 1 0.385048 0.440288 0
417 1 0.40103 0.422533 0
416 1 0.406584 0.447549 0
418 1 0.422004 0.429807 0
419 1 0.43806 0.411766 0
390 1 0.443846 0.435751 0
447 1 0.427909 0.454357 0
1291 1 0.460155 0.417864 0
1292 1 0.481044 0.425077 0
1321 1 0.464455 0.442987 0
1322 1 0.486973 0.449009 0
1320 1 0.0129503 0.460696 0
421 1 0.0186396 0.485143 0
392 1 0.0348251 0.467132 0
422 1 0.0398648 0.492097 0
364 1 0.0716969 0.456019 0
393 1 0.055714 0.474184 0
394 1 0.0771419 0.481071 0
423 1 0.0606522 0.498719 0
395 1 0.0926487 0.464021 0
396 1 0.0975933 0.488919 0
397 1 0.113618 0.470907 0
427 1 0.11909 0.496319 0
399 1 0.150716 0.45884 0
398 1 0.13515 0.477227 0
429 1 0.157565 0.484337 0
400 1 0.172367 0.46538 0
431 1 0.178555 0.490488 0
402 1 0.194146 0.472298 0
432 1 0.199314 0.498005 0
433 1 0.215215 0.479763 0
404 1 0.230718 0.461813 0
435 1 0.236891 0.485526 0
406 1 0.252458 0.467638 0
436 1 0.257476 0.491827 0
408 1 0.274189 0.474735 0
410 1 0.289561 0.455606 0
441 1 0.296007 0.479844 0
439 1 0.280667 0.498472 0
411 1 0.311482 0.461723 0
440 1 0.317491 0.486448 0
442 1 0.332624 0.468781 0
471 1 0.338322 0.4936 0
473 1 0.35399 0.476033 0
443 1 0.369386 0.458739 0
444 1 0.375135 0.482487 0
445 1 0.391334 0.465239 0
475 1 0.396246 0.488777 0
446 1 0.412441 0.471325 0
477 1 0.417599 0.496196 0
449 1 0.455585 0.485186 0
448 1 0.433547 0.478618 0
420 1 0.449668 0.460671 0
1351 1 0.47618 0.492295 0
1352 1 0.497701 0.499173 0
452 1 0.0286608 0.534629 0
451 1 0.0237315 0.510692 0
1380 1 0.00649233 0.528719 0
1350 1 0.00301859 0.503436 0
453 1 0.0443293 0.516758 0
454 1 0.05022 0.541323 0
424 1 0.0653031 0.524365 0
425 1 0.0810468 0.506331 0
455 1 0.0873744 0.529507 0
426 1 0.103273 0.512826 0
456 1 0.108844 0.536984 0
457 1 0.125079 0.51965 0
459 1 0.146766 0.526872 0
458 1 0.130907 0.543784 0
428 1 0.141382 0.501873 0
430 1 0.162611 0.507806 0
460 1 0.16826 0.532974 0
461 1 0.183358 0.515237 0
462 1 0.189435 0.539028 0
463 1 0.204818 0.521115 0
434 1 0.220605 0.503265 0
464 1 0.226131 0.527449 0
465 1 0.241335 0.509197 0
466 1 0.24794 0.532752 0
437 1 0.264335 0.51466 0
497 1 0.269057 0.539069 0
467 1 0.285764 0.522652 0
438 1 0.301524 0.504659 0
468 1 0.307355 0.528776 0
469 1 0.323031 0.510936 0
499 1 0.328846 0.535086 0
470 1 0.34435 0.517837 0
503 1 0.365362 0.525157 0
501 1 0.349403 0.543204 0
474 1 0.380115 0.507648 0
472 1 0.359406 0.499938 0
505 1 0.386283 0.53144 0
476 1 0.402178 0.513334 0
506 1 0.407384 0.53806 0
507 1 0.423506 0.520511 0
480 1 0.443949 0.527084 0
478 1 0.439476 0.502245 0
479 1 0.460416 0.509355 0
509 1 0.428741 0.546077 0
510 1 0.466388 0.533776 0
1381 1 0.481929 0.516265 0
1411 1 0.487998 0.541094 0
481 1 0.0132032 0.552694 0
483 1 0.0351959 0.560439 0
1410 1 0.0195924 0.577472 0
482 1 0.0410249 0.584902 0
485 1 0.0713648 0.548188 0
513 1 0.0569484 0.566323 0
514 1 0.0616505 0.591234 0
484 1 0.0771079 0.573059 0
486 1 0.0931516 0.554897 0
515 1 0.0990002 0.579617 0
487 1 0.115274 0.561907 0
517 1 0.120591 0.586605 0
489 1 0.151825 0.55143 0
488 1 0.136732 0.570014 0
490 1 0.158287 0.574899 0
491 1 0.173618 0.557163 0
521 1 0.179154 0.581228 0
493 1 0.210821 0.545115 0
492 1 0.194685 0.562462 0
523 1 0.200428 0.586714 0
494 1 0.21607 0.5696 0
495 1 0.231956 0.550919 0
525 1 0.237526 0.574735 0
496 1 0.253238 0.557288 0
526 1 0.257726 0.583503 0
527 1 0.274135 0.563872 0
498 1 0.290362 0.547007 0
529 1 0.295667 0.572002 0
500 1 0.311889 0.553681 0
530 1 0.317343 0.578069 0
531 1 0.333286 0.560258 0
532 1 0.338347 0.584424 0
533 1 0.355095 0.56678 0
502 1 0.371074 0.549848 0
534 1 0.376587 0.574478 0
504 1 0.392872 0.556776 0
535 1 0.39802 0.581117 0
508 1 0.412959 0.562348 0
537 1 0.41852 0.586267 0
539 1 0.435572 0.568941 0
540 1 0.451367 0.550922 0
569 1 0.457212 0.575676 0
1442 1 0.47834 0.582658 0
1441 1 0.472312 0.558165 0
1412 1 0.493939 0.565393 0
1443 1 0.50005 0.588962 0
511 1 0.0242744 0.602091 0
541 1 0.0297197 0.626799 0
1440 1 0.00616874 0.619471 0
1439 1 0.00394129 0.594631 0
512 1 0.045717 0.608911 0
542 1 0.0512126 0.632989 0
543 1 0.0677852 0.616275 0
545 1 0.0828392 0.597446 0
546 1 0.0895023 0.622542 0
516 1 0.104912 0.603825 0
547 1 0.110743 0.628927 0
518 1 0.12755 0.611507 0
519 1 0.14244 0.592915 0
548 1 0.147996 0.618292 0
577 1 0.131983 0.63549 0
520 1 0.163699 0.599405 0
549 1 0.169037 0.624373 0
522 1 0.184696 0.605906 0
551 1 0.191007 0.630034 0
553 1 0.206129 0.611676 0
524 1 0.22202 0.594709 0
554 1 0.227738 0.620071 0
555 1 0.242257 0.601408 0
556 1 0.250211 0.626362 0
557 1 0.263789 0.607933 0
528 1 0.279039 0.588949 0
558 1 0.28591 0.614178 0
587 1 0.270756 0.632054 0
559 1 0.301118 0.596219 0
560 1 0.307987 0.62159 0
561 1 0.322596 0.602793 0
591 1 0.329179 0.628295 0
562 1 0.343782 0.609627 0
563 1 0.36051 0.591005 0
565 1 0.366464 0.616436 0
564 1 0.351579 0.634273 0
536 1 0.381761 0.599586 0
566 1 0.38736 0.622983 0
567 1 0.403449 0.605166 0
597 1 0.40885 0.629467 0
568 1 0.425348 0.61089 0
538 1 0.439846 0.59277 0
600 1 0.446847 0.618455 0
599 1 0.430934 0.636265 0
570 1 0.462183 0.600165 0
1501 1 0.468234 0.624929 0
1471 1 0.484496 0.607722 0
1472 1 0.490033 0.631595 0
1470 1 0.013805 0.643318 0
571 1 0.0353052 0.651927 0
1500 1 0.00947004 0.667097 0
572 1 0.0426492 0.675179 0
544 1 0.072737 0.640419 0
573 1 0.0572947 0.657523 0
603 1 0.0624853 0.682998 0
574 1 0.0786063 0.665036 0
575 1 0.0949467 0.64711 0
605 1 0.100373 0.672282 0
576 1 0.115605 0.654323 0
607 1 0.121439 0.67872 0
578 1 0.137303 0.660304 0
579 1 0.153443 0.642946 0
609 1 0.158715 0.667153 0
550 1 0.174866 0.647846 0
580 1 0.180867 0.672774 0
552 1 0.21179 0.636455 0
581 1 0.195693 0.655405 0
611 1 0.202941 0.679056 0
582 1 0.217355 0.660027 0
583 1 0.232882 0.643434 0
584 1 0.238235 0.667397 0
585 1 0.254962 0.649657 0
615 1 0.259755 0.674685 0
586 1 0.276639 0.655849 0
589 1 0.292247 0.639069 0
588 1 0.298224 0.662646 0
617 1 0.2823 0.680328 0
590 1 0.313374 0.645288 0
621 1 0.319989 0.669246 0
593 1 0.335708 0.652303 0
592 1 0.340705 0.675829 0
594 1 0.356946 0.658873 0
595 1 0.372255 0.64096 0
625 1 0.379021 0.664826 0
596 1 0.393739 0.646342 0
627 1 0.399963 0.671747 0
598 1 0.415609 0.653635 0
657 1 0.421486 0.677878 0
628 1 0.43723 0.660015 0
629 1 0.452713 0.642396 0
630 1 0.458362 0.666749 0
1503 1 0.49672 0.655864 0
1502 1 0.474632 0.649076 0
1533 1 0.480042 0.673634 0
601 1 0.0243084 0.685736 0
631 1 0.020458 0.709466 0
632 1 0.0366175 0.725359 0
1530 1 0.00335302 0.692185 0
602 1 0.0441579 0.700071 0
633 1 0.0683438 0.70748 0
604 1 0.0841253 0.68876 0
635 1 0.0895265 0.714303 0
606 1 0.105308 0.69687 0
636 1 0.112108 0.720926 0
637 1 0.127632 0.7026 0
608 1 0.143029 0.684724 0
638 1 0.149068 0.708608 0
667 1 0.133481 0.726317 0
639 1 0.16519 0.690593 0
641 1 0.171266 0.714774 0
610 1 0.187308 0.696829 0
642 1 0.193554 0.721365 0
612 1 0.208615 0.703832 0
613 1 0.224042 0.686077 0
643 1 0.229599 0.710123 0
614 1 0.24467 0.693255 0
645 1 0.250841 0.716683 0
616 1 0.266856 0.697727 0
647 1 0.272838 0.722838 0
618 1 0.288053 0.705006 0
619 1 0.30381 0.686638 0
620 1 0.310266 0.711188 0
622 1 0.326051 0.693515 0
651 1 0.332334 0.719244 0
623 1 0.362427 0.682707 0
653 1 0.346763 0.700841 0
624 1 0.368888 0.707507 0
654 1 0.353761 0.726224 0
626 1 0.384137 0.688458 0
655 1 0.391137 0.714401 0
656 1 0.406572 0.696412 0
686 1 0.41264 0.720242 0
658 1 0.427753 0.701037 0
659 1 0.443054 0.684272 0
660 1 0.449587 0.708842 0
687 1 0.434646 0.726444 0
1531 1 0.464758 0.691456 0
1561 1 0.470452 0.716383 0
1532 1 0.486144 0.698385 0
1563 1 0.492301 0.722127 0
663 1 0.0300448 0.749979 0
661 1 0.0148263 0.73267 0
1590 1 0.00896407 0.756317 0
662 1 0.0468784 0.766825 0
634 1 0.072512 0.732955 0
664 1 0.0514701 0.743046 0
695 1 0.0692477 0.758903 0
665 1 0.095054 0.739435 0
697 1 0.103694 0.767369 0
666 1 0.116638 0.745767 0
668 1 0.125576 0.767178 0
669 1 0.140664 0.750059 0
640 1 0.155176 0.732884 0
670 1 0.162256 0.756583 0
671 1 0.177647 0.738955 0
672 1 0.184063 0.763724 0
644 1 0.214839 0.728375 0
673 1 0.199197 0.74554 0
703 1 0.204759 0.77155 0
674 1 0.220452 0.752965 0
675 1 0.236271 0.734969 0
705 1 0.24179 0.758623 0
646 1 0.257427 0.741273 0
677 1 0.263422 0.766341 0
648 1 0.278587 0.746815 0
649 1 0.29453 0.729692 0
679 1 0.300123 0.75366 0
650 1 0.316417 0.73567 0
681 1 0.321522 0.760103 0
652 1 0.337444 0.743908 0
682 1 0.344002 0.767956 0
683 1 0.359199 0.750707 0
685 1 0.375059 0.732051 0
684 1 0.38179 0.755856 0
715 1 0.396558 0.73874 0
714 1 0.403496 0.763052 0
717 1 0.41971 0.744722 0
716 1 0.424311 0.769154 0
688 1 0.440547 0.752161 0
689 1 0.455549 0.734545 0
719 1 0.461788 0.758141 0
690 1 0.476993 0.740526 0
1591 1 0.48385 0.764461 0
1562 1 0.49926 0.746377 0
691 1 0.0243743 0.773732 0
721 1 0.0191727 0.798802 0
1620 1 0.00263122 0.781652 0
692 1 0.0356395 0.81596 0
693 1 0.0404485 0.791233 0
723 1 0.0566033 0.808066 0
694 1 0.0627418 0.784109 0
725 1 0.0782716 0.802225 0
696 1 0.0837797 0.777716 0
727 1 0.0991747 0.79537 0
728 1 0.114542 0.814666 0
698 1 0.121498 0.791027 0
699 1 0.145641 0.776169 0
700 1 0.136087 0.809138 0
731 1 0.154415 0.798139 0
701 1 0.168938 0.781287 0
702 1 0.189121 0.789746 0
732 1 0.173975 0.807149 0
763 1 0.194843 0.814563 0
733 1 0.210145 0.795878 0
704 1 0.225987 0.778247 0
706 1 0.232473 0.80157 0
676 1 0.247481 0.78404 0
737 1 0.254118 0.808153 0
707 1 0.269514 0.789893 0
678 1 0.284752 0.77222 0
738 1 0.274784 0.814658 0
708 1 0.290839 0.796873 0
709 1 0.306645 0.777888 0
710 1 0.312158 0.80296 0
680 1 0.328096 0.785876 0
741 1 0.334325 0.809336 0
713 1 0.365796 0.774175 0
711 1 0.350688 0.791815 0
712 1 0.371353 0.798016 0
742 1 0.35525 0.815522 0
743 1 0.387616 0.780619 0
745 1 0.392255 0.804777 0
746 1 0.409479 0.787194 0
775 1 0.413441 0.810133 0
718 1 0.446018 0.776451 0
747 1 0.430782 0.793697 0
749 1 0.451741 0.800745 0
720 1 0.467672 0.781861 0
1621 1 0.472852 0.806419 0
1592 1 0.488787 0.78944 0
1622 1 0.493937 0.812987 0
1680 1 0.0297048 0.84126 0
1650 1 0.014743 0.823239 0
1709 1 0.00872321 0.847859 0
752 1 0.0454015 0.858378 0
751 1 0.0510297 0.83372 0
753 1 0.0667206 0.849987 0
722 1 0.0726139 0.825717 0
726 1 0.0938568 0.819485 0
724 1 0.0881085 0.843721 0
757 1 0.109848 0.838176 0
755 1 0.103905 0.862143 0
756 1 0.125041 0.856041 0
729 1 0.130852 0.832568 0
759 1 0.147046 0.848366 0
730 1 0.154749 0.823891 0
761 1 0.178222 0.832337 0
792 1 0.185382 0.857161 0
760 1 0.164087 0.863253 0
762 1 0.20052 0.838239 0
735 1 0.21612 0.819502 0
734 1 0.222326 0.845752 0
764 1 0.206921 0.863694 0
736 1 0.237831 0.826234 0
765 1 0.24363 0.850743 0
767 1 0.259267 0.832943 0
766 1 0.26626 0.85729 0
768 1 0.281328 0.838993 0
739 1 0.296956 0.821113 0
769 1 0.302824 0.844895 0
797 1 0.288415 0.863971 0
740 1 0.319083 0.826646 0
770 1 0.324126 0.851979 0
771 1 0.340032 0.834305 0
801 1 0.345502 0.858542 0
773 1 0.360966 0.839282 0
744 1 0.376808 0.822179 0
803 1 0.382325 0.847291 0
774 1 0.398676 0.829033 0
776 1 0.40405 0.853293 0
777 1 0.419933 0.835822 0
748 1 0.436754 0.818569 0
779 1 0.441845 0.843389 0
778 1 0.425979 0.860269 0
750 1 0.457258 0.824604 0
1651 1 0.478866 0.830258 0
780 1 0.463949 0.848676 0
1652 1 0.484774 0.85543 0
1710 1 0.00389224 0.872578 0
781 1 0.024951 0.865837 0
811 1 0.0195601 0.890271 0
812 1 0.0360959 0.907587 0
782 1 0.0403047 0.883156 0
813 1 0.0567145 0.899773 0
783 1 0.0618905 0.875669 0
784 1 0.0776648 0.892872 0
754 1 0.0831497 0.868099 0
785 1 0.0993427 0.886224 0
786 1 0.115572 0.904038 0
787 1 0.120146 0.880043 0
788 1 0.136662 0.896345 0
758 1 0.141905 0.871985 0
789 1 0.158401 0.888085 0
790 1 0.173845 0.905812 0
791 1 0.179751 0.881488 0
823 1 0.195092 0.898745 0
793 1 0.213712 0.8876 0
795 1 0.229541 0.869388 0
794 1 0.235641 0.892726 0
796 1 0.251872 0.875284 0
825 1 0.257594 0.899963 0
827 1 0.27299 0.882289 0
826 1 0.279065 0.907031 0
798 1 0.294099 0.888709 0
799 1 0.309245 0.870555 0
829 1 0.315865 0.894291 0
800 1 0.331169 0.87693 0
831 1 0.336993 0.90042 0
802 1 0.352389 0.883018 0
772 1 0.366927 0.865423 0
804 1 0.373992 0.88909 0
833 1 0.359262 0.907394 0
805 1 0.38952 0.871458 0
806 1 0.395342 0.896367 0
807 1 0.410993 0.87863 0
837 1 0.416891 0.903258 0
809 1 0.448709 0.867214 0
808 1 0.432361 0.885629 0
810 1 0.453721 0.891594 0
1681 1 0.469779 0.87364 0
1711 1 0.475197 0.897851 0
1682 1 0.490925 0.879716 0
1713 1 0.497436 0.904302 0
841 1 0.0298104 0.932097 0
1740 1 0.0138929 0.915066 0
1769 1 0.00931841 0.939333 0
842 1 0.0454204 0.949175 0
843 1 0.051851 0.923971 0
844 1 0.0668948 0.942936 0
814 1 0.0727155 0.917633 0
815 1 0.093729 0.911102 0
845 1 0.0881838 0.935299 0
816 1 0.109536 0.928294 0
846 1 0.104435 0.952581 0
847 1 0.125256 0.944351 0
819 1 0.152673 0.912809 0
817 1 0.130888 0.920523 0
818 1 0.14706 0.936139 0
820 1 0.168018 0.928712 0
851 1 0.183241 0.946742 0
821 1 0.189107 0.922648 0
849 1 0.161846 0.953386 0
822 1 0.204776 0.939163 0
824 1 0.212167 0.914599 0
853 1 0.226151 0.933292 0
855 1 0.242262 0.917096 0
854 1 0.247595 0.943147 0
856 1 0.263453 0.924795 0
885 1 0.269329 0.949289 0
857 1 0.285436 0.931177 0
828 1 0.300363 0.912739 0
859 1 0.306228 0.937446 0
830 1 0.322605 0.919349 0
860 1 0.328435 0.944353 0
832 1 0.344136 0.926703 0
863 1 0.365342 0.931625 0
861 1 0.34966 0.949701 0
834 1 0.380287 0.913908 0
865 1 0.385716 0.93874 0
835 1 0.402018 0.921161 0
836 1 0.408024 0.945469 0
838 1 0.422993 0.927436 0
839 1 0.438457 0.910181 0
869 1 0.444535 0.934595 0
867 1 0.429248 0.95232 0
840 1 0.459625 0.915753 0
1712 1 0.481616 0.922143 0
1741 1 0.467053 0.940115 0
1742 1 0.487526 0.946748 0
1770 1 0.0239881 0.956927 0
1799 1 0.00311296 0.964362 0
1800 1 0.0199872 0.981348 0
1 1 0.0346863 0.99838 0
871 1 0.0408731 0.974524 0
872 1 0.0564048 0.991284 0
873 1 0.0612571 0.9668 0
874 1 0.0772489 0.984333 0
875 1 0.0826995 0.960078 0
876 1 0.0994653 0.976989 0
7 1 0.115433 0.99349 0
877 1 0.120288 0.969636 0
878 1 0.136327 0.985804 0
848 1 0.141251 0.961304 0
879 1 0.157811 0.97798 0
881 1 0.172627 0.995631 0
850 1 0.178124 0.971286 0
11 1 0.193176 0.989003 0
852 1 0.198985 0.964089 0
883 1 0.219861 0.956392 0
882 1 0.213843 0.981248 0
884 1 0.235617 0.975665 0
886 1 0.255575 0.967818 0
16 1 0.259895 0.992307 0
13 1 0.23006 0.99842 0
18 1 0.283737 0.998253 0
887 1 0.291266 0.955857 0
17 1 0.276588 0.974435 0
888 1 0.298296 0.98076 0
858 1 0.313296 0.962506 0
889 1 0.319913 0.987313 0
891 1 0.334414 0.967879 0
890 1 0.340473 0.993938 0
862 1 0.355873 0.97577 0
864 1 0.370886 0.957059 0
893 1 0.377065 0.981709 0
892 1 0.362382 0.999747 0
895 1 0.392355 0.96315 0
896 1 0.398099 0.987885 0
866 1 0.414399 0.969275 0
897 1 0.419671 0.99504 0
868 1 0.436074 0.977623 0
899 1 0.456978 0.983361 0
870 1 0.451085 0.958358 0
1773 1 0.493013 0.971409 0
1772 1 0.477748 0.990699 0
1771 1 0.47201 0.96501 0
903 1 0.49931 0.996398 0
902 1 0.504875 0.020924 0
904 1 0.525908 0.028012 0
905 1 0.520239 0.0032257 0
906 1 0.541621 0.0104744 0
935 1 0.546641 0.0346841 0
908 1 0.563891 0.0152318 0
937 1 0.568718 0.0399481 0
939 1 0.585621 0.0214921 0
940 1 0.606678 0.0282495 0
941 1 0.601534 0.00275175 0
942 1 0.753098 0.0260838 0
944 1 0.769955 0.0423977 0
943 1 0.77481 0.017986 0
945 1 0.791174 0.034295 0
914 1 0.79584 0.0098005 0
947 1 0.811607 0.0270332 0
918 1 0.833554 0.0209594 0
916 1 0.818018 0.00234214 0
949 1 0.849906 0.037552 0
919 1 0.85491 0.0132385 0
920 1 0.871468 0.0312306 0
1790 1 0.876951 0.00554458 0
951 1 0.892834 0.0232984 0
922 1 0.914014 0.0163755 0
952 1 0.908388 0.0408227 0
953 1 0.930394 0.0343437 0
924 1 0.934765 0.0102564 0
955 1 0.951389 0.0271547 0
925 1 0.955804 0.00155186 0
926 1 0.971876 0.0201349 0
957 1 0.988429 0.0368575 0
928 1 0.993046 0.0133813 0
956 1 0.967486 0.0447464 0
933 1 0.511153 0.0461156 0
963 1 0.517481 0.0704636 0
934 1 0.531949 0.0523489 0
962 1 0.501555 0.0884483 0
965 1 0.538617 0.0779625 0
936 1 0.554069 0.0578851 0
966 1 0.560159 0.0841158 0
967 1 0.574639 0.0642958 0
938 1 0.590591 0.0462289 0
969 1 0.596678 0.0713367 0
971 1 0.748691 0.0510382 0
970 1 0.742589 0.075394 0
973 1 0.764096 0.0679106 0
972 1 0.759392 0.0926861 0
975 1 0.784725 0.0597277 0
1003 1 0.779705 0.0842437 0
974 1 0.801127 0.0762892 0
948 1 0.827909 0.04502 0
946 1 0.805513 0.0514436 0
976 1 0.822804 0.0695705 0
1007 1 0.838762 0.0856227 0
977 1 0.844944 0.0621782 0
979 1 0.865624 0.0554392 0
978 1 0.860175 0.0791821 0
980 1 0.881822 0.0716532 0
950 1 0.887839 0.0474263 0
981 1 0.903897 0.06586 0
982 1 0.919865 0.08363 0
1011 1 0.898156 0.0903725 0
983 1 0.924554 0.0582367 0
984 1 0.94023 0.0749774 0
954 1 0.945317 0.0514864 0
985 1 0.961831 0.0683673 0
987 1 0.98298 0.062314 0
988 1 0.999396 0.0804467 0
986 1 0.977809 0.0862266 0
964 1 0.522319 0.0958205 0
993 1 0.507545 0.114004 0
994 1 0.528828 0.121273 0
995 1 0.544102 0.102095 0
996 1 0.550348 0.12653 0
997 1 0.565927 0.109261 0
1027 1 0.572226 0.133416 0
968 1 0.581453 0.0908436 0
998 1 0.588149 0.115196 0
1000 1 0.609298 0.122216 0
1030 1 0.630507 0.129353 0
999 1 0.645919 0.112278 0
1001 1 0.667404 0.118013 0
1002 1 0.688323 0.125757 0
1033 1 0.775943 0.109669 0
1065 1 0.792948 0.125804 0
1004 1 0.796673 0.100787 0
1035 1 0.813328 0.117434 0
1005 1 0.817438 0.0932828 0
1006 1 0.833576 0.109925 0
1037 1 0.850429 0.126683 0
1008 1 0.854569 0.103045 0
1039 1 0.871657 0.119895 0
1009 1 0.87603 0.0959157 0
1010 1 0.89357 0.114882 0
1012 1 0.913718 0.107646 0
1041 1 0.908875 0.132299 0
1015 1 0.956161 0.0923899 0
1043 1 0.930682 0.124946 0
1013 1 0.935707 0.10005 0
1014 1 0.952084 0.118134 0
1017 1 0.972424 0.111099 0
1018 1 0.994027 0.104884 0
1047 1 0.98769 0.12843 0
1016 1 0.967273 0.135286 0
1023 1 0.512235 0.138724 0
1024 1 0.518051 0.162348 0
1025 1 0.534443 0.145334 0
1055 1 0.539633 0.169857 0
1026 1 0.555456 0.151541 0
1057 1 0.560915 0.175799 0
1028 1 0.577556 0.158882 0
1029 1 0.592904 0.139776 0
1058 1 0.599023 0.165563 0
1059 1 0.614251 0.147099 0
1032 1 0.651445 0.136396 0
1060 1 0.619787 0.172156 0