ITEM: TIMESTEP
426000
ITEM: NUMBER OF ATOMS
1800
ITEM: BOX BOUNDS pp pp pp
-1.5972983958991403e+01 1.8097298395899332e+02
1.1826529217466231e+00 1.6381734707825530e+02
0.0000000000000000e+00 5.5000000000000000e+00
ITEM: ATOMS id type xs ys zs
929 1 0.0322557 0.00511085 0
959 1 0.0267751 0.0298762 0
928 1 0.0123109 0.0122149 0
957 1 0.00752646 0.037251 0
930 1 0.0461606 0.02311 0
31 1 0.0617954 0.0402852 0
2 1 0.0661874 0.0161198 0
33 1 0.0811812 0.0334041 0
3 1 0.0858576 0.00947561 0
4 1 0.101199 0.0271122 0
5 1 0.106443 0.00190748 0
6 1 0.121238 0.0194278 0
37 1 0.13645 0.037157 0
8 1 0.142046 0.0133988 0
35 1 0.11657 0.0440181 0
39 1 0.156901 0.0300487 0
880 1 0.162242 0.00592349 0
9 1 0.17694 0.0235072 0
40 1 0.191147 0.0403398 0
10 1 0.196319 0.0165392 0
41 1 0.210809 0.0342681 0
12 1 0.2165 0.00999254 0
14 1 0.230336 0.0280536 0
13 1 0.235091 0.00234602 0
45 1 0.24485 0.0450197 0
15 1 0.248777 0.0189869 0
46 1 0.268284 0.0188568 0
77 1 0.274315 0.0430536 0
47 1 0.288006 0.0237115 0
19 1 0.301991 0.00712169 0
49 1 0.30737 0.0307023 0
20 1 0.322274 0.0129495 0
51 1 0.327749 0.0373306 0
21 1 0.342306 0.0190022 0
22 1 0.347965 0.0436045 0
892 1 0.355777 0.000404237 0
23 1 0.36191 0.0255238 0
894 1 0.375293 0.00778842 0
24 1 0.381984 0.032605 0
25 1 0.396079 0.0132123 0
26 1 0.402239 0.038628 0
27 1 0.415518 0.0204927 0
29 1 0.436406 0.0259596 0
900 1 0.450535 0.00783078 0
30 1 0.455926 0.0331611 0
898 1 0.430333 0.00231193 0
902 1 0.490585 0.0219393 0
901 1 0.470512 0.0147815 0
931 1 0.476655 0.0400606 0
988 1 0.0174046 0.0790701 0
958 1 0.0222859 0.0536816 0
987 1 0.00293065 0.0615532 0
989 1 0.0368705 0.0712376 0
960 1 0.0424891 0.0473049 0
61 1 0.0567988 0.0642874 0
62 1 0.0712683 0.0822205 0
990 1 0.0519141 0.0888213 0
32 1 0.0764553 0.0583091 0
63 1 0.0915424 0.0749799 0
34 1 0.096128 0.0502291 0
65 1 0.111767 0.0678884 0
66 1 0.125581 0.0857471 0
36 1 0.13129 0.0604975 0
67 1 0.145445 0.0781393 0
38 1 0.151228 0.0541107 0
69 1 0.171383 0.0479574 0
68 1 0.165672 0.0717272 0
71 1 0.185513 0.0646183 0
70 1 0.18042 0.0886967 0
72 1 0.199779 0.0817103 0
42 1 0.205355 0.0572973 0
43 1 0.22484 0.0520831 0
73 1 0.21935 0.0756411 0
44 1 0.240844 0.0688557 0
74 1 0.264275 0.0849916 0
75 1 0.260441 0.0605365 0
76 1 0.279781 0.0680187 0
48 1 0.294301 0.0497364 0
79 1 0.299775 0.0737818 0
50 1 0.314219 0.0550986 0
81 1 0.31881 0.0807033 0
52 1 0.33322 0.0611067 0
82 1 0.339167 0.086019 0
83 1 0.353527 0.0683197 0
53 1 0.367636 0.0505139 0
54 1 0.373849 0.0745223 0
55 1 0.388096 0.0568592 0
28 1 0.422343 0.044544 0
56 1 0.393291 0.0813625 0
57 1 0.407943 0.0630973 0
87 1 0.413051 0.0878169 0
58 1 0.427547 0.0698387 0
59 1 0.441936 0.0512125 0
89 1 0.447024 0.0756869 0
60 1 0.462052 0.057734 0
933 1 0.496578 0.0463779 0
932 1 0.481967 0.0643726 0
961 1 0.467697 0.0817385 0
962 1 0.487667 0.0888143 0
1047 1 0.00843296 0.129184 0
1019 1 0.0320733 0.0968385 0
1049 1 0.02886 0.122454 0
1018 1 0.0130132 0.104014 0
1020 1 0.0473471 0.113094 0
121 1 0.0617891 0.132112 0
91 1 0.0673275 0.1085 0
92 1 0.0821342 0.125902 0
93 1 0.0868154 0.100534 0
64 1 0.106284 0.0936008 0
94 1 0.101534 0.118141 0
125 1 0.116378 0.134725 0
95 1 0.121527 0.110536 0
96 1 0.137301 0.128524 0
97 1 0.140878 0.102953 0
98 1 0.155876 0.120097 0
99 1 0.16008 0.0959293 0
100 1 0.174943 0.113495 0
130 1 0.189659 0.129444 0
101 1 0.19483 0.106066 0
102 1 0.209172 0.123422 0
103 1 0.214375 0.0999341 0
105 1 0.233539 0.0923996 0
104 1 0.233599 0.119684 0
78 1 0.284617 0.0920515 0
106 1 0.251616 0.104234 0
137 1 0.254461 0.128048 0
107 1 0.270508 0.109879 0
108 1 0.275103 0.134358 0
109 1 0.289526 0.116329 0
80 1 0.304479 0.0976012 0
110 1 0.30894 0.122843 0
111 1 0.324831 0.104501 0
141 1 0.329997 0.128959 0
113 1 0.344372 0.110876 0
143 1 0.350144 0.135064 0
84 1 0.359167 0.0921283 0
112 1 0.364591 0.117096 0
85 1 0.378828 0.0986241 0
115 1 0.384603 0.123609 0
86 1 0.398361 0.105193 0
116 1 0.404118 0.129919 0
117 1 0.418209 0.112231 0
88 1 0.432589 0.093957 0
119 1 0.438773 0.117173 0
90 1 0.452881 0.0995582 0
120 1 0.458632 0.12451 0
991 1 0.473176 0.106444 0
992 1 0.478996 0.131176 0
993 1 0.493048 0.113513 0
1048 1 0.0223982 0.146837 0
1077 1 0.0185335 0.171004 0
1046 1 0.00289563 0.153653 0
1079 1 0.0376225 0.164872 0
1050 1 0.0422982 0.140428 0
151 1 0.0575933 0.15831 0
152 1 0.0734464 0.175561 0
122 1 0.0768371 0.150271 0
153 1 0.0924199 0.166931 0
123 1 0.0971229 0.143084 0
124 1 0.111543 0.159853 0
155 1 0.126849 0.175286 0
126 1 0.131105 0.150966 0
157 1 0.146232 0.168288 0
127 1 0.151296 0.145416 0
129 1 0.169758 0.138274 0
128 1 0.167118 0.164405 0
159 1 0.185543 0.15422 0
132 1 0.193316 0.177738 0
131 1 0.206742 0.158426 0
133 1 0.222525 0.141138 0
134 1 0.226595 0.164852 0
135 1 0.241636 0.147069 0
165 1 0.24719 0.170666 0
136 1 0.261548 0.152509 0
167 1 0.266723 0.176858 0
138 1 0.281229 0.158784 0
139 1 0.295421 0.140188 0
169 1 0.300324 0.164755 0
140 1 0.31526 0.147046 0
171 1 0.320887 0.170878 0
142 1 0.335183 0.152648 0
172 1 0.340763 0.177569 0
173 1 0.355541 0.159229 0
114 1 0.369859 0.141207 0
144 1 0.375728 0.165283 0
145 1 0.389464 0.147578 0
118 1 0.42437 0.136193 0
146 1 0.395272 0.173217 0
147 1 0.409924 0.154756 0
177 1 0.414856 0.179409 0
148 1 0.429924 0.161273 0
149 1 0.444421 0.1424 0
150 1 0.449911 0.16771 0
1021 1 0.464479 0.149126 0
1051 1 0.470148 0.173103 0
1022 1 0.485117 0.155175 0
1053 1 0.490321 0.181013 0
1023 1 0.499636 0.137517 0
1076 1 0.0137947 0.19583 0
1107 1 0.0289658 0.21293 0
1078 1 0.0339879 0.189209 0
1106 1 0.00972355 0.221242 0
1080 1 0.0534977 0.182413 0
1109 1 0.0489581 0.207977 0
181 1 0.068801 0.199312 0
182 1 0.0744137 0.2225 0
183 1 0.0886798 0.192993 0
185 1 0.10715 0.212864 0
154 1 0.107202 0.184223 0
156 1 0.123846 0.199365 0
186 1 0.129465 0.222364 0
158 1 0.143991 0.203354 0
160 1 0.15886 0.18708 0
189 1 0.163693 0.210798 0
161 1 0.178234 0.193551 0
163 1 0.213385 0.183193 0
191 1 0.183052 0.218279 0
162 1 0.198759 0.201401 0
192 1 0.203401 0.224908 0
193 1 0.21796 0.208006 0
164 1 0.232872 0.190413 0
195 1 0.237534 0.214255 0
166 1 0.252135 0.195661 0
196 1 0.257465 0.220186 0
197 1 0.271874 0.201128 0
198 1 0.27774 0.224688 0
168 1 0.286469 0.183069 0
199 1 0.291888 0.206924 0
170 1 0.30685 0.188268 0
200 1 0.311083 0.21266 0
201 1 0.326325 0.195998 0
202 1 0.331255 0.220244 0
203 1 0.346425 0.202287 0
233 1 0.351346 0.226059 0
174 1 0.360432 0.183111 0
204 1 0.366012 0.207809 0
175 1 0.380492 0.190794 0
205 1 0.38579 0.216364 0
176 1 0.400012 0.197116 0
207 1 0.406166 0.222878 0
178 1 0.420564 0.204241 0
179 1 0.434681 0.184932 0
209 1 0.440696 0.209571 0
180 1 0.455497 0.19139 0
1081 1 0.461259 0.216572 0
1052 1 0.475721 0.198218 0
1082 1 0.480872 0.223542 0
1083 1 0.495689 0.205461 0
1108 1 0.0255515 0.251061 0
1137 1 0.0112107 0.269215 0
1136 1 0.00512713 0.245018 0
1110 1 0.0410411 0.233005 0
1140 1 0.0452525 0.259438 0
211 1 0.0593148 0.241171 0
212 1 0.0652513 0.267375 0
213 1 0.0788009 0.248159 0
184 1 0.0945598 0.232748 0
214 1 0.0987624 0.257108 0
215 1 0.114258 0.23826 0
216 1 0.119577 0.263218 0
217 1 0.134303 0.246073 0
218 1 0.139043 0.269656 0
187 1 0.148939 0.228415 0
188 1 0.15428 0.253386 0
190 1 0.168479 0.235117 0
220 1 0.17439 0.259972 0
221 1 0.188149 0.24216 0
222 1 0.193253 0.26651 0
223 1 0.208769 0.248609 0
194 1 0.223785 0.231156 0
224 1 0.228238 0.254348 0
225 1 0.24335 0.237992 0
226 1 0.248552 0.26196 0
227 1 0.263072 0.244285 0
257 1 0.26866 0.268943 0
228 1 0.282239 0.249848 0
229 1 0.297216 0.23221 0
230 1 0.30257 0.256717 0
231 1 0.316965 0.238356 0
261 1 0.322014 0.262359 0
232 1 0.336663 0.244108 0
263 1 0.341953 0.268802 0
234 1 0.356204 0.250594 0
235 1 0.371399 0.233289 0
265 1 0.376432 0.257754 0
206 1 0.391399 0.240784 0
208 1 0.426638 0.228524 0
236 1 0.396534 0.265302 0
237 1 0.411705 0.246944 0
238 1 0.416492 0.271267 0
239 1 0.431255 0.25349 0
210 1 0.446364 0.234253 0
240 1 0.45201 0.259133 0
1111 1 0.465808 0.241676 0
1112 1 0.471501 0.265997 0
1113 1 0.486237 0.248594 0
1142 1 0.491054 0.272948 0
1138 1 0.0166832 0.295576 0
1139 1 0.0310072 0.277466 0
1169 1 0.0363367 0.302328 0
1197 1 0.00165929 0.312669 0
241 1 0.0502997 0.284974 0
271 1 0.0557312 0.309056 0
242 1 0.0701676 0.291609 0
243 1 0.0848497 0.274714 0
273 1 0.0759517 0.31597 0
244 1 0.0906699 0.299103 0
245 1 0.104605 0.281525 0
246 1 0.110795 0.306721 0
247 1 0.123901 0.288468 0
248 1 0.130537 0.313443 0
249 1 0.143597 0.294045 0
219 1 0.158952 0.277104 0
250 1 0.164821 0.300465 0
251 1 0.179172 0.284053 0
253 1 0.213179 0.272613 0
281 1 0.18487 0.307173 0
252 1 0.199992 0.290299 0
283 1 0.204006 0.315072 0
254 1 0.218906 0.297515 0
255 1 0.233578 0.279232 0
285 1 0.23853 0.303786 0
256 1 0.254216 0.286001 0
287 1 0.259544 0.31056 0
258 1 0.273903 0.292723 0
288 1 0.278551 0.317272 0
259 1 0.28814 0.275338 0
289 1 0.293422 0.298703 0
260 1 0.30815 0.280145 0
291 1 0.313638 0.304547 0
262 1 0.328016 0.287053 0
292 1 0.333212 0.311548 0
293 1 0.347448 0.293536 0
294 1 0.353176 0.31729 0
264 1 0.36244 0.275213 0
295 1 0.367205 0.299776 0
266 1 0.382054 0.282438 0
297 1 0.387333 0.306396 0
267 1 0.402337 0.288885 0
298 1 0.406837 0.313521 0
268 1 0.42204 0.296233 0
269 1 0.436788 0.277647 0
270 1 0.441887 0.301972 0
1141 1 0.456745 0.284508 0
300 1 0.461347 0.308556 0
1171 1 0.476218 0.290905 0
1172 1 0.480189 0.315056 0
1173 1 0.49549 0.297933 0
1168 1 0.0214074 0.319568 0
1199 1 0.0259677 0.344407 0
1198 1 0.0055914 0.337354 0
1228 1 0.0107268 0.361483 0
1170 1 0.0408493 0.327477 0
1229 1 0.0458745 0.35179 0
1200 1 0.0613237 0.333065 0
301 1 0.0658847 0.35845 0
272 1 0.0804603 0.341111 0
275 1 0.0960314 0.323205 0
274 1 0.100468 0.347755 0
276 1 0.115475 0.33038 0
305 1 0.120667 0.354293 0
277 1 0.135817 0.336837 0
307 1 0.14011 0.361313 0
279 1 0.150398 0.318712 0
278 1 0.155062 0.343881 0
280 1 0.170188 0.324922 0
311 1 0.174276 0.349246 0
282 1 0.189693 0.331885 0
312 1 0.194601 0.356611 0
313 1 0.209906 0.338591 0
284 1 0.224421 0.321844 0
315 1 0.22937 0.345279 0
286 1 0.244477 0.327208 0
316 1 0.249664 0.351455 0
317 1 0.264004 0.334402 0
318 1 0.26863 0.358875 0
319 1 0.283866 0.341346 0
290 1 0.299069 0.323368 0
320 1 0.304895 0.346639 0
321 1 0.318834 0.328367 0
322 1 0.32397 0.353209 0
323 1 0.338802 0.336117 0
324 1 0.343279 0.359761 0
325 1 0.358599 0.341355 0
296 1 0.372871 0.324028 0
326 1 0.377889 0.348661 0
327 1 0.391961 0.331021 0
328 1 0.398625 0.355604 0
329 1 0.412029 0.337512 0
358 1 0.417844 0.362315 0
299 1 0.427325 0.320033 0
359 1 0.432103 0.344365 0
330 1 0.447063 0.326351 0
360 1 0.452187 0.351379 0
1202 1 0.486323 0.339608 0
1201 1 0.466824 0.333328 0
1231 1 0.472804 0.358477 0
1287 1 0.000838541 0.402318 0
1259 1 0.0310121 0.369267 0
1258 1 0.0159652 0.385699 0
1260 1 0.0360652 0.39324 0
1230 1 0.0510113 0.376943 0
331 1 0.0553953 0.40115 0
302 1 0.0708247 0.383365 0
303 1 0.0860278 0.366273 0
332 1 0.0749499 0.407247 0
333 1 0.090778 0.389906 0
304 1 0.106167 0.371299 0
335 1 0.109865 0.396727 0
306 1 0.125529 0.379262 0
337 1 0.130423 0.403162 0
308 1 0.145853 0.385962 0
309 1 0.159839 0.367718 0
339 1 0.166279 0.392777 0
310 1 0.179551 0.374028 0
341 1 0.184953 0.399647 0
343 1 0.19977 0.380984 0
342 1 0.204468 0.406116 0
314 1 0.214454 0.36338 0
344 1 0.219521 0.387785 0
345 1 0.234219 0.370043 0
346 1 0.239825 0.393375 0
347 1 0.254168 0.375881 0
377 1 0.259704 0.400657 0
348 1 0.27422 0.382458 0
378 1 0.279438 0.406751 0
349 1 0.289317 0.364652 0
350 1 0.294097 0.388483 0
351 1 0.309362 0.37127 0
381 1 0.313981 0.395914 0
353 1 0.328818 0.377871 0
352 1 0.334033 0.402194 0
354 1 0.34838 0.384276 0
355 1 0.36295 0.366717 0
356 1 0.368411 0.390563 0
357 1 0.383718 0.37325 0
386 1 0.388408 0.39763 0
387 1 0.403091 0.380376 0
388 1 0.407905 0.404921 0
389 1 0.422696 0.387466 0
1232 1 0.437041 0.369222 0
1261 1 0.443676 0.3933 0
1262 1 0.457256 0.37498 0
1293 1 0.463176 0.400496 0
1233 1 0.492014 0.364543 0
1263 1 0.477582 0.382129 0
1294 1 0.483062 0.406405 0
1264 1 0.497589 0.388703 0
1289 1 0.0210053 0.410442 0
1319 1 0.0259668 0.435916 0
1288 1 0.00640534 0.427907 0
1318 1 0.0105691 0.452214 0
1290 1 0.0402253 0.418668 0
391 1 0.0451572 0.443945 0
361 1 0.0606248 0.426744 0
362 1 0.0659804 0.450553 0
363 1 0.0810755 0.432246 0
334 1 0.0954404 0.413814 0
365 1 0.100763 0.439131 0
336 1 0.115524 0.420811 0
366 1 0.120449 0.445806 0
367 1 0.135256 0.427865 0
368 1 0.140819 0.452019 0
338 1 0.151531 0.409815 0
369 1 0.155274 0.434778 0
340 1 0.170608 0.417665 0
370 1 0.175437 0.442102 0
371 1 0.18999 0.425524 0
401 1 0.195727 0.44897 0
372 1 0.210371 0.429957 0
373 1 0.224297 0.411665 0
374 1 0.229861 0.43699 0
375 1 0.244791 0.417724 0
405 1 0.249701 0.44334 0
403 1 0.215472 0.456201 0
376 1 0.265016 0.424999 0
407 1 0.270101 0.449329 0
409 1 0.284793 0.43143 0
379 1 0.299246 0.413202 0
380 1 0.304798 0.436949 0
382 1 0.319023 0.419696 0
385 1 0.353712 0.408603 0
413 1 0.323919 0.444392 0
383 1 0.338833 0.426097 0
412 1 0.343858 0.450311 0
414 1 0.358472 0.432968 0
384 1 0.37337 0.415057 0
415 1 0.377846 0.438719 0
417 1 0.393263 0.421924 0
416 1 0.397709 0.446742 0
418 1 0.413165 0.428357 0
447 1 0.417518 0.452664 0
419 1 0.427889 0.410949 0
390 1 0.432949 0.435547 0
1291 1 0.447726 0.41847 0
1321 1 0.453673 0.44273 0
1323 1 0.488085 0.431143 0
1292 1 0.468291 0.424256 0
1322 1 0.472773 0.448235 0
1320 1 0.031451 0.462056 0
1349 1 0.0167937 0.478019 0
1379 1 0.00126268 0.495464 0
421 1 0.0362412 0.485902 0
392 1 0.0518778 0.468096 0
422 1 0.0564483 0.49303 0
393 1 0.0716669 0.475155 0
364 1 0.0860453 0.457173 0
394 1 0.0907046 0.482634 0
395 1 0.105626 0.464257 0
423 1 0.0767812 0.501136 0
396 1 0.110479 0.488641 0
397 1 0.125306 0.470601 0
427 1 0.130685 0.49488 0
398 1 0.144708 0.476215 0
399 1 0.160621 0.458651 0
429 1 0.165663 0.482827 0
400 1 0.18004 0.466281 0
431 1 0.184995 0.490601 0
402 1 0.200339 0.47353 0
432 1 0.20551 0.497077 0
433 1 0.220217 0.48024 0
404 1 0.234864 0.461183 0
435 1 0.240717 0.486298 0
406 1 0.255149 0.467869 0
436 1 0.260351 0.492585 0
408 1 0.275138 0.475088 0
439 1 0.281047 0.498873 0
410 1 0.289298 0.457343 0
441 1 0.295149 0.481112 0
411 1 0.308915 0.460566 0
440 1 0.315053 0.486737 0
442 1 0.329898 0.467672 0
471 1 0.335087 0.493437 0
473 1 0.349658 0.476695 0
443 1 0.362692 0.458068 0
444 1 0.36956 0.482645 0
445 1 0.383194 0.464536 0
475 1 0.389503 0.489297 0
446 1 0.40333 0.4704 0
477 1 0.408793 0.495216 0
448 1 0.423722 0.476574 0
450 1 0.457732 0.467249 0
449 1 0.443216 0.485211 0
420 1 0.43828 0.46034 0
1324 1 0.492628 0.455517 0
1352 1 0.482751 0.497122 0
1354 1 0.497474 0.479397 0
1351 1 0.463664 0.491017 0
1353 1 0.47728 0.472689 0
1380 1 0.0268245 0.528255 0
1350 1 0.0208019 0.504036 0
451 1 0.0416389 0.510688 0
452 1 0.0469021 0.534739 0
453 1 0.0619832 0.517652 0
454 1 0.0666019 0.542597 0
424 1 0.0819091 0.524799 0
425 1 0.0961624 0.507361 0
455 1 0.101352 0.530898 0
426 1 0.11653 0.513568 0
456 1 0.12064 0.537774 0
457 1 0.13647 0.520178 0
458 1 0.142693 0.544131 0
459 1 0.156927 0.52502 0
430 1 0.171237 0.508363 0
460 1 0.176548 0.532788 0
428 1 0.150643 0.50136 0
461 1 0.190767 0.516104 0
462 1 0.196107 0.539357 0
463 1 0.210553 0.521751 0
434 1 0.225781 0.504365 0
464 1 0.230591 0.52853 0
465 1 0.24528 0.510594 0
466 1 0.251179 0.535087 0
437 1 0.265269 0.517522 0
497 1 0.270995 0.540928 0
467 1 0.285943 0.523589 0
438 1 0.300552 0.505207 0
468 1 0.306824 0.529344 0
469 1 0.320465 0.510423 0
499 1 0.326467 0.534356 0
470 1 0.341097 0.517405 0
501 1 0.346008 0.541679 0
472 1 0.354855 0.500288 0
503 1 0.360425 0.524051 0
474 1 0.374663 0.506494 0
505 1 0.380635 0.531 0
476 1 0.394246 0.513963 0
506 1 0.40062 0.538462 0
507 1 0.414132 0.519906 0
509 1 0.420723 0.54525 0
480 1 0.434511 0.526084 0
479 1 0.448654 0.508897 0
510 1 0.454159 0.532497 0
478 1 0.428809 0.502592 0
1382 1 0.489038 0.522259 0
1381 1 0.468512 0.515581 0
1411 1 0.4749 0.539345 0
1409 1 0.0130285 0.545246 0
481 1 0.0320982 0.55292 0
1408 1 0.0174172 0.570474 0
1410 1 0.0375373 0.577353 0
483 1 0.0516812 0.559411 0
482 1 0.056943 0.584741 0
513 1 0.071974 0.566842 0
485 1 0.0863876 0.549041 0
484 1 0.0919971 0.573145 0
486 1 0.106969 0.554927 0
514 1 0.0778483 0.590193 0
515 1 0.112818 0.578482 0
487 1 0.127153 0.561466 0
517 1 0.131818 0.585817 0
488 1 0.146797 0.56816 0
489 1 0.161951 0.549983 0
490 1 0.167138 0.574994 0
491 1 0.181248 0.557687 0
521 1 0.186832 0.582267 0
492 1 0.201192 0.563951 0
523 1 0.206484 0.588289 0
493 1 0.215644 0.54594 0
494 1 0.221145 0.570384 0
495 1 0.236258 0.552494 0
525 1 0.241294 0.576353 0
496 1 0.25593 0.559962 0
526 1 0.261633 0.584265 0
527 1 0.276071 0.565471 0
528 1 0.281288 0.589444 0
498 1 0.291656 0.546854 0
529 1 0.295834 0.571376 0
500 1 0.310984 0.553646 0
530 1 0.31604 0.57781 0
531 1 0.331165 0.559189 0
532 1 0.336149 0.585929 0
533 1 0.350123 0.566578 0
502 1 0.36606 0.549975 0
534 1 0.369575 0.574361 0
504 1 0.385838 0.556457 0
535 1 0.390067 0.580623 0
508 1 0.405301 0.562699 0
537 1 0.409838 0.587137 0
539 1 0.425077 0.569813 0
540 1 0.44077 0.550036 0
569 1 0.445209 0.575425 0
1441 1 0.460086 0.557308 0
1413 1 0.494647 0.54687 0
1443 1 0.483981 0.587583 0
1442 1 0.46493 0.581435 0
1412 1 0.479761 0.564004 0
1414 1 0.499089 0.571077 0
1439 1 0.0228812 0.594665 0
1440 1 0.0237389 0.621209 0
1438 1 0.00485002 0.606462 0
1469 1 0.000237984 0.631835 0
511 1 0.042273 0.602726 0
541 1 0.0489766 0.626131 0
512 1 0.0636962 0.608678 0
542 1 0.0689748 0.633324 0
543 1 0.0832649 0.614536 0
545 1 0.0981639 0.597335 0
546 1 0.10331 0.620812 0
516 1 0.118289 0.603844 0
547 1 0.12318 0.628376 0
518 1 0.137705 0.611112 0
577 1 0.14276 0.634663 0
519 1 0.151897 0.592798 0
548 1 0.157846 0.616826 0
520 1 0.172272 0.599717 0
549 1 0.177063 0.624146 0
522 1 0.192562 0.605563 0
551 1 0.197424 0.631059 0
553 1 0.212406 0.613856 0
524 1 0.226618 0.595564 0
554 1 0.232082 0.619279 0
555 1 0.24664 0.601808 0
556 1 0.25247 0.626108 0
557 1 0.267094 0.607319 0
587 1 0.272229 0.632081 0
558 1 0.287072 0.613531 0
559 1 0.301283 0.594335 0
560 1 0.306689 0.620244 0
561 1 0.321487 0.602321 0
591 1 0.326478 0.627592 0
562 1 0.342239 0.609992 0
564 1 0.345874 0.635268 0
563 1 0.355543 0.592618 0
565 1 0.361542 0.617116 0
536 1 0.375746 0.599305 0
566 1 0.381401 0.624549 0
567 1 0.39513 0.605079 0
597 1 0.40101 0.630583 0
568 1 0.414578 0.611847 0
599 1 0.421057 0.635996 0
538 1 0.430473 0.593737 0
600 1 0.435172 0.617346 0
570 1 0.45004 0.599944 0
1501 1 0.455917 0.624097 0
1471 1 0.469865 0.607335 0
1472 1 0.476211 0.630943 0
1473 1 0.490152 0.613345 0
1529 1 0.0108811 0.673809 0
1470 1 0.0343703 0.642441 0
1500 1 0.0302396 0.666268 0
1499 1 0.0150705 0.649677 0
571 1 0.0531497 0.65134 0
572 1 0.0614317 0.674195 0
573 1 0.0749926 0.657159 0
544 1 0.0888377 0.638171 0
574 1 0.0945414 0.664397 0
575 1 0.108362 0.645859 0
605 1 0.114449 0.671732 0
576 1 0.127302 0.652526 0
607 1 0.134266 0.678289 0
578 1 0.148004 0.659855 0
579 1 0.162296 0.641566 0
609 1 0.167932 0.665446 0
550 1 0.183363 0.648899 0
580 1 0.188648 0.672946 0
581 1 0.203779 0.655678 0
611 1 0.209117 0.679705 0
552 1 0.218258 0.638056 0
582 1 0.223929 0.66194 0
583 1 0.237662 0.642908 0
584 1 0.243469 0.667659 0
585 1 0.257548 0.649544 0
615 1 0.263933 0.674735 0
586 1 0.276946 0.656703 0
589 1 0.292088 0.639385 0
588 1 0.296854 0.663191 0
590 1 0.312283 0.645715 0
621 1 0.316841 0.67029 0
593 1 0.331901 0.65195 0
592 1 0.337386 0.677363 0
594 1 0.351319 0.659811 0
595 1 0.365766 0.641965 0
625 1 0.37205 0.665821 0
596 1 0.386764 0.648914 0
627 1 0.392775 0.67264 0
598 1 0.406605 0.654578 0
657 1 0.413409 0.678224 0
628 1 0.427282 0.660371 0
629 1 0.440716 0.641841 0
630 1 0.447284 0.665634 0
1502 1 0.461657 0.647766 0
1474 1 0.496085 0.637545 0
1503 1 0.481503 0.654039 0
1533 1 0.467023 0.672845 0
1504 1 0.485969 0.678971 0
1559 1 0.00501651 0.698857 0
1530 1 0.0246335 0.69143 0
1560 1 0.0212133 0.716267 0
1558 1 0.000607824 0.724137 0
631 1 0.0404666 0.71013 0
601 1 0.0444746 0.685324 0
602 1 0.0617925 0.699687 0
632 1 0.0568662 0.724678 0
603 1 0.0797619 0.682948 0
633 1 0.0828726 0.708176 0
604 1 0.0998849 0.689243 0
635 1 0.103696 0.714378 0
606 1 0.119372 0.695399 0
636 1 0.124026 0.718977 0
637 1 0.139501 0.701795 0
608 1 0.153777 0.684126 0
638 1 0.159594 0.708542 0
639 1 0.173616 0.689843 0
667 1 0.14431 0.725316 0
641 1 0.179347 0.713801 0
610 1 0.194315 0.697353 0
642 1 0.199794 0.721688 0
612 1 0.214362 0.7035 0
613 1 0.229843 0.685905 0
643 1 0.234776 0.71091 0
614 1 0.25001 0.693208 0
617 1 0.282711 0.682552 0
645 1 0.254268 0.71798 0
616 1 0.268864 0.700779 0
647 1 0.273377 0.726099 0
618 1 0.287972 0.706792 0
619 1 0.30233 0.687653 0
620 1 0.308417 0.713526 0
622 1 0.322294 0.694915 0
651 1 0.327567 0.718627 0
653 1 0.342593 0.701297 0
654 1 0.34798 0.725221 0
623 1 0.356906 0.683469 0
624 1 0.363375 0.707735 0
626 1 0.378152 0.690221 0
655 1 0.383875 0.714808 0
656 1 0.397635 0.696415 0
686 1 0.403968 0.720721 0
658 1 0.417903 0.702975 0
687 1 0.423116 0.727417 0
659 1 0.43318 0.684477 0
660 1 0.437296 0.709258 0
1531 1 0.453435 0.690384 0
1561 1 0.457408 0.715056 0
1532 1 0.472338 0.69776 0
1563 1 0.477346 0.721114 0
1534 1 0.492291 0.703313 0
1619 1 0.0105807 0.763712 0
1589 1 0.0163116 0.740019 0
1590 1 0.0313219 0.757186 0
661 1 0.0367815 0.73379 0
663 1 0.0511525 0.750155 0
662 1 0.0666059 0.767513 0
664 1 0.0710278 0.741903 0
695 1 0.0870581 0.758464 0
634 1 0.0901524 0.733271 0
665 1 0.110218 0.738276 0
697 1 0.115839 0.761809 0
666 1 0.130115 0.743301 0
668 1 0.135699 0.766474 0
669 1 0.150642 0.749597 0
640 1 0.164936 0.73204 0
670 1 0.170189 0.755385 0
671 1 0.184556 0.738326 0
672 1 0.191227 0.76251 0
673 1 0.205786 0.745628 0
644 1 0.219638 0.728883 0
674 1 0.225154 0.753228 0
675 1 0.23977 0.73592 0
705 1 0.245241 0.761225 0
646 1 0.259664 0.742772 0
677 1 0.265233 0.768158 0
648 1 0.278666 0.749935 0
649 1 0.293302 0.73129 0
679 1 0.298693 0.755912 0
650 1 0.312922 0.73725 0
681 1 0.318613 0.761504 0
652 1 0.332665 0.743652 0
682 1 0.338348 0.768032 0
683 1 0.353209 0.749118 0
685 1 0.36837 0.731089 0
684 1 0.373275 0.755351 0
715 1 0.388547 0.737936 0
714 1 0.393619 0.76313 0
717 1 0.408497 0.745203 0
716 1 0.412973 0.768824 0
688 1 0.428822 0.751052 0
689 1 0.443282 0.732657 0
719 1 0.448978 0.756678 0
690 1 0.463521 0.738585 0
1565 1 0.497361 0.728452 0
1591 1 0.468229 0.76315 0
1562 1 0.482931 0.746491 0
1593 1 0.488615 0.770402 0
1620 1 0.0261189 0.780543 0
1649 1 0.020251 0.806493 0
1618 1 0.00626113 0.787992 0
691 1 0.0460306 0.773706 0
721 1 0.0403017 0.799108 0
693 1 0.0607062 0.791335 0
692 1 0.0550817 0.81586 0
723 1 0.0747059 0.809363 0
694 1 0.0804815 0.78443 0
725 1 0.0937875 0.80317 0
696 1 0.100677 0.777847 0
727 1 0.114605 0.796442 0
728 1 0.127899 0.814681 0
698 1 0.134792 0.790496 0
700 1 0.147267 0.808911 0
699 1 0.153928 0.775946 0
731 1 0.164406 0.79764 0
701 1 0.176792 0.778439 0
703 1 0.209504 0.772109 0
702 1 0.196231 0.790052 0
763 1 0.201195 0.814694 0
732 1 0.18224 0.809481 0
733 1 0.21565 0.79674 0
704 1 0.229437 0.777724 0
706 1 0.235058 0.802731 0
676 1 0.250423 0.785676 0
737 1 0.255999 0.809423 0
707 1 0.270678 0.791835 0
738 1 0.276439 0.816674 0
678 1 0.284901 0.775056 0
708 1 0.290432 0.798196 0
709 1 0.304491 0.780809 0
710 1 0.310246 0.804506 0
680 1 0.324136 0.786006 0
741 1 0.330631 0.811153 0
711 1 0.344682 0.792394 0
742 1 0.350982 0.816861 0
713 1 0.359293 0.773806 0
712 1 0.364998 0.798537 0
743 1 0.379763 0.780263 0
745 1 0.384442 0.805106 0
746 1 0.398559 0.787392 0
775 1 0.404627 0.810877 0
747 1 0.418729 0.79334 0
718 1 0.433902 0.775185 0
749 1 0.439296 0.799974 0
720 1 0.45348 0.781373 0
1621 1 0.459203 0.806344 0
1623 1 0.493684 0.796158 0
1592 1 0.474147 0.788328 0
1622 1 0.479011 0.813708 0
1650 1 0.0343344 0.823607 0
1709 1 0.030137 0.848342 0
1679 1 0.0148041 0.831241 0
1678 1 0.0100829 0.854671 0
1680 1 0.0492968 0.840039 0
752 1 0.0649159 0.85713 0
751 1 0.0697362 0.833729 0
753 1 0.0845545 0.851501 0
722 1 0.0892406 0.826971 0
724 1 0.104159 0.844982 0
726 1 0.108385 0.820327 0
757 1 0.124326 0.839333 0
756 1 0.139477 0.856485 0
755 1 0.119795 0.862697 0
729 1 0.143621 0.832384 0
759 1 0.158933 0.848091 0
730 1 0.164833 0.822351 0
761 1 0.185581 0.835296 0
792 1 0.192173 0.859573 0
762 1 0.205375 0.840514 0
735 1 0.222097 0.821221 0
734 1 0.226357 0.845661 0
736 1 0.241246 0.827068 0
765 1 0.247078 0.851372 0
767 1 0.261371 0.834412 0
766 1 0.267907 0.859129 0
768 1 0.282154 0.841325 0
739 1 0.296419 0.82276 0
769 1 0.30221 0.847444 0
740 1 0.316352 0.82889 0
770 1 0.322201 0.852729 0
771 1 0.336931 0.835618 0
801 1 0.341989 0.86023 0
773 1 0.356889 0.843031 0
744 1 0.371034 0.824395 0
803 1 0.376207 0.848328 0
774 1 0.391196 0.828725 0
748 1 0.42426 0.818313 0
776 1 0.396733 0.853863 0
777 1 0.410349 0.836117 0
778 1 0.416865 0.860856 0
779 1 0.431068 0.842094 0
750 1 0.444817 0.824521 0
780 1 0.450622 0.849737 0
1651 1 0.46475 0.830321 0
1652 1 0.470507 0.855761 0
1653 1 0.484685 0.837597 0
1683 1 0.490551 0.861457 0
1710 1 0.0240362 0.872335 0
1739 1 0.0188117 0.896678 0
1708 1 0.00447062 0.879821 0
811 1 0.0394973 0.889101 0
781 1 0.0448269 0.86573 0
782 1 0.0595459 0.881957 0
812 1 0.0538462 0.905721 0
813 1 0.0740819 0.901044 0
783 1 0.0789852 0.875805 0
784 1 0.0939342 0.893331 0
754 1 0.0993052 0.868929 0
785 1 0.113926 0.886522 0
786 1 0.128552 0.905022 0
787 1 0.133941 0.880553 0
788 1 0.148191 0.898203 0
758 1 0.153581 0.874114 0
760 1 0.172689 0.866627 0
789 1 0.16818 0.890825 0
764 1 0.212512 0.863615 0
791 1 0.188312 0.883623 0
790 1 0.182755 0.908647 0
823 1 0.202895 0.902625 0
793 1 0.218488 0.886724 0
795 1 0.232621 0.868407 0
794 1 0.237793 0.893136 0
796 1 0.25249 0.876035 0
825 1 0.259128 0.899364 0
827 1 0.272736 0.882791 0
826 1 0.27807 0.907341 0
797 1 0.287838 0.865222 0
798 1 0.29243 0.88965 0
799 1 0.307842 0.872064 0
829 1 0.313369 0.897071 0
800 1 0.327163 0.878616 0
831 1 0.333118 0.902173 0
802 1 0.347317 0.884535 0
772 1 0.36193 0.866716 0
804 1 0.36815 0.891457 0
805 1 0.382101 0.872594 0
806 1 0.387827 0.896978 0
807 1 0.402034 0.877756 0
837 1 0.407242 0.903887 0
808 1 0.422045 0.885946 0
809 1 0.436031 0.86872 0
810 1 0.442237 0.892499 0
1681 1 0.456152 0.874265 0
1711 1 0.4616 0.899334 0
1684 1 0.496717 0.885693 0
1682 1 0.476543 0.880055 0
1713 1 0.481255 0.904387 0
1740 1 0.0338953 0.913748 0
1769 1 0.027959 0.939153 0
1738 1 0.0138133 0.920719 0
1768 1 0.00825741 0.944663 0
841 1 0.04777 0.931638 0
842 1 0.063473 0.949273 0
843 1 0.0678297 0.924267 0
844 1 0.0833346 0.942864 0
814 1 0.0884892 0.918044 0
845 1 0.103098 0.936058 0
815 1 0.10823 0.911219 0
846 1 0.117405 0.953608 0
816 1 0.122513 0.929197 0
847 1 0.137849 0.946551 0
817 1 0.142667 0.922753 0
818 1 0.157933 0.93905 0
819 1 0.163007 0.91561 0
820 1 0.177297 0.93266 0
851 1 0.191795 0.949786 0
821 1 0.197621 0.925878 0
822 1 0.211298 0.943326 0
824 1 0.222517 0.912324 0
853 1 0.231328 0.935787 0
855 1 0.245285 0.91728 0
854 1 0.250181 0.944277 0
856 1 0.264498 0.925295 0
885 1 0.270776 0.94997 0
857 1 0.28436 0.931823 0
828 1 0.298256 0.913745 0
859 1 0.303735 0.938735 0
830 1 0.319156 0.920548 0
833 1 0.352773 0.909124 0
860 1 0.324711 0.944841 0
832 1 0.339235 0.926877 0
861 1 0.34425 0.951629 0
863 1 0.35974 0.933475 0
834 1 0.372611 0.91533 0
865 1 0.379369 0.940318 0
835 1 0.393091 0.922255 0
836 1 0.398947 0.946061 0
838 1 0.414033 0.928096 0
867 1 0.418655 0.952873 0
839 1 0.426836 0.909936 0
869 1 0.433434 0.935456 0
840 1 0.447397 0.917125 0
1741 1 0.453187 0.941769 0
1743 1 0.487467 0.928045 0
1712 1 0.467709 0.923998 0
1742 1 0.473774 0.948193 0
1744 1 0.493632 0.953881 0
1799 1 0.0233331 0.962861 0
1798 1 0.0175777 0.987581 0
1797 1 0.0031669 0.968833 0
1800 1 0.037484 0.980943 0
1770 1 0.0435699 0.955838 0
871 1 0.0571131 0.973938 0
1 1 0.0515667 0.99842 0
872 1 0.0721418 0.991442 0
873 1 0.0776376 0.967026 0
874 1 0.0921402 0.984339 0
875 1 0.0970858 0.96049 0
876 1 0.112797 0.977254 0
7 1 0.12699 0.99546 0
877 1 0.132474 0.971405 0
878 1 0.147546 0.989046 0
848 1 0.152364 0.96415 0
849 1 0.171905 0.957128 0
879 1 0.166829 0.98174 0
850 1 0.186718 0.974851 0
11 1 0.201051 0.99215 0
852 1 0.206185 0.967491 0
881 1 0.181573 0.999478 0
883 1 0.226069 0.960142 0
882 1 0.220013 0.985609 0
884 1 0.239742 0.978864 0
886 1 0.257783 0.968973 0
16 1 0.259261 0.994484 0
17 1 0.276403 0.97556 0
18 1 0.281145 0.999745 0
887 1 0.290017 0.958116 0
888 1 0.29657 0.981692 0
858 1 0.310804 0.963767 0
889 1 0.316139 0.989398 0
891 1 0.33046 0.969752 0
890 1 0.336384 0.994015 0
862 1 0.350759 0.976171 0
864 1 0.364124 0.957543 0
893 1 0.370403 0.982727 0
895 1 0.38452 0.964232 0
896 1 0.390174 0.98843 0
866 1 0.404596 0.971484 0
897 1 0.410344 0.995611 0
868 1 0.424749 0.977853 0
899 1 0.444217 0.984554 0
1771 1 0.459148 0.966528 0
870 1 0.438715 0.959712 0
1774 1 0.499599 0.978119 0
1773 1 0.479612 0.972665 0
1772 1 0.465204 0.990788 0
903 1 0.485043 0.9969 0
904 1 0.511398 0.0264652 0
905 1 0.504932 0.00270986 0
906 1 0.525672 0.00830119 0
935 1 0.53144 0.0348533 0
908 1 0.545116 0.0149229 0
937 1 0.551603 0.0413785 0
939 1 0.565233 0.0216989 0
940 1 0.585298 0.027196 0
941 1 0.579248 0.00249211 0
971 1 0.786277 0.0461215 0
942 1 0.790627 0.0225368 0
944 1 0.805356 0.0397053 0
943 1 0.809706 0.0146602 0
945 1 0.824459 0.0318878 0
914 1 0.829016 0.00727194 0
947 1 0.844349 0.0258883 0
916 1 0.849398 0.00144855 0
918 1 0.863395 0.0190517 0
949 1 0.878915 0.0352177 0
919 1 0.88496 0.0109895 0
948 1 0.859471 0.0437297 0
920 1 0.898899 0.0291578 0
1790 1 0.905135 0.00394425 0
951 1 0.919135 0.0214493 0
952 1 0.934159 0.0395955 0
922 1 0.938775 0.0149105 0
953 1 0.95388 0.0324819 0
924 1 0.958858 0.00811035 0
955 1 0.973159 0.0266002 0
925 1 0.978561 0.000824454 0
926 1 0.993232 0.0199796 0
956 1 0.988347 0.0441548 0
963 1 0.502378 0.070542 0
934 1 0.516841 0.0523024 0
965 1 0.522625 0.0769943 0
936 1 0.53715 0.059198 0
966 1 0.542659 0.084353 0
967 1 0.556535 0.0644716 0
968 1 0.562106 0.0906277 0
938 1 0.571661 0.046689 0
969 1 0.57657 0.0715863 0