ITEM: TIMESTEP
185000
ITEM: NUMBER OF ATOMS
1800
ITEM: BOX BOUNDS pp pp pp
-6.2675649724705949e+00 1.7126756497247251e+02
1.1826529217466231e+00 1.6381734707825530e+02
0.0000000000000000e+00 5.5000000000000000e+00
ITEM: ATOMS id type xs ys zs
2 1 0.041011 0.0191514 0
930 1 0.0195799 0.0260564 0
929 1 0.00321887 0.0089136 0
31 1 0.0360263 0.0437353 0
1 1 0.0248123 0.00247541 0
33 1 0.0576589 0.0365031 0
3 1 0.0633292 0.0113602 0
4 1 0.0798156 0.0270839 0
5 1 0.0856879 0.002755 0
6 1 0.101858 0.0189457 0
8 1 0.12366 0.0103066 0
37 1 0.118155 0.0353393 0
35 1 0.0965244 0.0433822 0
39 1 0.140654 0.0276626 0
880 1 0.145554 0.00405996 0
9 1 0.162093 0.0206923 0
69 1 0.15701 0.0450798 0
40 1 0.17849 0.0373081 0
10 1 0.183969 0.0124813 0
41 1 0.200851 0.0292535 0
12 1 0.205524 0.00344007 0
14 1 0.221949 0.0213177 0
15 1 0.24257 0.0139506 0
45 1 0.239346 0.0384184 0
16 1 0.263804 0.00642881 0
46 1 0.259614 0.0305128 0
47 1 0.289419 0.0260736 0
18 1 0.285811 0.000871138 0
49 1 0.311991 0.0329382 0
19 1 0.30632 0.00932222 0
20 1 0.327458 0.0152879 0
51 1 0.334268 0.039155 0
21 1 0.349543 0.0209186 0
23 1 0.37216 0.0278119 0
892 1 0.365373 0.00284457 0
22 1 0.355907 0.0461214 0
894 1 0.387265 0.00877073 0
24 1 0.394093 0.0328929 0
25 1 0.409225 0.0142284 0
26 1 0.416241 0.0381131 0
27 1 0.431454 0.0186016 0
29 1 0.452986 0.0250325 0
28 1 0.43822 0.0431655 0
898 1 0.446749 0.000801124 0
900 1 0.469207 0.00674401 0
30 1 0.475148 0.0305918 0
901 1 0.490973 0.0135655 0
931 1 0.497422 0.0381617 0
989 1 0.00911779 0.0765802 0
61 1 0.03027 0.0681178 0
960 1 0.0141133 0.0514154 0
62 1 0.0476052 0.0842245 0
32 1 0.0523694 0.0605853 0
63 1 0.0698952 0.0758913 0
34 1 0.0747526 0.0519648 0
65 1 0.0914185 0.0679069 0
36 1 0.113237 0.0602951 0
66 1 0.108315 0.0850615 0
67 1 0.130105 0.0761437 0
38 1 0.13484 0.0514828 0
68 1 0.151567 0.0684667 0
70 1 0.168914 0.0858828 0
71 1 0.174255 0.0614758 0
72 1 0.191475 0.0779574 0
42 1 0.196307 0.0528779 0
73 1 0.212457 0.0709701 0
43 1 0.217889 0.0457116 0
44 1 0.234869 0.0630301 0
105 1 0.230215 0.0878681 0
77 1 0.276522 0.0465788 0
74 1 0.252692 0.0800142 0
75 1 0.255814 0.0551077 0
76 1 0.27419 0.0720865 0
48 1 0.298125 0.0511914 0
79 1 0.301686 0.075864 0
50 1 0.319383 0.0577925 0
81 1 0.323672 0.0821412 0
52 1 0.340254 0.0645138 0
83 1 0.362792 0.0702541 0
82 1 0.346523 0.0885298 0
53 1 0.377523 0.0516244 0
54 1 0.38506 0.0759587 0
55 1 0.400743 0.0572089 0
56 1 0.407575 0.0807735 0
57 1 0.422957 0.0620279 0
58 1 0.445299 0.0677193 0
87 1 0.429461 0.0860774 0
59 1 0.459939 0.0495825 0
89 1 0.466676 0.0736749 0
60 1 0.483075 0.0565924 0
961 1 0.489138 0.0811131 0
990 1 0.025689 0.092518 0
1020 1 0.021497 0.117035 0
1019 1 0.00406588 0.100927 0
121 1 0.0377765 0.133809 0
450 1 0.479815 0.466246 0
91 1 0.0423394 0.109173 0
92 1 0.0591497 0.124727 0
93 1 0.063864 0.100682 0
94 1 0.0809628 0.116133 0
64 1 0.0865203 0.0924135 0
95 1 0.103537 0.109299 0
96 1 0.120164 0.125989 0
125 1 0.0980309 0.134286 0
97 1 0.124604 0.100588 0
98 1 0.142603 0.11806 0
99 1 0.146599 0.0934195 0
100 1 0.164678 0.110654 0
130 1 0.181333 0.127994 0
101 1 0.186891 0.103366 0
102 1 0.202574 0.120235 0
103 1 0.208401 0.0964891 0
104 1 0.225537 0.115226 0
106 1 0.246388 0.10518 0
137 1 0.252788 0.128933 0
107 1 0.26882 0.111466 0
78 1 0.285875 0.0932959 0
108 1 0.275553 0.135011 0
109 1 0.29132 0.117759 0
80 1 0.308218 0.0999938 0
110 1 0.313883 0.12383 0
111 1 0.330002 0.10628 0
141 1 0.336409 0.130264 0
113 1 0.352194 0.112006 0
84 1 0.368469 0.094321 0
112 1 0.374097 0.118893 0
85 1 0.391199 0.100315 0
115 1 0.397155 0.124459 0
86 1 0.414671 0.104333 0
88 1 0.451282 0.092344 0
116 1 0.419649 0.129002 0
117 1 0.43636 0.110795 0
119 1 0.458127 0.116411 0
118 1 0.442151 0.135079 0
90 1 0.473519 0.0981356 0
120 1 0.480066 0.122777 0
991 1 0.496482 0.105049 0
1079 1 0.0106629 0.165591 0
151 1 0.03345 0.159026 0
1050 1 0.0165031 0.141555 0
152 1 0.0500685 0.175643 0
122 1 0.0551337 0.150407 0
153 1 0.0718534 0.16626 0
123 1 0.0766666 0.141929 0
124 1 0.0936531 0.158946 0
126 1 0.116227 0.150786 0
155 1 0.111412 0.174217 0
129 1 0.159409 0.136872 0
157 1 0.132971 0.166113 0
127 1 0.137716 0.142042 0
128 1 0.155678 0.160914 0
159 1 0.178635 0.151357 0
131 1 0.200527 0.157999 0
132 1 0.184243 0.175673 0
135 1 0.237786 0.14753 0
133 1 0.216475 0.140245 0
134 1 0.222622 0.165776 0
165 1 0.244259 0.171689 0
136 1 0.260195 0.154205 0
138 1 0.28257 0.159778 0
167 1 0.266649 0.178386 0
139 1 0.297845 0.142003 0
169 1 0.304347 0.166486 0
140 1 0.320429 0.148358 0
171 1 0.327053 0.173507 0
143 1 0.358264 0.136391 0
142 1 0.342726 0.154217 0
173 1 0.364462 0.160099 0
172 1 0.349081 0.177877 0
114 1 0.380858 0.143667 0
144 1 0.387515 0.166928 0
145 1 0.404463 0.147689 0
146 1 0.409486 0.171893 0
147 1 0.426392 0.15328 0
148 1 0.448443 0.159291 0
177 1 0.43188 0.177179 0
1051 1 0.491521 0.171068 0
149 1 0.463894 0.140612 0
150 1 0.469668 0.164451 0
1021 1 0.486284 0.147028 0
1107 1 0.00121231 0.215487 0
1080 1 0.0282919 0.183755 0
1109 1 0.0229742 0.209106 0
1078 1 0.00700647 0.191526 0
181 1 0.0451982 0.200169 0
183 1 0.0683658 0.192609 0
182 1 0.0533493 0.223578 0
185 1 0.0865806 0.209298 0
154 1 0.0892562 0.183895 0
186 1 0.11453 0.221388 0
156 1 0.107111 0.198985 0
158 1 0.130367 0.202868 0
160 1 0.146919 0.184542 0
189 1 0.152785 0.210406 0
163 1 0.205342 0.182701 0
161 1 0.1681 0.193568 0
191 1 0.175062 0.217735 0
162 1 0.190437 0.200875 0
192 1 0.196472 0.224991 0
193 1 0.211674 0.207088 0
164 1 0.22865 0.190009 0
195 1 0.233973 0.213497 0
166 1 0.251357 0.195242 0
196 1 0.255802 0.220043 0
197 1 0.272505 0.20266 0
168 1 0.288483 0.184195 0
198 1 0.279017 0.227416 0
199 1 0.294431 0.208819 0
170 1 0.310917 0.190511 0
200 1 0.317165 0.214787 0
201 1 0.333362 0.197288 0
202 1 0.338663 0.222237 0
203 1 0.3554 0.204338 0
174 1 0.371037 0.184717 0
233 1 0.361039 0.228695 0
204 1 0.376521 0.210015 0
175 1 0.393211 0.191601 0
205 1 0.399891 0.215324 0
176 1 0.415692 0.19579 0
179 1 0.454796 0.183446 0
207 1 0.421946 0.219878 0
178 1 0.437637 0.202472 0
209 1 0.45977 0.208376 0
180 1 0.475713 0.190487 0
1081 1 0.481363 0.215641 0
1052 1 0.497302 0.196998 0
211 1 0.0373694 0.240952 0
1140 1 0.0207315 0.258757 0
1110 1 0.0158396 0.233662 0
212 1 0.0428866 0.264851 0
213 1 0.0597859 0.248183 0
184 1 0.0755609 0.230501 0
214 1 0.0807033 0.256428 0
215 1 0.0976586 0.238099 0
216 1 0.102812 0.262211 0
217 1 0.120985 0.245243 0
218 1 0.125885 0.269523 0
187 1 0.136144 0.227581 0
188 1 0.141514 0.252834 0
190 1 0.158077 0.234017 0
220 1 0.163811 0.259434 0
221 1 0.179948 0.242107 0
222 1 0.185572 0.266668 0
223 1 0.201956 0.24976 0
194 1 0.217202 0.231595 0
224 1 0.224379 0.256609 0
225 1 0.241009 0.238318 0
226 1 0.247026 0.262267 0
227 1 0.262649 0.24423 0
228 1 0.284849 0.251824 0
257 1 0.26861 0.26963 0
229 1 0.301394 0.23306 0
230 1 0.30663 0.258814 0
231 1 0.322814 0.240512 0
261 1 0.328812 0.265087 0
232 1 0.345076 0.246204 0
234 1 0.367503 0.25237 0
263 1 0.351554 0.269853 0
235 1 0.38273 0.233378 0
265 1 0.389122 0.258627 0
206 1 0.40478 0.239137 0
236 1 0.411242 0.263503 0
208 1 0.444135 0.226878 0
237 1 0.427323 0.244163 0
239 1 0.448654 0.2514 0
238 1 0.433242 0.2697 0
210 1 0.46606 0.233969 0
240 1 0.470443 0.257636 0
1111 1 0.487297 0.241237 0
1112 1 0.493186 0.26447 0
1139 1 0.00448455 0.276577 0
1169 1 0.0114246 0.300446 0
241 1 0.0263678 0.282643 0
271 1 0.032358 0.308712 0
243 1 0.0643028 0.272369 0
242 1 0.0473872 0.291188 0
244 1 0.0691349 0.297838 0
273 1 0.0538784 0.315473 0
245 1 0.0862205 0.27986 0
246 1 0.0913757 0.305015 0
247 1 0.10828 0.285501 0
248 1 0.113399 0.311829 0
249 1 0.130074 0.29377 0
219 1 0.147793 0.276874 0
250 1 0.152528 0.301279 0
253 1 0.207497 0.27351 0
251 1 0.168532 0.284263 0
281 1 0.173976 0.30808 0
252 1 0.191133 0.290169 0
283 1 0.19699 0.314964 0
254 1 0.212769 0.297892 0
255 1 0.23015 0.280467 0
285 1 0.236237 0.304021 0
256 1 0.2521 0.286585 0
287 1 0.25749 0.311316 0
258 1 0.274391 0.294396 0
259 1 0.290524 0.276555 0
289 1 0.296577 0.300914 0
260 1 0.312395 0.283207 0
291 1 0.318281 0.307157 0
262 1 0.335647 0.287895 0
293 1 0.357099 0.295349 0
292 1 0.340541 0.313826 0
264 1 0.374029 0.277658 0
294 1 0.362042 0.320455 0
295 1 0.378703 0.302657 0
266 1 0.395994 0.282804 0
297 1 0.400877 0.308381 0
267 1 0.417758 0.289309 0
268 1 0.439697 0.294841 0
298 1 0.423175 0.313388 0
269 1 0.454862 0.275721 0
270 1 0.461033 0.299983 0
1141 1 0.476436 0.282516 0
300 1 0.482371 0.308583 0
1200 1 0.0369921 0.332778 0
1229 1 0.0206009 0.350266 0
1170 1 0.0152636 0.325548 0
301 1 0.042608 0.35717 0
272 1 0.0592713 0.339812 0
275 1 0.0753891 0.322979 0
274 1 0.0813249 0.347898 0
303 1 0.0637367 0.364807 0
276 1 0.0978401 0.329943 0
305 1 0.103767 0.354201 0
277 1 0.120259 0.336106 0
307 1 0.125181 0.360274 0
279 1 0.136218 0.318655 0
278 1 0.141494 0.342884 0
280 1 0.157893 0.325543 0
311 1 0.164444 0.350827 0
282 1 0.180198 0.333456 0
312 1 0.186891 0.357946 0
313 1 0.203192 0.340599 0
284 1 0.219277 0.32235 0
315 1 0.224299 0.34701 0
286 1 0.241126 0.328766 0
316 1 0.246839 0.352745 0
288 1 0.2798 0.317822 0
317 1 0.262975 0.336403 0
319 1 0.284934 0.34201 0
318 1 0.26998 0.360429 0
290 1 0.301872 0.324917 0
320 1 0.30809 0.349059 0
321 1 0.323782 0.331663 0
322 1 0.330064 0.355956 0
323 1 0.345584 0.338727 0
325 1 0.368283 0.344031 0
324 1 0.350918 0.362473 0
296 1 0.384349 0.326715 0
326 1 0.390768 0.351013 0
327 1 0.407019 0.332588 0
328 1 0.413311 0.356392 0
299 1 0.444732 0.319408 0
329 1 0.429404 0.337711 0
359 1 0.451069 0.344769 0
358 1 0.435626 0.362496 0
330 1 0.466603 0.326242 0
360 1 0.474274 0.350073 0
1201 1 0.490147 0.332042 0
1231 1 0.497432 0.35642 0
1230 1 0.0263238 0.374241 0
331 1 0.0316783 0.398794 0
1260 1 0.00960922 0.391686 0
1259 1 0.00462615 0.367092 0
302 1 0.0482855 0.381545 0
333 1 0.0698832 0.388889 0
332 1 0.0536488 0.406487 0
304 1 0.0863734 0.371527 0
335 1 0.0921535 0.395721 0
306 1 0.1089 0.378725 0
337 1 0.113964 0.403034 0
308 1 0.130287 0.38548 0
309 1 0.146846 0.367467 0
339 1 0.153294 0.392601 0
310 1 0.169967 0.374619 0
341 1 0.175657 0.399324 0
343 1 0.192653 0.382465 0
342 1 0.197628 0.406053 0
314 1 0.208736 0.364685 0
344 1 0.215018 0.388796 0
345 1 0.231915 0.370651 0
346 1 0.236877 0.395487 0
347 1 0.253962 0.377417 0
377 1 0.258506 0.402045 0
348 1 0.276351 0.385002 0
349 1 0.291404 0.366824 0
350 1 0.298111 0.391904 0
351 1 0.312928 0.372767 0
381 1 0.319595 0.398844 0
353 1 0.334687 0.380725 0
354 1 0.357844 0.386401 0
352 1 0.341533 0.405573 0
355 1 0.374929 0.368109 0
356 1 0.379951 0.392577 0
357 1 0.397404 0.375517 0
386 1 0.403311 0.399646 0
387 1 0.419731 0.379984 0
389 1 0.441348 0.386999 0
388 1 0.42522 0.404698 0
1232 1 0.457108 0.369475 0
1262 1 0.48007 0.374847 0
1261 1 0.463115 0.39334 0
1293 1 0.485366 0.399534 0
361 1 0.0368192 0.423755 0
391 1 0.0204809 0.441003 0
1290 1 0.0151587 0.416201 0
362 1 0.041117 0.447759 0
363 1 0.0588805 0.431325 0
334 1 0.075581 0.413066 0
365 1 0.0807894 0.437982 0
364 1 0.0635013 0.45567 0
336 1 0.0971973 0.419656 0
366 1 0.103024 0.444854 0
367 1 0.119742 0.426766 0
338 1 0.136878 0.410002 0
368 1 0.125801 0.451415 0
369 1 0.142943 0.433843 0
340 1 0.158681 0.416885 0
370 1 0.164815 0.440609 0
371 1 0.180961 0.42347 0
401 1 0.187568 0.447433 0
372 1 0.202866 0.430771 0
373 1 0.219431 0.413602 0
374 1 0.226194 0.438119 0
375 1 0.24236 0.420658 0
405 1 0.248262 0.445339 0
378 1 0.280899 0.410322 0
376 1 0.264369 0.427263 0
409 1 0.287246 0.435456 0
407 1 0.270491 0.452386 0
379 1 0.303959 0.417113 0
380 1 0.309155 0.44165 0
382 1 0.325525 0.423736 0
413 1 0.330707 0.448047 0
385 1 0.363875 0.411426 0
383 1 0.347643 0.429684 0
414 1 0.370981 0.435236 0
384 1 0.386858 0.417432 0
415 1 0.392783 0.442556 0
417 1 0.409291 0.423697 0
416 1 0.414483 0.449154 0
419 1 0.44621 0.411543 0
418 1 0.431029 0.43066 0
390 1 0.453212 0.43605 0
447 1 0.436784 0.455071 0
1292 1 0.491368 0.424951 0
1291 1 0.468945 0.417705 0
1321 1 0.47484 0.441727 0
1322 1 0.49703 0.448309 0
421 1 0.0084083 0.48291 0
392 1 0.0248291 0.464629 0
422 1 0.0312949 0.490329 0
1320 1 0.00321648 0.458174 0
393 1 0.0472926 0.472871 0
394 1 0.0691868 0.47957 0
423 1 0.0534751 0.496312 0
395 1 0.0860284 0.461803 0
396 1 0.0915419 0.487003 0
397 1 0.108498 0.470434 0
427 1 0.113896 0.494851 0
398 1 0.130095 0.475393 0
399 1 0.147321 0.457323 0
429 1 0.15232 0.481458 0
428 1 0.135903 0.49876 0
403 1 0.209237 0.45486 0
400 1 0.169894 0.46451 0
431 1 0.175419 0.487834 0
402 1 0.193443 0.471589 0
432 1 0.197584 0.495754 0
433 1 0.215544 0.479722 0
404 1 0.231366 0.462574 0
435 1 0.237949 0.487252 0
406 1 0.253318 0.468859 0
436 1 0.258646 0.494315 0
408 1 0.27499 0.476979 0
410 1 0.292746 0.459532 0
441 1 0.296938 0.484379 0
411 1 0.314159 0.466845 0
440 1 0.319976 0.491294 0
412 1 0.35427 0.45407 0
442 1 0.337409 0.472681 0
473 1 0.359643 0.479097 0
471 1 0.343166 0.496745 0
443 1 0.375834 0.461592 0
444 1 0.381827 0.485094 0
445 1 0.398073 0.4682 0
475 1 0.403676 0.492042 0
448 1 0.441819 0.480325 0
446 1 0.419985 0.473223 0
477 1 0.425624 0.4981 0
420 1 0.458252 0.461253 0
449 1 0.463385 0.485957 0
1351 1 0.486387 0.490088 0
1171 1 0.498376 0.289269 0
453 1 0.0362496 0.515171 0
452 1 0.0202883 0.531786 0
451 1 0.014634 0.506293 0
454 1 0.0414036 0.53949 0
424 1 0.0585668 0.521887 0
425 1 0.0755643 0.505466 0
455 1 0.080371 0.529483 0
426 1 0.097413 0.512131 0
456 1 0.102719 0.536293 0
457 1 0.119735 0.519346 0
458 1 0.125066 0.542701 0
459 1 0.143246 0.521332 0
430 1 0.15969 0.50502 0
460 1 0.165072 0.529305 0
461 1 0.181756 0.513211 0
462 1 0.186623 0.53724 0
463 1 0.203593 0.520038 0
493 1 0.208034 0.544438 0
434 1 0.220304 0.503585 0
464 1 0.224857 0.528455 0
465 1 0.241781 0.511686 0
466 1 0.247447 0.536056 0
437 1 0.264178 0.518963 0
467 1 0.286594 0.525641 0
497 1 0.270087 0.543564 0
439 1 0.280404 0.501407 0
438 1 0.303932 0.508542 0
468 1 0.309427 0.53346 0
469 1 0.326095 0.516201 0
499 1 0.331443 0.540243 0
470 1 0.348294 0.52222 0
472 1 0.36537 0.504304 0
503 1 0.369873 0.529266 0
474 1 0.386828 0.51137 0
505 1 0.393117 0.536471 0
476 1 0.4094 0.515943 0
506 1 0.415415 0.541139 0
507 1 0.431036 0.522771 0
478 1 0.447526 0.504063 0
480 1 0.454131 0.528025 0
509 1 0.437987 0.54601 0
479 1 0.470471 0.509763 0
510 1 0.476196 0.533805 0
1381 1 0.492477 0.514737 0
1411 1 0.499198 0.53894 0
482 1 0.0295454 0.580877 0
483 1 0.024367 0.556831 0
1410 1 0.00722988 0.572449 0
481 1 0.00311508 0.548538 0
513 1 0.0456621 0.563021 0
485 1 0.0628938 0.546078 0
484 1 0.0676726 0.571517 0
514 1 0.0509206 0.589372 0
486 1 0.0838914 0.554839 0
515 1 0.0905494 0.579532 0
487 1 0.10669 0.562185 0
489 1 0.147822 0.545448 0
488 1 0.129196 0.567714 0
490 1 0.151705 0.568801 0
491 1 0.169352 0.552615 0
521 1 0.172773 0.577173 0
492 1 0.191528 0.56236 0
523 1 0.194522 0.585384 0
494 1 0.213368 0.569301 0
495 1 0.230475 0.552397 0
525 1 0.234935 0.576868 0
496 1 0.252197 0.559726 0
526 1 0.256335 0.585637 0
527 1 0.273934 0.569112 0
498 1 0.29191 0.55138 0
529 1 0.296446 0.577919 0
500 1 0.313938 0.55755 0
530 1 0.318727 0.584145 0
501 1 0.353327 0.547701 0
531 1 0.335687 0.566234 0
533 1 0.359634 0.570792 0
532 1 0.34248 0.590338 0
502 1 0.376127 0.553267 0
534 1 0.381957 0.578951 0
504 1 0.399223 0.560517 0
535 1 0.405618 0.583787 0
508 1 0.421906 0.565175 0
537 1 0.42834 0.589123 0
539 1 0.445376 0.570961 0
1442 1 0.489248 0.582884 0
540 1 0.461032 0.5527 0
569 1 0.466954 0.576969 0
1441 1 0.483317 0.558506 0
512 1 0.0330518 0.605563 0
542 1 0.0370552 0.629621 0
541 1 0.0145905 0.622027 0
511 1 0.0114314 0.596293 0
543 1 0.0552665 0.613291 0
545 1 0.0731198 0.595656 0
546 1 0.0765241 0.621345 0
517 1 0.112806 0.588819 0
516 1 0.0947342 0.605068 0
547 1 0.0974434 0.631281 0
518 1 0.11631 0.616211 0
520 1 0.154862 0.592361 0
519 1 0.134849 0.602064 0
548 1 0.138228 0.627455 0
549 1 0.157572 0.615773 0
522 1 0.176181 0.601359 0
551 1 0.178013 0.626076 0
553 1 0.197544 0.610086 0
552 1 0.199563 0.634695 0
524 1 0.216011 0.593922 0
554 1 0.218256 0.618753 0
555 1 0.237373 0.601495 0
556 1 0.23971 0.627657 0
557 1 0.258314 0.611833 0
528 1 0.279358 0.59566 0
558 1 0.278951 0.621745 0
587 1 0.259791 0.638102 0
559 1 0.301098 0.603291 0
561 1 0.325447 0.607292 0
560 1 0.299578 0.631048 0
562 1 0.348886 0.613916 0
563 1 0.364824 0.596052 0
565 1 0.374528 0.619098 0
536 1 0.390279 0.602389 0
566 1 0.397524 0.627335 0
567 1 0.412863 0.607827 0
568 1 0.435138 0.613865 0
597 1 0.419585 0.633504 0
538 1 0.451017 0.59533 0
600 1 0.458053 0.619712 0
570 1 0.47428 0.601083 0
1501 1 0.480924 0.625511 0
1471 1 0.496409 0.605806 0
573 1 0.0400724 0.653534 0
572 1 0.0211252 0.67006 0
571 1 0.0182884 0.646162 0
603 1 0.0421881 0.677586 0
544 1 0.0585065 0.637572 0
575 1 0.0797253 0.645829 0
574 1 0.0611186 0.661637 0
605 1 0.082253 0.671177 0
577 1 0.119264 0.640884 0
576 1 0.100402 0.65627 0
578 1 0.121507 0.668495 0
579 1 0.139782 0.652827 0
550 1 0.158777 0.639765 0
580 1 0.161656 0.663752 0
609 1 0.141811 0.67884 0
581 1 0.180706 0.650542 0
611 1 0.182243 0.675081 0
582 1 0.201823 0.659129 0
583 1 0.220296 0.643194 0
584 1 0.222333 0.668623 0
585 1 0.241138 0.653446 0
615 1 0.243024 0.678876 0
586 1 0.261895 0.662429 0
589 1 0.281975 0.647071 0
588 1 0.283237 0.672373 0
590 1 0.302939 0.657822 0
591 1 0.320581 0.643735 0
621 1 0.32338 0.669358 0
619 1 0.303546 0.682383 0
564 1 0.359515 0.638226 0
593 1 0.341717 0.653322 0
594 1 0.364864 0.662155 0
592 1 0.346187 0.67738 0
595 1 0.382209 0.644936 0
625 1 0.387698 0.669484 0
596 1 0.404226 0.651952 0
627 1 0.410644 0.675662 0
599 1 0.443298 0.639058 0
598 1 0.42661 0.657356 0
628 1 0.450233 0.663149 0
657 1 0.434101 0.681547 0
629 1 0.466196 0.64416 0
630 1 0.473202 0.667004 0
1502 1 0.489116 0.649964 0
1533 1 0.49575 0.674049 0
631 1 0.00278854 0.71393 0
602 1 0.0246265 0.705401 0
601 1 0.00705654 0.688992 0
633 1 0.0462881 0.701317 0
604 1 0.0641015 0.686001 0
635 1 0.06621 0.712076 0
634 1 0.0448072 0.725731 0
606 1 0.0841601 0.697251 0
636 1 0.0863327 0.724169 0
607 1 0.10267 0.682587 0
637 1 0.103914 0.708495 0
608 1 0.123319 0.693634 0
638 1 0.125825 0.718008 0
639 1 0.144425 0.703979 0
610 1 0.163703 0.689494 0
641 1 0.165636 0.713946 0
612 1 0.184297 0.699935 0
613 1 0.203511 0.6836 0
643 1 0.205113 0.707833 0
642 1 0.186688 0.725532 0
614 1 0.224303 0.694102 0
645 1 0.225614 0.718878 0
616 1 0.245364 0.703939 0
617 1 0.263547 0.688012 0
647 1 0.266233 0.713896 0
618 1 0.284033 0.697523 0
649 1 0.286697 0.72356 0
620 1 0.304666 0.708963 0
622 1 0.323119 0.69401 0
651 1 0.326544 0.718634 0
653 1 0.342956 0.702808 0
624 1 0.363921 0.710479 0
623 1 0.36795 0.687094 0
654 1 0.3476 0.727546 0
655 1 0.384787 0.716692 0
626 1 0.393677 0.693167 0
686 1 0.406175 0.721228 0
656 1 0.417549 0.700038 0
658 1 0.442326 0.704392 0
687 1 0.428189 0.725641 0
659 1 0.457915 0.686113 0
660 1 0.463922 0.712298 0
1531 1 0.479296 0.692375 0
1561 1 0.487408 0.71719 0
632 1 0.0203081 0.730201 0
664 1 0.0362722 0.747733 0
663 1 0.0147415 0.754921 0
695 1 0.0540249 0.761577 0
665 1 0.0655818 0.737799 0
666 1 0.0874549 0.748101 0
667 1 0.10754 0.733864 0
668 1 0.110166 0.757849 0
697 1 0.0915021 0.771444 0
669 1 0.12814 0.743594 0
640 1 0.145553 0.728741 0
670 1 0.148714 0.75421 0
699 1 0.12956 0.769924 0
671 1 0.167324 0.738931 0
672 1 0.169502 0.765661 0
673 1 0.189106 0.749668 0
644 1 0.207071 0.734475 0
674 1 0.210588 0.758751 0
646 1 0.247015 0.728965 0
675 1 0.228473 0.743716 0
705 1 0.231003 0.769835 0
677 1 0.248811 0.753683 0
648 1 0.268061 0.738159 0
678 1 0.270041 0.76289 0
679 1 0.288468 0.749133 0
650 1 0.307687 0.733811 0
681 1 0.310763 0.758345 0
652 1 0.329631 0.74326 0
682 1 0.33271 0.767542 0
709 1 0.292238 0.77382 0
683 1 0.351752 0.752125 0
685 1 0.368513 0.734901 0
684 1 0.374599 0.758999 0
715 1 0.390986 0.741505 0
714 1 0.398325 0.764679 0
717 1 0.413158 0.745118 0
689 1 0.450626 0.731293 0
688 1 0.434809 0.749996 0
716 1 0.419646 0.769022 0
719 1 0.457952 0.754865 0
690 1 0.473027 0.736245 0
1591 1 0.480049 0.761288 0
1562 1 0.494986 0.742312 0
662 1 0.0314469 0.771922 0
693 1 0.0268095 0.794869 0
691 1 0.00890887 0.778849 0
721 1 0.00407361 0.803689 0
723 1 0.0439458 0.811699 0
694 1 0.0497762 0.787256 0
696 1 0.0704437 0.778573 0
725 1 0.0665325 0.803488 0
727 1 0.0895863 0.795895 0
728 1 0.110047 0.810161 0
698 1 0.110362 0.784039 0
700 1 0.132017 0.794926 0
701 1 0.149974 0.779561 0
731 1 0.152736 0.80713 0
702 1 0.17075 0.790089 0
703 1 0.190575 0.7747 0
733 1 0.193179 0.799077 0
732 1 0.173193 0.815238 0
704 1 0.212347 0.784801 0
735 1 0.214231 0.809706 0
706 1 0.233526 0.795269 0
736 1 0.235583 0.820847 0
676 1 0.25223 0.779243 0
737 1 0.255329 0.80479 0
707 1 0.27375 0.788329 0
738 1 0.276616 0.814238 0
708 1 0.294837 0.798767 0
710 1 0.315553 0.808118 0
680 1 0.315155 0.783418 0
741 1 0.335899 0.816115 0
713 1 0.357633 0.775971 0
711 1 0.33759 0.791996 0
712 1 0.367768 0.801962 0
743 1 0.38252 0.782379 0
745 1 0.390661 0.806347 0
746 1 0.405416 0.787996 0
775 1 0.412506 0.811698 0
718 1 0.442234 0.774015 0
747 1 0.427355 0.792648 0
749 1 0.449128 0.79753 0
748 1 0.435256 0.816635 0
1622 1 0.494915 0.809667 0
720 1 0.46457 0.778868 0
1621 1 0.472671 0.803202 0
1592 1 0.486739 0.784865 0
692 1 0.022012 0.819251 0
751 1 0.037571 0.836203 0
1680 1 0.0157882 0.843176 0
752 1 0.032496 0.859947 0
753 1 0.0552734 0.852578 0
722 1 0.0602449 0.828226 0
724 1 0.0772052 0.844354 0
726 1 0.0823692 0.819963 0
757 1 0.100192 0.835202 0
756 1 0.116261 0.852279 0
755 1 0.0944428 0.859538 0
729 1 0.132275 0.819231 0
759 1 0.137919 0.843732 0
730 1 0.158344 0.834104 0
760 1 0.154011 0.86069 0
761 1 0.175953 0.852454 0
763 1 0.195908 0.823645 0
762 1 0.198648 0.847244 0
734 1 0.218343 0.836158 0
765 1 0.238329 0.848852 0
767 1 0.257561 0.829551 0
766 1 0.261884 0.853817 0
768 1 0.27993 0.83854 0
739 1 0.297569 0.822999 0
769 1 0.300731 0.84863 0
740 1 0.318376 0.83281 0
770 1 0.323269 0.856713 0
742 1 0.356681 0.823251 0
771 1 0.34068 0.840507 0
773 1 0.362996 0.846416 0
744 1 0.37797 0.826581 0
803 1 0.384907 0.851384 0
774 1 0.399215 0.831518 0
776 1 0.40716 0.85565 0
777 1 0.421027 0.836646 0
779 1 0.442846 0.841398 0
778 1 0.428695 0.861501 0
750 1 0.457884 0.82195 0
1651 1 0.4803 0.828449 0
780 1 0.465286 0.846955 0
1652 1 0.487532 0.852211 0
781 1 0.0120186 0.868085 0
782 1 0.0284492 0.885745 0
811 1 0.00628291 0.893374 0
813 1 0.0449938 0.902665 0
783 1 0.0501961 0.876358 0
784 1 0.0664066 0.894021 0
754 1 0.0729618 0.869575 0
785 1 0.0893357 0.885391 0
787 1 0.111348 0.877535 0
786 1 0.105653 0.902912 0
788 1 0.127204 0.894557 0
758 1 0.132664 0.869816 0
789 1 0.149229 0.886344 0
790 1 0.166206 0.902729 0
791 1 0.171028 0.877623 0
823 1 0.187534 0.896263 0
792 1 0.192397 0.87031 0
764 1 0.216001 0.863225 0
793 1 0.209925 0.887446 0
795 1 0.232133 0.881796 0
825 1 0.249278 0.900014 0
794 1 0.226541 0.906313 0
796 1 0.253809 0.875847 0
827 1 0.270087 0.893 0
797 1 0.282532 0.86765 0
798 1 0.292428 0.891914 0
799 1 0.307312 0.872586 0
829 1 0.314403 0.898866 0
800 1 0.329502 0.880987 0
801 1 0.346091 0.863407 0
831 1 0.335996 0.905024 0
802 1 0.351377 0.887588 0
772 1 0.36866 0.86954 0
804 1 0.374591 0.893427 0
805 1 0.391196 0.874475 0
806 1 0.397803 0.898943 0
807 1 0.413113 0.880499 0
809 1 0.450578 0.866064 0
808 1 0.436024 0.8852 0
837 1 0.420023 0.904279 0
810 1 0.457735 0.890011 0
839 1 0.443431 0.909418 0
1681 1 0.472473 0.870886 0
1711 1 0.479713 0.896082 0
1682 1 0.49481 0.877012 0
812 1 0.022898 0.910194 0
843 1 0.040033 0.926669 0
841 1 0.0191049 0.935453 0
842 1 0.0354354 0.952231 0
1740 1 0.00213856 0.918547 0
844 1 0.0567676 0.94437 0
814 1 0.0615654 0.919109 0
845 1 0.0786868 0.936505 0
815 1 0.0835178 0.911591 0
816 1 0.100651 0.928332 0
817 1 0.122886 0.919549 0
847 1 0.116609 0.945241 0
846 1 0.095102 0.953576 0
818 1 0.138989 0.936588 0
819 1 0.144007 0.911237 0
820 1 0.160207 0.92772 0
849 1 0.155898 0.953389 0
851 1 0.176971 0.945404 0
821 1 0.182335 0.920433 0
824 1 0.205157 0.912997 0
822 1 0.198993 0.93758 0
853 1 0.22135 0.930246 0
855 1 0.243239 0.923961 0
854 1 0.236959 0.947784 0
826 1 0.265451 0.917464 0
856 1 0.259434 0.940689 0
857 1 0.282581 0.934175 0
828 1 0.298809 0.917189 0
859 1 0.304116 0.94359 0
830 1 0.321291 0.923315 0
860 1 0.328706 0.947511 0
833 1 0.359513 0.912023 0
832 1 0.343345 0.929406 0
863 1 0.365217 0.935323 0
861 1 0.35038 0.953913 0
834 1 0.381789 0.91674 0
865 1 0.388361 0.940426 0
835 1 0.403638 0.92244 0
836 1 0.410579 0.94562 0
838 1 0.426389 0.928176 0
869 1 0.448864 0.933323 0
867 1 0.433421 0.952388 0
1712 1 0.486975 0.920476 0
1741 1 0.47073 0.939524 0
840 1 0.464946 0.914567 0
1742 1 0.492558 0.944872 0
871 1 0.0298369 0.97686 0
1770 1 0.0137574 0.95935 0
1800 1 0.00866541 0.983829 0
872 1 0.0465329 0.9938 0
873 1 0.0514483 0.969803 0
874 1 0.0680474 0.985597 0
875 1 0.0733573 0.961683 0
876 1 0.0896536 0.978824 0
877 1 0.112048 0.968895 0
7 1 0.107102 0.994176 0
878 1 0.128405 0.986561 0
848 1 0.133516 0.961778 0
879 1 0.150265 0.978417 0
881 1 0.166665 0.995665 0
850 1 0.172593 0.970658 0
11 1 0.18829 0.98692 0
852 1 0.193393 0.962009 0
882 1 0.209651 0.97918 0
883 1 0.215291 0.954657 0
884 1 0.231739 0.972352 0
886 1 0.248331 0.989191 0
13 1 0.226985 0.996361 0
885 1 0.25506 0.965046 0
17 1 0.271123 0.982957 0
887 1 0.279009 0.958698 0
888 1 0.293443 0.977606 0
858 1 0.313447 0.965305 0
889 1 0.317859 0.989217 0
891 1 0.335393 0.972996 0
890 1 0.342106 0.996688 0
862 1 0.35775 0.977583 0
864 1 0.372693 0.95959 0
893 1 0.3804 0.983952 0
895 1 0.395222 0.964938 0
896 1 0.40178 0.990139 0
866 1 0.416896 0.970473 0
870 1 0.455694 0.957404 0
897 1 0.424573 0.99481 0
868 1 0.439095 0.976759 0
899 1 0.461927 0.982029 0
1772 1 0.484603 0.988531 0
1771 1 0.477922 0.963317 0
902 1 0.513187 0.017812 0
933 1 0.520696 0.0424313 0
904 1 0.535657 0.022779 0
906 1 0.550518 0.00402776 0
935 1 0.558261 0.0291695 0
908 1 0.573011 0.010105 0
937 1 0.581321 0.0348481 0
939 1 0.595704 0.0153296 0
938 1 0.604516 0.0409869 0
940 1 0.61789 0.0208703 0
942 1 0.731825 0.0340919 0
912 1 0.737482 0.00919216 0
943 1 0.753609 0.0267833 0
913 1 0.760252 0.00237518 0
914 1 0.776912 0.0196139 0
945 1 0.770827 0.043658 0
947 1 0.792835 0.0358029 0
916 1 0.798694 0.0110535 0
918 1 0.815582 0.0286096 0
917 1 0.820974 0.00355328 0
949 1 0.833177 0.0455198 0
919 1 0.83721 0.0209816 0
920 1 0.854841 0.0382695 0
1790 1 0.860528 0.0137713 0
951 1 0.877238 0.0307793 0
921 1 0.882553 0.00570035 0
922 1 0.899096 0.0229731 0
953 1 0.915597 0.0401738 0
924 1 0.921289 0.0157484 0
955 1 0.93723 0.0328059 0
925 1 0.942753 0.00894779 0
926 1 0.959791 0.0245925 0
957 1 0.976067 0.0422143 0
928 1 0.981018 0.0176014 0
959 1 0.997933 0.0339086 0
927 1 0.964727 0.000627914 0
932 1 0.505425 0.0617933 0
963 1 0.528005 0.0670137 0
962 1 0.511545 0.0856709 0
934 1 0.542195 0.0479211 0
965 1 0.549712 0.072484 0
936 1 0.565107 0.0541519 0
966 1 0.57179 0.0792535 0
967 1 0.587486 0.0603977 0
968 1 0.594456 0.0850093 0
969 1 0.60942 0.0654996 0
971 1 0.727403 0.0585832 0
973 1 0.7434 0.0755978 0
970 1 0.721574 0.0834052 0
944 1 0.748736 0.0511699 0
975 1 0.765787 0.0681024 0
946 1 0.787762 0.060376 0
974 1 0.781812 0.085285 0
976 1 0.805054 0.0770037 0
948 1 0.810692 0.0533505 0
977 1 0.828854 0.0699073 0
979 1 0.850318 0.0625706 0
950 1 0.872189 0.0548028 0
980 1 0.866041 0.0794847 0
978 1 0.844572 0.0873902 0
952 1 0.893541 0.0480529 0
981 1 0.888322 0.0718605 0
983 1 0.910569 0.0653966 0
982 1 0.904645 0.0898338 0
984 1 0.926997 0.0829834 0
954 1 0.932478 0.0566741 0
956 1 0.954864 0.0500522 0
985 1 0.948013 0.0745792 0
987 1 0.969856 0.0671393 0
988 1 0.987046 0.0840277 0
958 1 0.991637 0.0596213 0
986 1 0.965034 0.09163 0
964 1 0.533578 0.0921298 0
992 1 0.502239 0.129915 0
993 1 0.518604 0.109764 0
1023 1 0.524349 0.134223 0
994 1 0.540443 0.117285 0
995 1 0.556176 0.0982906 0
996 1 0.562875 0.122931 0
997 1 0.578441 0.103751 0
1027 1 0.585032 0.129736 0
998 1 0.600743 0.111388 0
1029 1 0.606348 0.136889 0
1000 1 0.62286 0.118813 0
1030 1 0.645351 0.12546 0
999 1 0.660921 0.106023 0
1001 1 0.683513 0.114011 0
1032 1 0.667278 0.132032 0
1002 1 0.705829 0.121661 0
972 1 0.739121 0.100653 0
1033 1 0.755998 0.117871 0
1003 1 0.760102 0.0930474 0
1004 1 0.777564 0.110108 0
1065 1 0.772807 0.13448 0
1035 1 0.795123 0.126924 0
1005 1 0.799445 0.101288 0
1007 1 0.82202 0.0940777 0
1006 1 0.816698 0.118075 0
1008 1 0.838715 0.111437 0
1039 1 0.856204 0.127888 0
1009 1 0.861205 0.103247 0
1037 1 0.834116 0.13642 0
1010 1 0.877881 0.120336 0
1011 1 0.883039 0.0957124 0
1012 1 0.899425 0.114541 0
1043 1 0.91599 0.131107 0
1013 1 0.921942 0.106751 0
1014 1 0.937807 0.12458 0
1015 1 0.943606 0.0997915 0
1017 1 0.960157 0.117166 0
1018 1 0.981592 0.108392 0
1047 1 0.976724 0.133312 0
1022 1 0.508367 0.154007 0
1053 1 0.513751 0.178888 0
1024 1 0.529862 0.160464 0
1025 1 0.54642 0.140988 0
1055 1 0.551544 0.166329 0
1026 1 0.567838 0.14855 0
1057 1 0.574121 0.173029 0
1028 1 0.590595 0.155138 0
1087 1 0.596466 0.178386 0
1058 1 0.613173 0.160344 0
1059 1 0.629126 0.142719 0
1060 1 0.635454 0.16839 0
1061 1 0.650862 0.149712 0
1091 1 0.657126 0.17492 0
1031 1 0.689516 0.138503 0
1062 1 0.673699 0.156063 0
1093 1 0.679124 0.18117 0
1064 1 0.694998 0.163954 0
1063 1 0.711356 0.145252 0
1095 1 0.716789 0.168725 0
1034 1 0.733855 0.151072 0
1066 1 0.737745 0.176092 0
1097 1 0.760297 0.18293 0
1036 1 0.811379 0.144388 0
1067 1 0.828944 0.160894 0
1038 1 0.850967 0.153144 0
1040 1 0.872848 0.143992 0
1069 1 0.868081 0.16959 0
1068 1 0.846466 0.177582 0
1041 1 0.894436 0.138672 0
1071 1 0.889437 0.162432 0
1042 1 0.911634 0.155516 0
1072 1 0.906443 0.179648 0
1073 1 0.928502 0.172778 0
1044 1 0.933094 0.148793 0
1016 1 0.955081 0.141452 0
1045 1 0.950227 0.164564 0
1046 1 0.971924 0.157552 0
1077 1 0.989294 0.174305 0
1048 1 0.993651 0.149145 0
1054 1 0.535365 0.185454 0
1083 1 0.519364 0.202959 0
1082 1 0.50411 0.221099 0
1084 1 0.526288 0.227284 0
1085 1 0.542353 0.209305 0
1056 1 0.557609 0.190113 0
1115 1 0.562949 0.21587 0
1086 1 0.579638 0.197678 0