ITEM: TIMESTEP
214000
ITEM: NUMBER OF ATOMS
1800
ITEM: BOX BOUNDS pp pp pp
-7.4354369666992408e+00 1.7243543696670116e+02
1.1826529217466231e+00 1.6381734707825530e+02
0.0000000000000000e+00 5.5000000000000000e+00
ITEM: ATOMS id type xs ys zs
930 1 0.0246314 0.0216639 0
929 1 0.00806059 0.00466047 0
31 1 0.0410432 0.0377918 0
959 1 0.00285873 0.0289372 0
2 1 0.0466843 0.0138646 0
33 1 0.0628858 0.0311966 0
3 1 0.0675959 0.00591224 0
4 1 0.0846112 0.0230868 0
6 1 0.106171 0.0161716 0
37 1 0.12241 0.0348106 0
35 1 0.100032 0.0409855 0
1108 1 0.000140011 0.248503 0
8 1 0.127187 0.00922024 0
39 1 0.143096 0.0271117 0
9 1 0.164169 0.0195297 0
69 1 0.159882 0.0434965 0
880 1 0.148766 0.00205694 0
40 1 0.181173 0.036691 0
10 1 0.186211 0.0123222 0
41 1 0.203178 0.0289552 0
12 1 0.207635 0.00476395 0
14 1 0.225128 0.0212345 0
15 1 0.246371 0.0114898 0
45 1 0.241658 0.0386309 0
16 1 0.268002 0.00423582 0
46 1 0.261443 0.0284897 0
1351 1 0.481166 0.490929 0
47 1 0.283981 0.0218461 0
49 1 0.311879 0.0354194 0
19 1 0.305462 0.0122988 0
20 1 0.327493 0.0145191 0
51 1 0.333494 0.0390093 0
21 1 0.349113 0.0205907 0
23 1 0.371151 0.0269546 0
892 1 0.363673 0.00285689 0
22 1 0.355524 0.046326 0
894 1 0.386086 0.00943937 0
24 1 0.392848 0.0329613 0
25 1 0.408866 0.0147223 0
26 1 0.41559 0.0385449 0
27 1 0.43076 0.0209975 0
29 1 0.452392 0.0261409 0
898 1 0.445272 0.00261525 0
900 1 0.467931 0.00763437 0
30 1 0.473762 0.0322687 0
901 1 0.489739 0.015091 0
931 1 0.494629 0.0397017 0
960 1 0.0189108 0.0455403 0
989 1 0.014596 0.0705501 0
61 1 0.0356047 0.0629552 0
990 1 0.0311754 0.0885471 0
62 1 0.0520997 0.0798038 0
32 1 0.0578476 0.0556453 0
63 1 0.0739168 0.0740921 0
34 1 0.0788193 0.0484282 0
65 1 0.0947859 0.0658725 0
36 1 0.116848 0.0588634 0
66 1 0.11237 0.0826803 0
64 1 0.0906852 0.0898784 0
67 1 0.133015 0.0761144 0
38 1 0.139016 0.0523797 0
68 1 0.155369 0.0681676 0
70 1 0.171048 0.0855001 0
71 1 0.177027 0.0606484 0
72 1 0.19294 0.0785644 0
42 1 0.198316 0.0537001 0
43 1 0.220217 0.0459881 0
73 1 0.214865 0.0714631 0
44 1 0.236758 0.0632783 0
105 1 0.232425 0.0872915 0
77 1 0.276405 0.0452197 0
74 1 0.263275 0.0853637 0
75 1 0.258659 0.0588697 0
76 1 0.280526 0.0697484 0
48 1 0.296438 0.0526132 0
79 1 0.301802 0.0766772 0
50 1 0.318342 0.0588087 0
81 1 0.323709 0.0823908 0
52 1 0.339874 0.0645725 0
83 1 0.361337 0.0712354 0
82 1 0.345699 0.0882038 0
53 1 0.377144 0.0520859 0
54 1 0.383908 0.076796 0
55 1 0.399638 0.0570218 0
56 1 0.405599 0.0808873 0
28 1 0.437092 0.045678 0
57 1 0.421229 0.0639278 0
58 1 0.442913 0.0693428 0
87 1 0.427783 0.0882442 0
59 1 0.459054 0.0513617 0
89 1 0.46543 0.0762735 0
60 1 0.481433 0.0590388 0
961 1 0.487153 0.0832513 0
1020 1 0.0255918 0.113903 0
1019 1 0.00916643 0.0958137 0
1049 1 0.00386412 0.120595 0
121 1 0.0422596 0.130499 0
91 1 0.0474071 0.105355 0
92 1 0.063343 0.122687 0
93 1 0.0684717 0.0980372 0
94 1 0.0850412 0.114224 0
95 1 0.106061 0.107042 0
96 1 0.122416 0.12397 0
125 1 0.101216 0.131549 0
97 1 0.127967 0.100241 0
98 1 0.144577 0.117007 0
99 1 0.149696 0.0928248 0
129 1 0.161972 0.134078 0
100 1 0.167001 0.109837 0
130 1 0.184029 0.125676 0
101 1 0.187762 0.101751 0
102 1 0.205119 0.118706 0
103 1 0.210408 0.0950567 0
104 1 0.227246 0.11492 0
106 1 0.248475 0.103832 0
137 1 0.254745 0.128357 0
107 1 0.26968 0.110278 0
78 1 0.285424 0.0936734 0
108 1 0.276608 0.134659 0
109 1 0.291321 0.11773 0
80 1 0.307096 0.100289 0
110 1 0.313429 0.124562 0
111 1 0.330149 0.106586 0
141 1 0.335039 0.130401 0
113 1 0.351421 0.111812 0
84 1 0.367301 0.0948346 0
112 1 0.373177 0.118231 0
143 1 0.356944 0.136304 0
85 1 0.390476 0.0998772 0
115 1 0.395143 0.124159 0
86 1 0.411819 0.106629 0
116 1 0.416991 0.13121 0
88 1 0.449775 0.0950964 0
117 1 0.433501 0.113384 0
119 1 0.455337 0.119569 0
90 1 0.471302 0.101424 0
120 1 0.476966 0.126089 0
991 1 0.492908 0.107612 0
992 1 0.498979 0.131755 0
1050 1 0.0209464 0.139078 0
1079 1 0.0161497 0.163074 0
151 1 0.0376199 0.156247 0
1080 1 0.0318071 0.180839 0
152 1 0.0537451 0.173507 0
122 1 0.0586742 0.147963 0
153 1 0.0748342 0.164245 0
123 1 0.0795648 0.139139 0
124 1 0.0966593 0.157455 0
126 1 0.117517 0.147833 0
155 1 0.113657 0.174289 0
154 1 0.0906862 0.181995 0
157 1 0.134078 0.165484 0
127 1 0.140108 0.141234 0
128 1 0.157338 0.160194 0
159 1 0.178322 0.150354 0
131 1 0.200061 0.15576 0
132 1 0.184172 0.173046 0
163 1 0.206171 0.180419 0
135 1 0.23833 0.146506 0
133 1 0.21725 0.1384 0
134 1 0.222145 0.163149 0
165 1 0.243674 0.17047 0
136 1 0.259409 0.152981 0
138 1 0.280948 0.159417 0
167 1 0.265131 0.177127 0
139 1 0.29716 0.142258 0
169 1 0.303131 0.166862 0
140 1 0.319288 0.148564 0
171 1 0.32479 0.172235 0
142 1 0.340784 0.153847 0
173 1 0.362659 0.160789 0
172 1 0.346916 0.178101 0
114 1 0.378033 0.142319 0
144 1 0.385021 0.166268 0
145 1 0.400302 0.148286 0
146 1 0.406885 0.172341 0
118 1 0.439804 0.137372 0
147 1 0.422944 0.155298 0
148 1 0.445527 0.16192 0
177 1 0.429253 0.17938 0
1051 1 0.489259 0.173983 0
149 1 0.461659 0.143677 0
150 1 0.467506 0.166939 0
1021 1 0.483425 0.150383 0
1107 1 0.00367021 0.211846 0
1109 1 0.0256751 0.206678 0
1078 1 0.0103451 0.187742 0
181 1 0.0482201 0.197465 0
183 1 0.0697972 0.191148 0
182 1 0.0553231 0.221118 0
185 1 0.0886069 0.208661 0
186 1 0.115135 0.220351 0
156 1 0.107529 0.197205 0
158 1 0.130885 0.200205 0
160 1 0.148201 0.184422 0
189 1 0.153154 0.208831 0
187 1 0.136635 0.22506 0
161 1 0.169542 0.191486 0
191 1 0.17427 0.215792 0
162 1 0.190806 0.197838 0
192 1 0.195454 0.222102 0
193 1 0.212275 0.204682 0
164 1 0.227731 0.187252 0
195 1 0.233743 0.211197 0
166 1 0.249217 0.194869 0
168 1 0.28767 0.183413 0
196 1 0.254835 0.218217 0
197 1 0.27156 0.200519 0
198 1 0.276793 0.223926 0
199 1 0.292661 0.207099 0
170 1 0.309562 0.190807 0
200 1 0.314776 0.214304 0
201 1 0.33126 0.19659 0
202 1 0.337122 0.220507 0
203 1 0.353273 0.202012 0
174 1 0.369535 0.183976 0
204 1 0.374522 0.207834 0
233 1 0.358977 0.227005 0
175 1 0.391122 0.190113 0
205 1 0.397515 0.213836 0
176 1 0.412947 0.197006 0
179 1 0.451647 0.185199 0
207 1 0.418381 0.221304 0
178 1 0.434605 0.204517 0
209 1 0.456604 0.209856 0
1082 1 0.500386 0.222404 0
180 1 0.473132 0.193001 0
1081 1 0.478985 0.216645 0
1052 1 0.494595 0.198005 0
211 1 0.0373187 0.238216 0
1140 1 0.0220533 0.256248 0
1110 1 0.0157907 0.23144 0
184 1 0.0760575 0.229485 0
212 1 0.0431781 0.263305 0
213 1 0.0590165 0.245939 0
243 1 0.0659931 0.269916 0
214 1 0.0820546 0.253543 0
215 1 0.0981732 0.234774 0
216 1 0.104055 0.260831 0
217 1 0.120151 0.243794 0
218 1 0.126548 0.269097 0
188 1 0.142613 0.250416 0
190 1 0.157931 0.232859 0
220 1 0.163853 0.257967 0
221 1 0.179928 0.240292 0
222 1 0.185182 0.265301 0
223 1 0.200736 0.246651 0
253 1 0.20629 0.270622 0
194 1 0.21647 0.229584 0
224 1 0.222873 0.253519 0
225 1 0.238496 0.235749 0
226 1 0.245018 0.260218 0
227 1 0.260517 0.241913 0
228 1 0.283216 0.248435 0
257 1 0.267012 0.266623 0
229 1 0.29842 0.231285 0
230 1 0.30511 0.256722 0
231 1 0.320921 0.238669 0
261 1 0.326607 0.262698 0
232 1 0.342518 0.245538 0
234 1 0.364029 0.251555 0
263 1 0.348701 0.269495 0
235 1 0.381098 0.231911 0
265 1 0.385679 0.257926 0
206 1 0.402632 0.239221 0
236 1 0.40797 0.262378 0
208 1 0.440212 0.228114 0
237 1 0.424721 0.245052 0
239 1 0.446277 0.251766 0
238 1 0.429694 0.269091 0
210 1 0.462211 0.233827 0
240 1 0.46734 0.258414 0
1111 1 0.483679 0.240587 0
1112 1 0.490202 0.265665 0
1139 1 0.00653809 0.274409 0
1169 1 0.0117312 0.29937 0
241 1 0.0284821 0.282104 0
271 1 0.03436 0.305921 0
242 1 0.0497862 0.287772 0
244 1 0.0720032 0.294342 0
273 1 0.0556978 0.311758 0
245 1 0.0879085 0.277712 0
246 1 0.0932619 0.302129 0
247 1 0.109511 0.285438 0
248 1 0.11512 0.309821 0
249 1 0.130835 0.293018 0
219 1 0.148285 0.275572 0
250 1 0.152513 0.300048 0
279 1 0.13698 0.317887 0
251 1 0.16915 0.283027 0
281 1 0.174601 0.306441 0
252 1 0.190969 0.288747 0
283 1 0.195929 0.31221 0
254 1 0.212208 0.295919 0
255 1 0.228043 0.278439 0
285 1 0.233925 0.302792 0
256 1 0.250637 0.284942 0
259 1 0.287925 0.272974 0
287 1 0.255347 0.309569 0
258 1 0.27222 0.291089 0
288 1 0.277271 0.315524 0
289 1 0.29351 0.298474 0
260 1 0.309789 0.281059 0
291 1 0.315874 0.30438 0
262 1 0.33262 0.287373 0
293 1 0.355329 0.293592 0
292 1 0.337859 0.311338 0
264 1 0.370435 0.275611 0
295 1 0.376769 0.299538 0
294 1 0.359017 0.318076 0
266 1 0.392772 0.282408 0
297 1 0.397928 0.306475 0
267 1 0.414147 0.28742 0
268 1 0.435327 0.293858 0
298 1 0.419259 0.313343 0
269 1 0.450995 0.276269 0
270 1 0.45764 0.301322 0
1141 1 0.473413 0.282596 0
300 1 0.478826 0.307921 0
1171 1 0.49561 0.289793 0
450 1 0.474688 0.467011 0
1200 1 0.0400735 0.330367 0
1229 1 0.0236047 0.347826 0
1170 1 0.0185395 0.323404 0
1199 1 0.00162683 0.34111 0
301 1 0.0454288 0.356005 0
275 1 0.0776129 0.319466 0
272 1 0.0620645 0.337796 0
274 1 0.0828934 0.345206 0
303 1 0.0669851 0.363029 0
276 1 0.0985588 0.327871 0
305 1 0.103793 0.352168 0
277 1 0.121166 0.335926 0
307 1 0.126099 0.359615 0
278 1 0.142811 0.342304 0
280 1 0.15873 0.323871 0
311 1 0.164427 0.348964 0
282 1 0.180725 0.330825 0
312 1 0.185987 0.354936 0
313 1 0.202598 0.337431 0
314 1 0.206993 0.361565 0
284 1 0.217864 0.320808 0
315 1 0.224315 0.344733 0
286 1 0.239575 0.3269 0
316 1 0.246211 0.352235 0
317 1 0.261478 0.334412 0
319 1 0.284308 0.339706 0
318 1 0.267357 0.358697 0
290 1 0.300261 0.321951 0
320 1 0.306348 0.346286 0
321 1 0.321213 0.328955 0
322 1 0.327421 0.353286 0
323 1 0.343233 0.335767 0
325 1 0.364311 0.342205 0
324 1 0.348438 0.359589 0
296 1 0.380947 0.324494 0
326 1 0.38603 0.350778 0
327 1 0.402675 0.331354 0
328 1 0.407522 0.355739 0
299 1 0.440752 0.319155 0
329 1 0.423684 0.338516 0
359 1 0.445455 0.344639 0
358 1 0.430196 0.362507 0
330 1 0.461644 0.326142 0
360 1 0.468088 0.350714 0
1201 1 0.483867 0.332274 0
1231 1 0.490514 0.357294 0
1259 1 0.00700779 0.365278 0
1230 1 0.0301876 0.373681 0
331 1 0.035112 0.398123 0
1260 1 0.0134204 0.389615 0
302 1 0.0520008 0.379931 0
333 1 0.0729011 0.387193 0
332 1 0.0565755 0.404268 0
304 1 0.0885097 0.369621 0
335 1 0.0940704 0.394549 0
306 1 0.110147 0.376798 0
337 1 0.114992 0.40094 0
308 1 0.132292 0.384143 0
309 1 0.148271 0.36663 0
339 1 0.153883 0.390526 0
338 1 0.137876 0.40924 0
310 1 0.169843 0.373456 0
341 1 0.175462 0.397743 0
343 1 0.191181 0.379154 0
342 1 0.197517 0.40366 0
344 1 0.213328 0.387484 0
345 1 0.229325 0.369844 0
346 1 0.234652 0.394368 0
347 1 0.251087 0.376846 0
377 1 0.255707 0.40179 0
348 1 0.273033 0.383539 0
349 1 0.289978 0.363458 0
378 1 0.277972 0.407775 0
350 1 0.29503 0.388263 0
351 1 0.311589 0.370607 0
381 1 0.316222 0.395518 0
353 1 0.333368 0.377915 0
354 1 0.353781 0.385552 0
352 1 0.337059 0.403013 0
355 1 0.370104 0.368231 0
356 1 0.376303 0.392396 0
357 1 0.391872 0.374488 0
386 1 0.398228 0.398819 0
387 1 0.414627 0.379187 0
389 1 0.436116 0.386086 0
388 1 0.420399 0.404934 0
1232 1 0.452372 0.368316 0
1261 1 0.457868 0.392819 0
1262 1 0.474694 0.374742 0
1293 1 0.479345 0.399976 0
1263 1 0.496428 0.38219 0
361 1 0.0400685 0.421985 0
391 1 0.0237939 0.439124 0
1290 1 0.0181485 0.414047 0
1319 1 0.0018059 0.431147 0
362 1 0.0456513 0.445431 0
334 1 0.0786824 0.411882 0
363 1 0.0616447 0.428313 0
364 1 0.0668149 0.453882 0
365 1 0.0829193 0.436819 0
336 1 0.099438 0.418821 0
366 1 0.104664 0.443773 0
367 1 0.120475 0.425981 0
368 1 0.126453 0.450686 0
369 1 0.143019 0.433206 0
340 1 0.159742 0.416215 0
370 1 0.16463 0.441072 0
371 1 0.180422 0.422674 0
401 1 0.187104 0.447739 0
372 1 0.202152 0.429634 0
373 1 0.218881 0.411951 0
374 1 0.223718 0.438437 0
375 1 0.240048 0.419523 0
405 1 0.246487 0.444296 0
376 1 0.261666 0.425572 0
409 1 0.283771 0.43173 0
407 1 0.267243 0.449655 0
379 1 0.300334 0.413704 0
380 1 0.305485 0.439142 0
382 1 0.32154 0.420422 0
413 1 0.326929 0.446397 0
385 1 0.358957 0.409368 0
383 1 0.343812 0.42839 0
414 1 0.365766 0.434736 0
412 1 0.349614 0.452496 0
384 1 0.382232 0.416631 0
415 1 0.387266 0.441982 0
417 1 0.403755 0.423177 0
416 1 0.409862 0.447002 0
419 1 0.441957 0.412731 0
418 1 0.425779 0.430125 0
390 1 0.447248 0.436788 0
1292 1 0.484654 0.424343 0
1291 1 0.463247 0.418819 0
1321 1 0.469798 0.443108 0
1322 1 0.491554 0.447945 0
1320 1 0.00719961 0.455963 0
421 1 0.0119119 0.48068 0
392 1 0.0290906 0.46383 0
422 1 0.0341857 0.488241 0
393 1 0.0511485 0.471651 0
394 1 0.0726891 0.479141 0
423 1 0.0553901 0.495945 0
395 1 0.0886834 0.461529 0
396 1 0.0940784 0.486213 0
397 1 0.109873 0.46894 0
427 1 0.115885 0.493294 0
399 1 0.148631 0.458617 0
398 1 0.131554 0.475922 0
429 1 0.154064 0.483498 0
1353 1 0.496445 0.472599 0
403 1 0.207706 0.455426 0
400 1 0.170159 0.465874 0
431 1 0.17576 0.490338 0
402 1 0.191781 0.47293 0
432 1 0.196196 0.498173 0
433 1 0.213176 0.479728 0
404 1 0.229556 0.461707 0
435 1 0.235201 0.485996 0
406 1 0.251223 0.46811 0
436 1 0.257034 0.49359 0
408 1 0.273073 0.475678 0
410 1 0.289544 0.456603 0
448 1 0.437986 0.478326 0
441 1 0.29488 0.482426 0
411 1 0.310888 0.465049 0
440 1 0.31613 0.488694 0
442 1 0.332457 0.470274 0
471 1 0.339131 0.495024 0
473 1 0.354935 0.476521 0
443 1 0.371281 0.45995 0
444 1 0.377368 0.484531 0
445 1 0.392779 0.466176 0
475 1 0.398909 0.4905 0
446 1 0.414611 0.471988 0
449 1 0.45917 0.485203 0
447 1 0.43056 0.45455 0
477 1 0.421238 0.496046 0
420 1 0.45294 0.460061 0
453 1 0.0390633 0.513151 0
452 1 0.0241632 0.531485 0
451 1 0.0177438 0.505963 0
1380 1 0.00107565 0.522762 0
454 1 0.0444032 0.538678 0
424 1 0.0608468 0.52111 0
455 1 0.0821848 0.527824 0
485 1 0.0660797 0.545979 0
425 1 0.0773802 0.50365 0
426 1 0.0996946 0.511151 0
456 1 0.104223 0.534589 0
457 1 0.120927 0.517635 0
458 1 0.125467 0.543281 0
459 1 0.141903 0.52539 0
430 1 0.158448 0.508859 0
460 1 0.163297 0.533354 0
461 1 0.17927 0.515546 0
462 1 0.185908 0.539393 0
463 1 0.202233 0.522273 0
434 1 0.219113 0.504336 0
464 1 0.224029 0.529646 0
465 1 0.239234 0.511762 0
466 1 0.245925 0.536085 0
437 1 0.261154 0.517214 0
467 1 0.283754 0.524689 0
497 1 0.267753 0.541436 0
438 1 0.299932 0.506957 0
468 1 0.306652 0.531311 0
469 1 0.322247 0.514005 0
499 1 0.327511 0.538564 0
470 1 0.344346 0.520224 0
503 1 0.366753 0.526442 0
472 1 0.360667 0.502277 0
501 1 0.350167 0.544506 0
474 1 0.383125 0.507888 0
505 1 0.387896 0.531738 0
476 1 0.404987 0.514652 0
506 1 0.408873 0.539318 0
507 1 0.425725 0.520386 0
478 1 0.442285 0.502358 0
480 1 0.447648 0.526981 0
509 1 0.430374 0.544856 0
479 1 0.464824 0.509143 0
510 1 0.469259 0.533167 0
1381 1 0.486421 0.514895 0
1411 1 0.491518 0.54062 0
481 1 0.00539643 0.547678 0
482 1 0.0327183 0.580175 0
483 1 0.0270408 0.55575 0
1410 1 0.0101131 0.572349 0
513 1 0.0499586 0.563517 0
484 1 0.0715411 0.570235 0
514 1 0.05415 0.588171 0
486 1 0.0881206 0.55329 0
515 1 0.0932448 0.577439 0
487 1 0.109954 0.559551 0
517 1 0.114373 0.584867 0
489 1 0.147086 0.551691 0
488 1 0.131354 0.568951 0
490 1 0.152937 0.576299 0
493 1 0.207523 0.547043 0
491 1 0.169477 0.557881 0
521 1 0.175158 0.583543 0
492 1 0.191389 0.565056 0
523 1 0.197726 0.589832 0
494 1 0.21371 0.572675 0
495 1 0.229206 0.554158 0
525 1 0.235391 0.578492 0
496 1 0.251685 0.560325 0
526 1 0.256519 0.585905 0
527 1 0.273097 0.567523 0
498 1 0.288976 0.54907 0
529 1 0.295112 0.573084 0
500 1 0.311461 0.555713 0
530 1 0.316656 0.58036 0
531 1 0.33335 0.562832 0
533 1 0.355534 0.568718 0
502 1 0.371823 0.550379 0
532 1 0.339817 0.586143 0
534 1 0.377314 0.575123 0
504 1 0.392616 0.557521 0
535 1 0.399479 0.581054 0
508 1 0.415234 0.563906 0
539 1 0.43712 0.570264 0
540 1 0.452109 0.55162 0
537 1 0.420864 0.5885 0
1442 1 0.481007 0.582031 0
569 1 0.459378 0.576174 0
1441 1 0.475708 0.557919 0
1412 1 0.498513 0.564665 0
511 1 0.0152477 0.596809 0
512 1 0.037334 0.604136 0
541 1 0.0211957 0.622004 0
545 1 0.0765181 0.595058 0
542 1 0.0428786 0.629292 0
543 1 0.0595333 0.611794 0
544 1 0.0649519 0.63606 0
546 1 0.0815195 0.619158 0
516 1 0.0985524 0.602168 0
547 1 0.102945 0.627635 0
518 1 0.120292 0.610611 0
519 1 0.136808 0.593705 0
577 1 0.12576 0.635077 0
520 1 0.159301 0.601757 0
548 1 0.142321 0.617069 0
549 1 0.164713 0.624659 0
522 1 0.181665 0.608283 0
551 1 0.187103 0.631936 0
553 1 0.204177 0.614431 0
524 1 0.219067 0.59665 0
554 1 0.225627 0.621486 0
555 1 0.240855 0.603373 0
556 1 0.247584 0.627544 0
528 1 0.27844 0.59164 0
557 1 0.262245 0.609907 0
558 1 0.284371 0.616918 0
587 1 0.268377 0.63494 0
559 1 0.299857 0.597877 0
561 1 0.322042 0.604046 0
560 1 0.30652 0.622654 0
591 1 0.329296 0.628856 0
562 1 0.344187 0.609894 0
563 1 0.360817 0.592433 0
565 1 0.36687 0.617907 0
536 1 0.382445 0.599679 0
566 1 0.38891 0.623145 0
567 1 0.40409 0.605953 0
597 1 0.411259 0.629274 0
568 1 0.427195 0.612597 0
538 1 0.443861 0.595143 0
600 1 0.449162 0.618252 0
570 1 0.465401 0.600629 0
1501 1 0.471237 0.624309 0
1471 1 0.487021 0.60703 0
1472 1 0.493131 0.631014 0
1470 1 0.00511911 0.638283 0
572 1 0.0329857 0.669931 0
571 1 0.0264462 0.646974 0
1500 1 0.00179401 0.663076 0
573 1 0.0482251 0.653311 0
603 1 0.0530803 0.677794 0
574 1 0.0693405 0.660712 0
575 1 0.0860527 0.644463 0
605 1 0.0913569 0.66771 0
576 1 0.108902 0.651084 0
607 1 0.113887 0.676491 0
578 1 0.130825 0.659169 0
579 1 0.147376 0.642011 0
609 1 0.153119 0.667033 0
550 1 0.170504 0.648552 0
580 1 0.174776 0.673424 0
581 1 0.191343 0.656023 0
611 1 0.199674 0.681965 0
552 1 0.20932 0.639855 0
582 1 0.21464 0.663375 0
583 1 0.231196 0.646542 0
584 1 0.237481 0.670929 0
585 1 0.253524 0.652316 0
586 1 0.275907 0.6588 0
589 1 0.291166 0.640723 0
615 1 0.260023 0.677066 0
588 1 0.298385 0.665051 0
590 1 0.313154 0.646333 0
621 1 0.320576 0.669828 0
564 1 0.351507 0.634836 0
593 1 0.335965 0.652128 0
594 1 0.358379 0.659528 0
592 1 0.343424 0.677093 0
595 1 0.374276 0.641337 0
625 1 0.381008 0.666981 0
596 1 0.395446 0.647739 0
627 1 0.402099 0.672642 0
598 1 0.417108 0.654027 0
599 1 0.4331 0.636318 0
628 1 0.439012 0.660344 0
629 1 0.455857 0.643131 0
657 1 0.424205 0.678324 0
630 1 0.461841 0.666609 0
1502 1 0.477646 0.6489 0
1533 1 0.483675 0.673497 0
601 1 0.0150834 0.68343 0
631 1 0.0130549 0.709236 0
602 1 0.0344852 0.695139 0
632 1 0.0339146 0.719789 0
604 1 0.0742705 0.68567 0
633 1 0.0564414 0.70238 0
635 1 0.0774148 0.711195 0
634 1 0.0599333 0.727131 0
606 1 0.0962014 0.692106 0
636 1 0.0982521 0.717407 0
637 1 0.116859 0.7013 0
608 1 0.136165 0.684457 0
638 1 0.140821 0.708828 0
639 1 0.159499 0.690729 0
610 1 0.182646 0.697356 0
641 1 0.166235 0.714683 0
612 1 0.2053 0.706118 0
642 1 0.188511 0.722232 0
613 1 0.222667 0.689021 0
643 1 0.227924 0.714996 0
614 1 0.245088 0.696303 0
645 1 0.249428 0.721084 0
617 1 0.282809 0.682982 0
616 1 0.265843 0.701511 0
647 1 0.271843 0.726043 0
618 1 0.28852 0.708132 0
619 1 0.304682 0.688564 0
620 1 0.311862 0.713302 0
622 1 0.327081 0.694258 0
651 1 0.333316 0.719956 0
653 1 0.34954 0.702096 0
624 1 0.37121 0.708681 0
623 1 0.36392 0.684414 0
655 1 0.392397 0.715322 0
626 1 0.386213 0.691496 0
656 1 0.40778 0.696433 0
686 1 0.414225 0.720291 0
658 1 0.428985 0.702534 0
659 1 0.445993 0.684873 0
660 1 0.451039 0.70949 0
1531 1 0.467629 0.690725 0
1561 1 0.473169 0.715629 0
1532 1 0.489382 0.698206 0
1563 1 0.494851 0.722355 0
663 1 0.021797 0.749825 0
661 1 0.00599027 0.732337 0
1590 1 0.000694009 0.756814 0
662 1 0.0389903 0.7665 0
664 1 0.0424205 0.742089 0
695 1 0.0625165 0.757715 0
665 1 0.080669 0.736457 0
667 1 0.120835 0.726055 0
666 1 0.10277 0.742412 0
668 1 0.116509 0.761249 0
697 1 0.0960889 0.768686 0
640 1 0.15028 0.73058 0
669 1 0.133011 0.746131 0
670 1 0.15363 0.755886 0
699 1 0.136378 0.771721 0
671 1 0.170666 0.739486 0
672 1 0.174845 0.76431 0
673 1 0.193053 0.747445 0
644 1 0.210318 0.731076 0
674 1 0.215733 0.756799 0
675 1 0.232897 0.73841 0
705 1 0.239516 0.761658 0
646 1 0.256205 0.744816 0
677 1 0.265025 0.767244 0
648 1 0.279294 0.749154 0
649 1 0.295398 0.731931 0
679 1 0.301636 0.756103 0
650 1 0.317443 0.738004 0
681 1 0.323656 0.761934 0
654 1 0.355459 0.726998 0
652 1 0.339028 0.743927 0
682 1 0.345791 0.769156 0
683 1 0.361084 0.75109 0
685 1 0.376959 0.733322 0
684 1 0.38302 0.757817 0
715 1 0.398114 0.740071 0
714 1 0.404288 0.763688 0
687 1 0.43506 0.726941 0
717 1 0.420122 0.745189 0
688 1 0.442219 0.75194 0
716 1 0.427122 0.769071 0
689 1 0.457573 0.734214 0
719 1 0.465049 0.75872 0
690 1 0.479313 0.740052 0
1591 1 0.486755 0.764978 0
691 1 0.016941 0.774192 0
693 1 0.0332368 0.790145 0
721 1 0.0116922 0.799205 0
692 1 0.027837 0.815588 0
723 1 0.0493407 0.80832 0
694 1 0.0544539 0.783867 0
696 1 0.0759466 0.77738 0
725 1 0.0705052 0.801412 0
727 1 0.0930642 0.79406 0
728 1 0.1114 0.809569 0
698 1 0.114067 0.784879 0
726 1 0.0875139 0.817798 0
700 1 0.134571 0.795933 0
701 1 0.155753 0.780585 0
731 1 0.156291 0.805121 0
703 1 0.197447 0.772498 0
702 1 0.177806 0.789144 0
733 1 0.199248 0.799448 0
732 1 0.177416 0.813449 0
704 1 0.219793 0.781149 0
735 1 0.216711 0.815972 0
706 1 0.233214 0.801529 0
678 1 0.28691 0.774352 0
676 1 0.248722 0.784175 0
737 1 0.25418 0.808703 0
707 1 0.270862 0.791945 0
738 1 0.27623 0.816307 0
709 1 0.307735 0.781006 0
708 1 0.292098 0.798284 0
710 1 0.314079 0.803964 0
680 1 0.330263 0.787868 0
713 1 0.366737 0.776516 0
711 1 0.35144 0.794715 0
741 1 0.335423 0.811579 0
712 1 0.373039 0.800462 0
743 1 0.388776 0.782189 0
745 1 0.395114 0.807833 0
746 1 0.410863 0.788213 0
775 1 0.417784 0.813591 0
718 1 0.449482 0.776538 0
747 1 0.433319 0.793969 0
749 1 0.455066 0.800721 0
720 1 0.471027 0.783394 0
1621 1 0.477652 0.807513 0
1592 1 0.493966 0.789273 0
1680 1 0.0223131 0.839594 0
752 1 0.0389696 0.857396 0
1650 1 0.00543276 0.824187 0
1709 1 0.000544629 0.84741 0
751 1 0.0442665 0.832629 0
753 1 0.0612495 0.850233 0
722 1 0.0656798 0.825292 0
724 1 0.0828854 0.841884 0
757 1 0.104624 0.834357 0
756 1 0.120234 0.851043 0
755 1 0.0988558 0.859061 0
729 1 0.13763 0.820678 0
759 1 0.141994 0.844998 0
730 1 0.159096 0.828494 0
760 1 0.160115 0.859566 0
761 1 0.178477 0.840775 0
763 1 0.195799 0.824967 0
762 1 0.199832 0.848692 0
736 1 0.238987 0.826433 0
734 1 0.221248 0.839477 0
765 1 0.239877 0.854117 0
767 1 0.260468 0.833685 0
766 1 0.268604 0.857359 0
768 1 0.283662 0.839532 0
739 1 0.298953 0.822081 0
769 1 0.304931 0.848264 0
740 1 0.320904 0.830924 0
770 1 0.326946 0.854765 0
742 1 0.357828 0.818768 0
771 1 0.34245 0.836719 0
773 1 0.364097 0.844446 0
801 1 0.347985 0.862914 0
744 1 0.379902 0.825628 0
803 1 0.385362 0.850996 0
774 1 0.40211 0.831896 0
776 1 0.406855 0.85681 0
748 1 0.439575 0.819692 0
777 1 0.423407 0.838427 0
779 1 0.445105 0.843787 0
778 1 0.428973 0.862821 0
750 1 0.46228 0.824534 0
1651 1 0.483345 0.832446 0
780 1 0.467029 0.850706 0
1652 1 0.489566 0.857431 0
781 1 0.0171175 0.864167 0
782 1 0.0334549 0.881449 0
811 1 0.0119743 0.889518 0
812 1 0.0279008 0.906188 0
813 1 0.0502305 0.898964 0
783 1 0.0547398 0.874214 0
784 1 0.0721346 0.890806 0
754 1 0.0766326 0.86664 0
785 1 0.092875 0.883279 0
787 1 0.114866 0.87557 0
786 1 0.109887 0.900323 0
815 1 0.0880416 0.908035 0
788 1 0.132382 0.893131 0
758 1 0.136134 0.868412 0
789 1 0.153088 0.885586 0
790 1 0.169854 0.903194 0
791 1 0.174393 0.879644 0
823 1 0.191205 0.896286 0
792 1 0.195502 0.872456 0
764 1 0.217476 0.864445 0
793 1 0.212273 0.889806 0
795 1 0.232814 0.881165 0
794 1 0.229401 0.905689 0
825 1 0.250687 0.897871 0
796 1 0.25357 0.87416 0
827 1 0.271937 0.88641 0
797 1 0.288458 0.866632 0
798 1 0.294204 0.890725 0
799 1 0.310422 0.872475 0
829 1 0.316163 0.897749 0
800 1 0.331653 0.880096 0
802 1 0.354232 0.886716 0
772 1 0.370059 0.869043 0
831 1 0.336864 0.905225 0
804 1 0.376313 0.893099 0
805 1 0.392081 0.874765 0
806 1 0.39804 0.899466 0
807 1 0.413802 0.881029 0
809 1 0.450612 0.867625 0
808 1 0.435713 0.886848 0
837 1 0.420206 0.905756 0
810 1 0.457854 0.891447 0
1681 1 0.473897 0.875002 0
1711 1 0.479725 0.898678 0
1682 1 0.496431 0.8819 0
841 1 0.0233383 0.93077 0
1740 1 0.00646215 0.913095 0
1769 1 0.00207572 0.938268 0
842 1 0.0399437 0.948021 0
843 1 0.0448443 0.922047 0
844 1 0.0611119 0.939237 0
814 1 0.0668182 0.915176 0
845 1 0.0822492 0.932753 0
816 1 0.104566 0.924578 0
847 1 0.120922 0.941892 0
846 1 0.0996895 0.949547 0
819 1 0.148077 0.910685 0
817 1 0.126155 0.917501 0
818 1 0.143094 0.936039 0
820 1 0.16434 0.928469 0
849 1 0.158411 0.953654 0
851 1 0.179584 0.946295 0
821 1 0.184476 0.920706 0
824 1 0.206737 0.913776 0
822 1 0.200802 0.938731 0
853 1 0.223168 0.930665 0
855 1 0.245616 0.922667 0
854 1 0.240193 0.946316 0
883 1 0.218129 0.954868 0
826 1 0.267605 0.914792 0
856 1 0.262278 0.939533 0
857 1 0.28381 0.932631 0
828 1 0.299603 0.914954 0
859 1 0.306049 0.942127 0
830 1 0.321 0.923941 0
860 1 0.329506 0.947257 0
833 1 0.360943 0.911417 0
832 1 0.344493 0.929171 0
863 1 0.367761 0.93604 0
861 1 0.352321 0.953926 0
834 1 0.382792 0.91701 0
865 1 0.389364 0.941946 0
835 1 0.405053 0.923971 0
836 1 0.411251 0.948153 0
839 1 0.442511 0.910868 0
838 1 0.42765 0.929516 0
869 1 0.448759 0.934932 0
867 1 0.433472 0.954195 0
1712 1 0.486082 0.922834 0
1741 1 0.471388 0.941726 0
840 1 0.464694 0.915798 0
1742 1 0.493473 0.947208 0
1770 1 0.0179902 0.954874 0
871 1 0.0345591 0.972098 0
1800 1 0.0126847 0.979913 0
1 1 0.0296224 0.997155 0
872 1 0.0507009 0.988719 0
873 1 0.0558776 0.96478 0
874 1 0.0721895 0.981495 0
875 1 0.0786216 0.957157 0
876 1 0.094323 0.975137 0
877 1 0.116109 0.966903 0
7 1 0.111015 0.991231 0
878 1 0.132826 0.983922 0
848 1 0.137265 0.960216 0
879 1 0.153841 0.977857 0
881 1 0.170182 0.994095 0
850 1 0.17523 0.969557 0
11 1 0.191489 0.987523 0
852 1 0.196383 0.962458 0
882 1 0.212651 0.978657 0
884 1 0.234105 0.971623 0
13 1 0.229122 0.996004 0
886 1 0.251616 0.987707 0
887 1 0.277974 0.956444 0
885 1 0.255704 0.963833 0
17 1 0.272445 0.980533 0
888 1 0.294523 0.972687 0
858 1 0.315045 0.965767 0
889 1 0.318948 0.991335 0
890 1 0.342336 0.99621 0
891 1 0.335749 0.971422 0
862 1 0.357853 0.977435 0
864 1 0.373971 0.960872 0
893 1 0.380315 0.98457 0
895 1 0.396289 0.966979 0
896 1 0.401975 0.991061 0
870 1 0.456186 0.958709 0
866 1 0.41843 0.97289 0
897 1 0.424288 0.995811 0
868 1 0.440631 0.97639 0
1772 1 0.484066 0.989948 0
899 1 0.461938 0.98407 0
1771 1 0.478304 0.965769 0
1773 1 0.500368 0.972911 0
5 1 0.0892636 0.998597 0
18 1 0.289027 0.996536 0
428 1 0.137395 0.500306 0
1622 1 0.499191 0.814193 0
439 1 0.27804 0.500172 0
902 1 0.511851 0.0216521 0
904 1 0.532702 0.027977 0
905 1 0.528094 0.00418126 0
906 1 0.549518 0.0114582 0
935 1 0.554862 0.0351704 0
908 1 0.571311 0.0172644 0
937 1 0.577214 0.0421857 0
939 1 0.593136 0.0224938 0
940 1 0.614363 0.0288841 0
941 1 0.609434 0.00427809 0
942 1 0.742279 0.0229928 0
944 1 0.758143 0.0417911 0
943 1 0.763813 0.0161955 0
914 1 0.784998 0.0090847 0
945 1 0.778845 0.0346028 0
947 1 0.800908 0.025792 0
918 1 0.82217 0.0187298 0
948 1 0.817272 0.0436693 0
916 1 0.806579 0.0013759 0
949 1 0.838797 0.0362127 0
919 1 0.844066 0.0125498 0
920 1 0.8606 0.0293738 0
1790 1 0.866518 0.00530136 0
951 1 0.882666 0.0226329 0
922 1 0.904411 0.0146213 0
952 1 0.899962 0.0394013 0
953 1 0.921848 0.0324685 0
924 1 0.926831 0.00822249 0
955 1 0.943969 0.026473 0
925 1 0.94832 0.000795756 0
956 1 0.959525 0.0440667 0
926 1 0.964701 0.0178731 0
957 1 0.980537 0.0355161 0
928 1 0.985943 0.011706 0
933 1 0.51673 0.046042 0
932 1 0.502769 0.0654529 0
963 1 0.524615 0.0719822 0
934 1 0.539135 0.0539136 0
962 1 0.508999 0.0897811 0
965 1 0.545883 0.0787735 0
936 1 0.561399 0.060479 0
966 1 0.568687 0.0852743 0
967 1 0.583598 0.0652994 0
938 1 0.599721 0.0473158 0
969 1 0.604948 0.0716168 0
971 1 0.734385 0.0463948 0
970 1 0.729364 0.0709758 0
972 1 0.746233 0.0884836 0
973 1 0.75152 0.064772 0
975 1 0.774338 0.0581801 0
974 1 0.790825 0.0747307 0
1003 1 0.768782 0.0820661 0
946 1 0.795783 0.0507193 0
976 1 0.812597 0.0678945 0
1007 1 0.828922 0.0858882 0
977 1 0.83404 0.0606179 0
979 1 0.855337 0.0530207 0
980 1 0.872861 0.0707425 0
978 1 0.851326 0.0780693 0
950 1 0.878249 0.0460577 0
981 1 0.895344 0.0640234 0
983 1 0.916921 0.0568215 0
982 1 0.911474 0.0808372 0
1011 1 0.889513 0.0874165 0
984 1 0.93223 0.0756901 0
954 1 0.938342 0.0509953 0
985 1 0.953498 0.0680518 0
987 1 0.976078 0.0605534 0
988 1 0.993323 0.0783744 0
958 1 0.99779 0.0535702 0
986 1 0.971479 0.0842804 0
964 1 0.530801 0.0967203 0
993 1 0.515622 0.114351 0
994 1 0.53809 0.121634 0
995 1 0.552652 0.102989 0
996 1 0.559131 0.126739 0
997 1 0.574223 0.109327 0
1027 1 0.580817 0.133085 0
968 1 0.590928 0.0909082 0
998 1 0.597151 0.11692 0
1000 1 0.618941 0.124334 0
1030 1 0.639847 0.130923 0
999 1 0.657386 0.113616 0
1001 1 0.678913 0.120973 0
1002 1 0.700571 0.128901 0
1033 1 0.763702 0.10631 0
1004 1 0.785156 0.0986687 0
1065 1 0.779821 0.123292 0
1005 1 0.807294 0.0919279 0
1035 1 0.801556 0.117048 0
1006 1 0.823269 0.109958 0
1036 1 0.817337 0.13548 0
1037 1 0.838984 0.127878 0
1008 1 0.845663 0.103137 0
1039 1 0.862261 0.120673 0
1009 1 0.86777 0.0959756 0
1010 1 0.884485 0.112715 0
1012 1 0.905893 0.105133 0
1041 1 0.900563 0.129844 0
1015 1 0.949055 0.0925901 0
1043 1 0.921884 0.124051 0
1013 1 0.927308 0.0996273 0
1014 1 0.94378 0.116989 0
1017 1 0.965375 0.111158 0
1018 1 0.988052 0.102231 0
1047 1 0.982758 0.126738 0
1016 1 0.96049 0.134737 0
1023 1 0.520786 0.138782 0
1022 1 0.505307 0.156334 0
1024 1 0.527428 0.163506 0
1053 1 0.510524 0.18055 0
1025 1 0.542779 0.145548 0
1055 1 0.549166 0.169467 0
1026 1 0.564864 0.152267 0
1057 1 0.570214 0.177127 0
1029 1 0.602062 0.141119 0
1028 1 0.585496 0.159154 0
1058 1 0.606767 0.165487 0
1059 1 0.623639 0.148341 0
1032 1 0.661467 0.138899 0
1060 1 0.627964 0.173424 0
1061 1 0.644661 0.156254 0
1091 1 0.649893 0.180825 0
1062 1 0.667199 0.163919 0
1031 1 0.683338 0.146594 0
1064 1 0.688321 0.170788 0
1063 1 0.704991 0.153089 0
1095 1 0.71006 0.176702 0
1034 1 0.726835 0.160479 0
1067 1 0.834648 0.151763 0
1038 1 0.856432 0.144953 0
1069 1 0.8736 0.16186 0
1068 1 0.852294 0.169321 0
1040 1 0.879046 0.137716 0
1071 1 0.895401 0.155338 0
1072 1 0.911901 0.173418 0
1070 1 0.889868 0.17975 0