ITEM: TIMESTEP
303000
ITEM: NUMBER OF ATOMS
1800
ITEM: BOX BOUNDS pp pp pp
-1.1019595845538875e+01 1.7601959584554078e+02
1.1826529217466231e+00 1.6381734707825530e+02
0.0000000000000000e+00 5.5000000000000000e+00
ITEM: ATOMS id type xs ys zs
930 1 0.0342665 0.0249217 0
929 1 0.0190014 0.00813379 0
959 1 0.0131848 0.0320123 0
31 1 0.0500705 0.041613 0
2 1 0.0546726 0.0177237 0
33 1 0.0703272 0.0343998 0
3 1 0.0757995 0.0108876 0
1 1 0.039321 0.000176005 0
4 1 0.0910865 0.0280675 0
6 1 0.1129 0.0211009 0
5 1 0.0970872 0.00427153 0
37 1 0.128125 0.0379196 0
8 1 0.133229 0.0137569 0
39 1 0.148709 0.0303949 0
880 1 0.153262 0.00642291 0
9 1 0.169084 0.0238825 0
40 1 0.184305 0.0412692 0
10 1 0.189396 0.0167609 0
881 1 0.174438 -0.0002279 0
41 1 0.20563 0.0337287 0
12 1 0.210271 0.00937256 0
14 1 0.22599 0.0265588 0
13 1 0.230971 0.00295951 0
15 1 0.246745 0.020096 0
46 1 0.2673 0.0157908 0
77 1 0.270727 0.0415836 0
47 1 0.286767 0.0235304 0
19 1 0.301674 0.00532362 0
49 1 0.307625 0.0293211 0
20 1 0.32295 0.0111666 0
51 1 0.328522 0.0361655 0
21 1 0.343987 0.0183916 0
23 1 0.364065 0.0242002 0
22 1 0.349742 0.0433123 0
894 1 0.378931 0.00711476 0
1353 1 0.489861 0.473314 0
24 1 0.385076 0.030574 0
25 1 0.400199 0.0127689 0
26 1 0.407103 0.0367552 0
27 1 0.422073 0.0193601 0
29 1 0.444057 0.025027 0
898 1 0.437721 0.000855159 0
900 1 0.459669 0.00728739 0
28 1 0.427823 0.0430186 0
30 1 0.464353 0.0305678 0
901 1 0.480284 0.0141818 0
931 1 0.485667 0.0378703 0
988 1 0.0033773 0.0808514 0
960 1 0.0288417 0.049651 0
989 1 0.0242963 0.0739029 0
958 1 0.00759407 0.0566215 0
61 1 0.0445172 0.0654932 0
62 1 0.0604039 0.0839681 0
32 1 0.0649896 0.0598127 0
35 1 0.107 0.0455406 0
63 1 0.0803746 0.0765903 0
34 1 0.0859182 0.052772 0
65 1 0.101145 0.0700272 0
66 1 0.116736 0.0872995 0
36 1 0.122109 0.0631775 0
67 1 0.138287 0.0797951 0
38 1 0.143614 0.0548729 0
69 1 0.163765 0.0481988 0
68 1 0.158202 0.0720609 0
71 1 0.179091 0.0645212 0
70 1 0.173889 0.0900516 0
72 1 0.194919 0.0820069 0
42 1 0.199966 0.0572198 0
43 1 0.221571 0.0508725 0
73 1 0.21572 0.0749046 0
45 1 0.242234 0.0439408 0
44 1 0.236732 0.0682467 0
74 1 0.261758 0.086859 0
75 1 0.257766 0.0612648 0
76 1 0.277818 0.066246 0
48 1 0.292665 0.0479929 0
79 1 0.298891 0.0733845 0
50 1 0.313975 0.0539511 0
81 1 0.319675 0.0785573 0
52 1 0.334925 0.0606696 0
82 1 0.341021 0.0847467 0
83 1 0.355872 0.0666074 0
53 1 0.371013 0.0488671 0
54 1 0.376812 0.0725133 0
55 1 0.392122 0.0540205 0
56 1 0.397502 0.0787189 0
57 1 0.412231 0.0611822 0
87 1 0.418614 0.0854632 0
58 1 0.434394 0.0672609 0
59 1 0.449483 0.0486689 0
89 1 0.455865 0.073276 0
932 1 0.492146 0.0613901 0
60 1 0.471045 0.055354 0
961 1 0.476165 0.080658 0
962 1 0.498228 0.0875045 0
1020 1 0.0338639 0.116316 0
1019 1 0.0182714 0.0988603 0
1049 1 0.0135107 0.123779 0
990 1 0.0394044 0.090802 0
121 1 0.0481902 0.134035 0
91 1 0.0553401 0.109338 0
92 1 0.0697479 0.127032 0
93 1 0.0754574 0.101687 0
64 1 0.0955911 0.0942811 0
94 1 0.0909931 0.118941 0
95 1 0.111985 0.110793 0
125 1 0.107009 0.135062 0
96 1 0.12797 0.128561 0
97 1 0.131925 0.104782 0
98 1 0.148874 0.1224 0
99 1 0.152709 0.097366 0
100 1 0.169623 0.114502 0
130 1 0.186041 0.132058 0
101 1 0.189635 0.106544 0
102 1 0.206318 0.122183 0
103 1 0.21054 0.0984581 0
104 1 0.227984 0.118348 0
105 1 0.230954 0.0926536 0
106 1 0.247628 0.10588 0
137 1 0.254339 0.129505 0
107 1 0.268975 0.110726 0
78 1 0.283297 0.0925552 0
109 1 0.290145 0.116585 0
108 1 0.275752 0.135112 0
80 1 0.30471 0.0970022 0
110 1 0.311424 0.121179 0
111 1 0.325886 0.102707 0
141 1 0.33168 0.128214 0
84 1 0.361631 0.0913274 0
113 1 0.346216 0.110657 0
112 1 0.367669 0.116241 0
143 1 0.352989 0.13484 0
85 1 0.382249 0.0970586 0
115 1 0.388025 0.122143 0
86 1 0.403296 0.103383 0
116 1 0.409183 0.127828 0
88 1 0.439724 0.0916717 0
117 1 0.425131 0.110287 0
119 1 0.446148 0.116078 0
90 1 0.460934 0.0982162 0
120 1 0.466423 0.122917 0
991 1 0.483271 0.105094 0
992 1 0.488223 0.129891 0
1050 1 0.0282498 0.141466 0
1079 1 0.0236579 0.166374 0
1048 1 0.007732 0.147796 0
1077 1 0.00247981 0.171868 0
151 1 0.0453534 0.159304 0
122 1 0.0652121 0.150682 0
152 1 0.0601216 0.175835 0
153 1 0.0811348 0.167596 0
123 1 0.0865434 0.142838 0
124 1 0.100965 0.161086 0
155 1 0.116935 0.176613 0
126 1 0.122028 0.152089 0
157 1 0.137241 0.169745 0
127 1 0.143897 0.146184 0
129 1 0.164704 0.138876 0
128 1 0.159341 0.165004 0
159 1 0.179926 0.155629 0
132 1 0.188688 0.177664 0
131 1 0.202445 0.158293 0
133 1 0.218714 0.141295 0
134 1 0.223728 0.165596 0
135 1 0.239428 0.147108 0
165 1 0.244205 0.171518 0
136 1 0.259512 0.153949 0
167 1 0.26537 0.177853 0
138 1 0.28053 0.16023 0
139 1 0.296347 0.140468 0
169 1 0.302214 0.164301 0
140 1 0.317416 0.14583 0
171 1 0.322168 0.171259 0
142 1 0.33743 0.152869 0
172 1 0.343794 0.177137 0
173 1 0.3591 0.159774 0
114 1 0.372696 0.141341 0
144 1 0.379052 0.166496 0
145 1 0.394068 0.146653 0
146 1 0.399679 0.172184 0
147 1 0.414667 0.152812 0
177 1 0.421068 0.177592 0
118 1 0.430146 0.135039 0
148 1 0.435985 0.159561 0
149 1 0.451449 0.141182 0
150 1 0.457218 0.165106 0
1051 1 0.477685 0.171834 0
1021 1 0.472637 0.146428 0
1022 1 0.49309 0.154167 0
1107 1 0.0141745 0.214213 0
1078 1 0.0183865 0.19032 0
1109 1 0.0353971 0.208712 0
1080 1 0.0395839 0.183871 0
181 1 0.0557858 0.200451 0
182 1 0.0620163 0.22455 0
183 1 0.0787006 0.206246 0
154 1 0.0961443 0.186136 0
185 1 0.099392 0.216421 0
156 1 0.115042 0.200539 0
186 1 0.120442 0.224787 0
158 1 0.136101 0.205956 0
160 1 0.151167 0.188906 0
189 1 0.156927 0.212066 0
161 1 0.172037 0.192984 0
191 1 0.177729 0.21775 0
162 1 0.194213 0.200933 0
163 1 0.209194 0.183536 0
192 1 0.198784 0.225278 0
193 1 0.214915 0.207597 0
164 1 0.229976 0.19057 0
195 1 0.235151 0.215141 0
166 1 0.250303 0.195733 0
196 1 0.256564 0.22052 0
168 1 0.286192 0.184949 0
197 1 0.270961 0.201629 0
199 1 0.292197 0.208574 0
198 1 0.277391 0.226351 0
170 1 0.307409 0.190093 0
200 1 0.313302 0.213945 0
201 1 0.328129 0.196329 0
202 1 0.333913 0.22034 0
174 1 0.364618 0.184176 0
203 1 0.349456 0.201844 0
204 1 0.369984 0.208583 0
233 1 0.355304 0.225544 0
175 1 0.384965 0.190627 0
205 1 0.391722 0.214478 0
176 1 0.406347 0.196344 0
207 1 0.412651 0.220022 0
179 1 0.442073 0.183215 0
178 1 0.427664 0.201041 0
209 1 0.448184 0.208335 0
208 1 0.433242 0.226264 0
180 1 0.463191 0.190139 0
1081 1 0.468585 0.215634 0
1052 1 0.48421 0.196614 0
1082 1 0.489726 0.220979 0
1140 1 0.0313457 0.259353 0
1110 1 0.0266845 0.235126 0
1108 1 0.0101397 0.25362 0
211 1 0.046986 0.24245 0
212 1 0.0514535 0.26738 0
213 1 0.0677255 0.250754 0
184 1 0.0826787 0.232609 0
214 1 0.0879151 0.257536 0
215 1 0.104028 0.240918 0
216 1 0.109479 0.26513 0
187 1 0.141325 0.230101 0
217 1 0.125074 0.248031 0
218 1 0.130312 0.271625 0
188 1 0.146784 0.254159 0
190 1 0.162507 0.236183 0
220 1 0.167227 0.260258 0
221 1 0.182668 0.243044 0
222 1 0.18909 0.268261 0
223 1 0.203744 0.249858 0
194 1 0.219624 0.231914 0
224 1 0.224474 0.256046 0
225 1 0.240858 0.23797 0
226 1 0.246757 0.26227 0
227 1 0.262192 0.24502 0
257 1 0.266841 0.268866 0
228 1 0.282952 0.249862 0
229 1 0.298484 0.232115 0
230 1 0.303765 0.25622 0
231 1 0.319597 0.23813 0
261 1 0.324956 0.26337 0
232 1 0.34076 0.244678 0
263 1 0.346161 0.268228 0
234 1 0.361737 0.250626 0
235 1 0.376352 0.232439 0
265 1 0.383017 0.256582 0
206 1 0.397278 0.238067 0
236 1 0.402713 0.263665 0
237 1 0.417369 0.245068 0
238 1 0.423262 0.269471 0
239 1 0.438518 0.250875 0
210 1 0.453721 0.233826 0
240 1 0.459261 0.257727 0
1111 1 0.475363 0.239626 0
1112 1 0.480706 0.264513 0
1113 1 0.496237 0.246791 0
1139 1 0.0163574 0.27746 0
1169 1 0.0217516 0.303429 0
241 1 0.0375201 0.28555 0
243 1 0.0721435 0.275132 0
271 1 0.0426694 0.31021 0
242 1 0.057609 0.291947 0
273 1 0.0635079 0.316538 0
244 1 0.0783367 0.298766 0
245 1 0.093638 0.281887 0
246 1 0.0994265 0.3061 0
247 1 0.115231 0.288929 0
248 1 0.120658 0.31241 0
249 1 0.136431 0.295298 0
219 1 0.151406 0.278328 0
250 1 0.158015 0.301616 0
251 1 0.172773 0.283824 0
281 1 0.178354 0.308578 0
253 1 0.209852 0.274642 0
252 1 0.195305 0.292536 0
283 1 0.198747 0.31664 0
254 1 0.215756 0.298299 0
255 1 0.231344 0.280142 0
285 1 0.236691 0.304961 0
256 1 0.252475 0.287085 0
287 1 0.257928 0.310466 0
259 1 0.288144 0.274396 0
258 1 0.273217 0.292315 0
288 1 0.279113 0.317915 0
289 1 0.294363 0.299175 0
260 1 0.309188 0.280941 0
291 1 0.31502 0.305465 0
262 1 0.331377 0.287302 0
292 1 0.335498 0.312724 0
293 1 0.351751 0.293332 0
264 1 0.367169 0.274146 0
295 1 0.372346 0.299065 0
294 1 0.356808 0.317513 0
266 1 0.387165 0.28166 0
297 1 0.393769 0.30598 0
267 1 0.408698 0.286839 0
298 1 0.414163 0.311166 0
268 1 0.428979 0.293699 0
269 1 0.44488 0.275876 0
270 1 0.449985 0.300222 0
1141 1 0.465659 0.282382 0
300 1 0.471344 0.306846 0
1171 1 0.487101 0.28978 0
1172 1 0.491618 0.314039 0
1168 1 0.00623307 0.319751 0
1229 1 0.0329426 0.352056 0
1170 1 0.0273199 0.327505 0
1199 1 0.0120743 0.34386 0
1200 1 0.0484106 0.334073 0
301 1 0.0536072 0.358598 0
272 1 0.0693828 0.341511 0
275 1 0.0847394 0.324346 0
274 1 0.0901271 0.348105 0
276 1 0.105909 0.330812 0
305 1 0.111264 0.3546 0
279 1 0.142803 0.319702 0
277 1 0.127403 0.336915 0
278 1 0.148363 0.343539 0
307 1 0.132224 0.361534 0
280 1 0.163132 0.32622 0
311 1 0.167905 0.350754 0
282 1 0.182974 0.333868 0
312 1 0.188314 0.357747 0
313 1 0.205085 0.34079 0
284 1 0.22016 0.32243 0
315 1 0.226341 0.345923 0
286 1 0.242076 0.328263 0
316 1 0.247745 0.352079 0
317 1 0.263533 0.334944 0
318 1 0.268493 0.359981 0
319 1 0.284906 0.3426 0
290 1 0.299631 0.323916 0
320 1 0.305593 0.348933 0
321 1 0.320235 0.330147 0
322 1 0.326312 0.355367 0
323 1 0.341072 0.336696 0
324 1 0.34752 0.36226 0
325 1 0.361965 0.343005 0
296 1 0.377302 0.323981 0
326 1 0.383021 0.348621 0
327 1 0.398997 0.33036 0
328 1 0.404377 0.354183 0
329 1 0.419598 0.335443 0
299 1 0.435053 0.317961 0
359 1 0.439632 0.341823 0
330 1 0.455513 0.324849 0
358 1 0.424459 0.360503 0
360 1 0.460208 0.350033 0
1202 1 0.497797 0.338797 0
1201 1 0.476799 0.331607 0
1231 1 0.481076 0.356264 0
1259 1 0.0174884 0.368848 0
1230 1 0.0379299 0.376328 0
1260 1 0.0235941 0.394053 0
1258 1 0.00207519 0.386506 0
303 1 0.0748228 0.366362 0
331 1 0.0448148 0.400129 0
302 1 0.0595309 0.382367 0
332 1 0.0650222 0.407902 0
333 1 0.0810023 0.390245 0
304 1 0.0955886 0.371841 0
335 1 0.102157 0.397611 0
306 1 0.117121 0.379362 0
337 1 0.122631 0.405261 0
308 1 0.137759 0.387158 0
309 1 0.1527 0.369335 0
339 1 0.158222 0.393969 0
310 1 0.173079 0.376363 0
341 1 0.179215 0.399978 0
314 1 0.210689 0.364372 0
343 1 0.195082 0.381422 0
342 1 0.199503 0.407348 0
344 1 0.215425 0.388669 0
345 1 0.230904 0.371501 0
346 1 0.237208 0.395937 0
347 1 0.252416 0.378366 0
377 1 0.258424 0.40195 0
348 1 0.273818 0.383623 0
349 1 0.289355 0.366661 0
350 1 0.295213 0.390223 0
378 1 0.279148 0.407501 0
351 1 0.310405 0.372662 0
381 1 0.316467 0.395822 0
353 1 0.332053 0.378632 0
352 1 0.337866 0.403695 0
354 1 0.353365 0.385496 0
355 1 0.368419 0.366764 0
356 1 0.373439 0.390985 0
385 1 0.359413 0.409995 0
357 1 0.388763 0.37278 0
386 1 0.394631 0.397627 0
387 1 0.4097 0.378677 0
388 1 0.415012 0.404135 0
389 1 0.430382 0.386199 0
1232 1 0.444852 0.367986 0
1261 1 0.451422 0.392188 0
1262 1 0.466153 0.374666 0
1293 1 0.472621 0.398212 0
1263 1 0.487879 0.380715 0
1294 1 0.493273 0.404438 0
1289 1 0.00732145 0.410497 0
1319 1 0.0127283 0.435614 0
391 1 0.034435 0.442857 0
1290 1 0.0287047 0.417887 0
361 1 0.0488823 0.424904 0
362 1 0.0550774 0.45018 0
363 1 0.0705157 0.431922 0
334 1 0.0859975 0.414254 0
365 1 0.0905889 0.438989 0
336 1 0.106626 0.423132 0
366 1 0.112341 0.446968 0
338 1 0.143826 0.411713 0
367 1 0.128936 0.430426 0
369 1 0.14926 0.436739 0
368 1 0.133118 0.454864 0
340 1 0.164768 0.418688 0
370 1 0.169538 0.443019 0
371 1 0.185 0.424933 0
401 1 0.190314 0.449764 0
372 1 0.2062 0.431172 0
373 1 0.221617 0.412635 0
374 1 0.227417 0.436889 0
403 1 0.211584 0.455191 0
375 1 0.242972 0.419093 0
405 1 0.248342 0.443955 0
376 1 0.263539 0.425862 0
407 1 0.26886 0.450293 0
409 1 0.28447 0.432384 0
379 1 0.301368 0.414202 0
380 1 0.306086 0.437748 0
382 1 0.322615 0.420478 0
413 1 0.326678 0.445636 0
383 1 0.343406 0.42818 0
414 1 0.363981 0.434373 0
412 1 0.348461 0.4529 0
384 1 0.380009 0.414892 0
415 1 0.384531 0.439762 0
417 1 0.399933 0.42328 0
416 1 0.405712 0.446738 0
418 1 0.421042 0.42901 0
419 1 0.436294 0.410673 0
390 1 0.441767 0.434805 0
1291 1 0.457389 0.416018 0
447 1 0.427105 0.452794 0
1323 1 0.498693 0.42964 0
1292 1 0.478222 0.422623 0
1321 1 0.46337 0.440167 0
1322 1 0.483737 0.447805 0
1320 1 0.0185509 0.46092 0
421 1 0.0245883 0.48585 0
1349 1 0.0025399 0.477366 0
392 1 0.039211 0.467677 0
364 1 0.0751297 0.456461 0
422 1 0.0452211 0.493848 0
393 1 0.0606426 0.475387 0
450 1 0.468539 0.466944 0
394 1 0.0814969 0.480749 0
395 1 0.0968681 0.463147 0
396 1 0.102787 0.488746 0
397 1 0.117532 0.47123 0
427 1 0.123511 0.495916 0
398 1 0.13927 0.478829 0
399 1 0.153473 0.460779 0
429 1 0.160091 0.485553 0
400 1 0.174825 0.46724 0
431 1 0.181081 0.491331 0
402 1 0.196102 0.473479 0
432 1 0.201205 0.498281 0
433 1 0.216319 0.479969 0
404 1 0.232755 0.461964 0
435 1 0.237633 0.486218 0
406 1 0.253507 0.469085 0
436 1 0.259713 0.492963 0
408 1 0.275485 0.475042 0
410 1 0.290893 0.456876 0
441 1 0.29602 0.481075 0
411 1 0.31126 0.463227 0
440 1 0.316757 0.48774 0
442 1 0.332048 0.468825 0
471 1 0.337786 0.493974 0
473 1 0.35325 0.476267 0
443 1 0.368996 0.458333 0
444 1 0.374672 0.481814 0
445 1 0.389757 0.464193 0
475 1 0.395753 0.488586 0
446 1 0.410949 0.469999 0
477 1 0.417491 0.495586 0
449 1 0.452602 0.483695 0
448 1 0.43234 0.476259 0
420 1 0.448606 0.458435 0
1352 1 0.495058 0.497348 0
1351 1 0.473935 0.490323 0
439 1 0.280374 0.499066 0
452 1 0.0345463 0.53535 0
451 1 0.0295341 0.510558 0
1380 1 0.0126631 0.526465 0
1350 1 0.00884546 0.502003 0
453 1 0.0505903 0.517161 0
454 1 0.0556483 0.540855 0
424 1 0.0716581 0.523629 0
425 1 0.0876256 0.505415 0
455 1 0.0924606 0.530717 0
426 1 0.108137 0.512915 0
456 1 0.113307 0.538167 0
457 1 0.129007 0.521132 0
459 1 0.149044 0.52869 0
458 1 0.133367 0.545586 0
428 1 0.145009 0.503161 0
430 1 0.16565 0.510107 0
460 1 0.170155 0.534048 0
461 1 0.186033 0.515686 0
462 1 0.192128 0.539624 0
463 1 0.207115 0.522334 0
434 1 0.221763 0.504104 0
464 1 0.228296 0.52742 0
465 1 0.24419 0.510448 0
466 1 0.250315 0.534644 0
437 1 0.265675 0.517795 0
497 1 0.271076 0.54207 0
467 1 0.286307 0.524087 0
438 1 0.301412 0.505737 0
468 1 0.307358 0.530052 0
1772 1 0.474029 0.989167 0
469 1 0.322562 0.511295 0
499 1 0.328204 0.53658 0
470 1 0.343299 0.518377 0
503 1 0.36442 0.524499 0
501 1 0.348903 0.54166 0
474 1 0.380364 0.50639 0
472 1 0.35902 0.500389 0
505 1 0.386112 0.531323 0
476 1 0.401038 0.513441 0
506 1 0.407233 0.537097 0
507 1 0.423065 0.520031 0
480 1 0.44322 0.526829 0
478 1 0.438013 0.501607 0
479 1 0.458419 0.507786 0
509 1 0.427123 0.544306 0
510 1 0.463939 0.533011 0
1381 1 0.479413 0.515675 0
1411 1 0.484725 0.539713 0
481 1 0.0186501 0.551549 0
1410 1 0.0224125 0.5759 0
1408 1 0.00112136 0.569549 0
483 1 0.0404263 0.558674 0
482 1 0.0447136 0.582539 0
513 1 0.0610093 0.565445 0
485 1 0.0763866 0.548036 0
484 1 0.0820926 0.57376 0
486 1 0.0968525 0.556019 0
515 1 0.102817 0.580235 0
487 1 0.117879 0.56246 0
517 1 0.12464 0.58743 0
488 1 0.138668 0.569079 0
489 1 0.154936 0.55213 0
490 1 0.16053 0.575958 0
491 1 0.175818 0.557548 0
521 1 0.181372 0.582056 0
493 1 0.212713 0.546348 0
492 1 0.197331 0.563818 0
523 1 0.202514 0.588165 0
494 1 0.21877 0.569711 0
495 1 0.233308 0.551054 0
525 1 0.239619 0.577569 0
496 1 0.255799 0.559907 0
526 1 0.26091 0.584344 0
527 1 0.276583 0.566579 0
498 1 0.291491 0.548751 0
529 1 0.297007 0.573122 0
528 1 0.282356 0.590934 0
500 1 0.312391 0.555122 0
530 1 0.317269 0.578978 0
531 1 0.333393 0.561249 0
532 1 0.339136 0.585204 0
533 1 0.355311 0.567173 0
502 1 0.370644 0.548665 0
534 1 0.376232 0.573693 0
504 1 0.391296 0.555256 0
535 1 0.397109 0.580319 0
508 1 0.412056 0.561618 0
537 1 0.418032 0.586497 0
539 1 0.43243 0.569116 0
540 1 0.448724 0.550942 0
569 1 0.453939 0.574765 0
1443 1 0.496345 0.588851 0
1442 1 0.474897 0.58117 0
1441 1 0.468968 0.556841 0
1412 1 0.489773 0.563246 0
511 1 0.0288174 0.599758 0
541 1 0.0356811 0.624026 0
1440 1 0.0151817 0.618588 0
1439 1 0.00752028 0.594038 0
514 1 0.0668048 0.59029 0
512 1 0.0510143 0.60672 0
542 1 0.0553602 0.632049 0
543 1 0.0715001 0.614778 0
545 1 0.0874585 0.597742 0
546 1 0.0928749 0.621722 0
516 1 0.108601 0.604143 0
547 1 0.112836 0.628507 0
519 1 0.145392 0.59399 0
518 1 0.129463 0.612708 0
548 1 0.150113 0.618595 0
577 1 0.133844 0.636425 0
520 1 0.166232 0.599716 0
549 1 0.17141 0.625084 0
522 1 0.187535 0.606431 0
551 1 0.192662 0.631084 0
553 1 0.207784 0.612699 0
524 1 0.223967 0.595622 0
554 1 0.228915 0.620271 0
555 1 0.245253 0.602348 0
556 1 0.249894 0.626672 0
557 1 0.267093 0.609007 0
558 1 0.287961 0.615423 0
587 1 0.271423 0.632658 0
559 1 0.302662 0.597333 0
560 1 0.308742 0.621291 0
561 1 0.32421 0.603743 0
591 1 0.329176 0.627092 0
562 1 0.344898 0.608935 0
563 1 0.361076 0.591827 0
565 1 0.366122 0.616023 0
564 1 0.350994 0.63301 0
536 1 0.381904 0.598224 0
566 1 0.387084 0.622523 0
567 1 0.402534 0.605247 0
597 1 0.409227 0.628708 0
568 1 0.424454 0.611494 0
538 1 0.43931 0.593297 0
600 1 0.445607 0.617438 0
570 1 0.460405 0.599464 0
599 1 0.429677 0.6356 0
1501 1 0.465864 0.623603 0
1471 1 0.481024 0.606019 0
1472 1 0.485944 0.631672 0
1470 1 0.0201442 0.641888 0
1500 1 0.0200284 0.666675 0
903 1 0.495249 0.995843 0
571 1 0.0402908 0.65013 0
572 1 0.0467001 0.673228 0
573 1 0.0617087 0.655706 0
544 1 0.0775534 0.6397 0
574 1 0.0826283 0.66406 0
575 1 0.098086 0.646876 0
605 1 0.103156 0.671208 0
576 1 0.11884 0.653412 0
607 1 0.125054 0.678127 0
578 1 0.139875 0.660408 0
579 1 0.155429 0.64212 0
609 1 0.160946 0.666764 0
550 1 0.176407 0.649095 0
580 1 0.182653 0.67403 0
552 1 0.213555 0.63709 0
581 1 0.196741 0.655397 0
611 1 0.204262 0.679538 0
582 1 0.218704 0.660999 0
583 1 0.234563 0.64473 0
584 1 0.240443 0.668328 0
585 1 0.256318 0.650876 0
615 1 0.261987 0.675051 0
586 1 0.277379 0.656825 0
589 1 0.293414 0.63949 0
588 1 0.298356 0.663928 0
617 1 0.283279 0.680669 0
590 1 0.313963 0.645632 0
621 1 0.320145 0.668745 0
593 1 0.335358 0.651433 0
592 1 0.341248 0.675589 0
594 1 0.356175 0.656974 0
595 1 0.371912 0.640081 0
625 1 0.377694 0.663677 0
596 1 0.392849 0.647005 0
627 1 0.398877 0.672398 0
598 1 0.414172 0.654076 0
657 1 0.420254 0.677971 0
628 1 0.435643 0.660774 0
629 1 0.450449 0.642639 0
630 1 0.455667 0.666216 0
1503 1 0.491534 0.655663 0
1502 1 0.470843 0.648414 0
1533 1 0.477267 0.673056 0
1504 1 0.498836 0.679347 0
601 1 0.0309672 0.688243 0
631 1 0.0262289 0.712165 0
1530 1 0.0107233 0.695567 0
1560 1 0.00525066 0.719226 0
603 1 0.0668973 0.681263 0
602 1 0.0495578 0.700898 0
633 1 0.0710914 0.705289 0
604 1 0.0871249 0.688616 0
635 1 0.0926883 0.712993 0
606 1 0.109756 0.695632 0
636 1 0.114176 0.719646 0
608 1 0.145576 0.684441 0
637 1 0.130895 0.702283 0
638 1 0.151464 0.708882 0
667 1 0.135347 0.726367 0
639 1 0.167693 0.690916 0
641 1 0.172708 0.715437 0
610 1 0.188583 0.698286 0
642 1 0.193345 0.723314 0
612 1 0.209225 0.703104 0
613 1 0.224752 0.685819 0
643 1 0.23087 0.710584 0
614 1 0.246441 0.692574 0
645 1 0.252169 0.717049 0
616 1 0.267981 0.699872 0
647 1 0.27355 0.724123 0
618 1 0.28894 0.706291 0
619 1 0.30532 0.686982 0
620 1 0.310261 0.711782 0
622 1 0.325892 0.693455 0
651 1 0.331201 0.717866 0
653 1 0.346466 0.699683 0
623 1 0.362004 0.681387 0
624 1 0.367514 0.706238 0
626 1 0.382567 0.688976 0
654 1 0.351839 0.724071 0
655 1 0.388391 0.713417 0
656 1 0.404476 0.695906 0
686 1 0.409474 0.719539 0
658 1 0.424812 0.702284 0
659 1 0.441257 0.684609 0
660 1 0.445643 0.709744 0
687 1 0.43035 0.726706 0
1531 1 0.462017 0.690732 0
1561 1 0.466694 0.714938 0
1532 1 0.483249 0.696764 0
1563 1 0.488735 0.722106 0
661 1 0.0211196 0.73648 0
1590 1 0.015457 0.76052 0
1773 1 0.48843 0.971262 0
632 1 0.0431174 0.727911 0
663 1 0.0372301 0.752595 0
662 1 0.0521623 0.770421 0
664 1 0.0583933 0.746117 0
634 1 0.0759353 0.729379 0
695 1 0.082158 0.754515 0
665 1 0.0986403 0.737583 0
697 1 0.104218 0.762032 0
666 1 0.119719 0.744507 0
668 1 0.125615 0.767222 0
669 1 0.141199 0.750196 0
640 1 0.156788 0.732435 0
670 1 0.162366 0.756493 0
671 1 0.178833 0.739666 0
672 1 0.18501 0.763043 0
644 1 0.214668 0.72791 0
673 1 0.200639 0.746191 0
703 1 0.205548 0.769757 0
674 1 0.221244 0.751779 0
675 1 0.237018 0.73422 0
705 1 0.243197 0.7589 0
646 1 0.258172 0.740932 0
677 1 0.26396 0.765762 0
648 1 0.279529 0.74813 0
649 1 0.295441 0.729875 0
679 1 0.29988 0.754327 0
650 1 0.315864 0.736128 0
681 1 0.321424 0.760758 0
652 1 0.336547 0.741982 0
682 1 0.342182 0.766152 0
683 1 0.358363 0.748741 0
685 1 0.37341 0.731161 0
684 1 0.379776 0.75568 0
715 1 0.394297 0.737265 0
714 1 0.400631 0.762705 0
717 1 0.415621 0.744482 0
716 1 0.421681 0.768925 0
688 1 0.436207 0.751299 0
689 1 0.452574 0.733855 0
719 1 0.457946 0.758976 0
690 1 0.473478 0.739733 0
1591 1 0.478595 0.764587 0
1562 1 0.495076 0.746535 0
1593 1 0.500397 0.77037 0
691 1 0.0311268 0.77674 0
721 1 0.0258592 0.800919 0
1620 1 0.00902974 0.783751 0
1649 1 0.00475267 0.808251 0
693 1 0.0468108 0.794086 0
723 1 0.0623591 0.811133 0
694 1 0.0674323 0.786606 0
725 1 0.0834644 0.804442 0
696 1 0.0889818 0.779315 0
727 1 0.105567 0.797148 0
728 1 0.119218 0.816105 0
698 1 0.127691 0.791443 0
699 1 0.146843 0.774572 0
700 1 0.139055 0.811303 0
731 1 0.155827 0.797244 0
701 1 0.169504 0.780396 0
702 1 0.190161 0.789608 0
732 1 0.17502 0.807238 0
763 1 0.196419 0.814154 0
733 1 0.211146 0.796248 0
704 1 0.226513 0.776328 0
706 1 0.232574 0.800725 0
676 1 0.248459 0.783223 0
737 1 0.25441 0.807356 0
707 1 0.269563 0.789587 0
678 1 0.285101 0.772435 0
738 1 0.276141 0.813975 0
708 1 0.290412 0.795914 0
709 1 0.305488 0.778863 0
710 1 0.311826 0.80301 0
680 1 0.327429 0.784757 0
741 1 0.333355 0.809485 0
713 1 0.363966 0.773333 0
711 1 0.348793 0.790653 0
712 1 0.369794 0.79778 0
742 1 0.355078 0.815426 0
743 1 0.385406 0.77987 0
745 1 0.390963 0.804984 0
746 1 0.406322 0.786658 0
775 1 0.411625 0.810996 0
718 1 0.442083 0.77513 0
747 1 0.426805 0.793459 0
749 1 0.447771 0.799669 0
720 1 0.463587 0.782482 0
1621 1 0.468515 0.806148 0
1592 1 0.484938 0.788736 0
1622 1 0.49 0.813927 0
1680 1 0.0359325 0.843465 0
1650 1 0.0203246 0.825071 0
1709 1 0.0140125 0.849675 0
1771 1 0.467402 0.964248 0
692 1 0.0405143 0.81892 0
752 1 0.0507396 0.86051 0
751 1 0.0559308 0.835033 0
753 1 0.0711959 0.853762 0
722 1 0.0769555 0.829404 0
726 1 0.0985571 0.822194 0
724 1 0.0923046 0.846787 0
757 1 0.1136 0.84084 0
756 1 0.128667 0.857803 0
729 1 0.134935 0.834876 0
759 1 0.151683 0.849427 0
730 1 0.15785 0.825007 0
761 1 0.17991 0.832542 0
792 1 0.187159 0.857273 0
735 1 0.217576 0.820171 0
762 1 0.201902 0.83817 0
734 1 0.223094 0.843452 0
764 1 0.208385 0.862386 0
736 1 0.2384 0.825383 0
765 1 0.24442 0.849707 0
767 1 0.260381 0.832594 0
766 1 0.265524 0.85737 0
768 1 0.281193 0.838317 0
739 1 0.296965 0.821369 0
769 1 0.302609 0.84514 0
740 1 0.317563 0.826738 0
770 1 0.323903 0.850638 0
771 1 0.339565 0.833114 0
801 1 0.343572 0.859489 0
773 1 0.359402 0.841291 0
744 1 0.375481 0.822872 0
803 1 0.380136 0.847451 0
774 1 0.396434 0.828817 0
776 1 0.401044 0.8535 0
777 1 0.416643 0.835948 0
778 1 0.423585 0.860145 0
748 1 0.432557 0.816762 0
779 1 0.438039 0.841576 0
750 1 0.453581 0.824283 0
780 1 0.459176 0.849747 0
1651 1 0.474447 0.831743 0
1652 1 0.480401 0.855441 0
1653 1 0.495548 0.838127 0
781 1 0.0306786 0.868412 0
1710 1 0.00947778 0.873882 0
811 1 0.0238941 0.891623 0
1739 1 0.00351223 0.898681 0
782 1 0.0447714 0.885681 0
813 1 0.0602536 0.903099 0
783 1 0.0652609 0.878518 0
755 1 0.108001 0.864092 0
784 1 0.0810556 0.89577 0
754 1 0.0867407 0.871609 0
785 1 0.10269 0.888098 0
786 1 0.117876 0.90531 0
787 1 0.124105 0.881374 0
788 1 0.140069 0.898321 0
758 1 0.145642 0.873368 0
760 1 0.16754 0.867298 0
789 1 0.161194 0.891901 0
791 1 0.184007 0.884467 0
823 1 0.197678 0.9042 0
793 1 0.214606 0.8861 0
795 1 0.229582 0.867264 0
794 1 0.2348 0.892691 0
796 1 0.250458 0.875516 0
825 1 0.256419 0.900908 0
797 1 0.28655 0.862404 0
827 1 0.271758 0.883682 0
826 1 0.277769 0.906893 0
798 1 0.292379 0.887897 0
799 1 0.308309 0.870139 0
829 1 0.313352 0.894626 0
800 1 0.328853 0.877184 0
831 1 0.335278 0.902121 0
802 1 0.350086 0.882885 0
772 1 0.365594 0.866434 0
804 1 0.371908 0.890095 0
833 1 0.357065 0.907723 0
805 1 0.386888 0.872726 0
806 1 0.393228 0.897726 0
807 1 0.408391 0.879013 0
837 1 0.41386 0.902999 0
809 1 0.443838 0.866357 0
808 1 0.429334 0.883817 0
810 1 0.449754 0.891355 0
839 1 0.435112 0.908801 0
1681 1 0.464648 0.873643 0
1711 1 0.470661 0.897735 0
1682 1 0.485186 0.880147 0
1713 1 0.492148 0.905005 0
841 1 0.0344217 0.934243 0
1740 1 0.0185141 0.916268 0
1769 1 0.0136697 0.941122 0
812 1 0.0396408 0.91027 0
842 1 0.0504951 0.951198 0
843 1 0.055247 0.926883 0
844 1 0.0708609 0.944329 0
814 1 0.0766195 0.919587 0
815 1 0.0970546 0.913113 0
845 1 0.0917375 0.937277 0
816 1 0.112806 0.930374 0
847 1 0.128426 0.947924 0
817 1 0.132909 0.922975 0
818 1 0.149029 0.940687 0
790 1 0.176325 0.908623 0
819 1 0.15471 0.916683 0
820 1 0.16907 0.934454 0
851 1 0.184859 0.951181 0
821 1 0.190628 0.927612 0
822 1 0.205896 0.943948 0
824 1 0.218778 0.911011 0
853 1 0.225787 0.936399 0
855 1 0.240156 0.917627 0
854 1 0.246937 0.943668 0
856 1 0.262267 0.924887 0
885 1 0.269167 0.948816 0
857 1 0.283487 0.930738 0
828 1 0.29904 0.912624 0
859 1 0.305689 0.93713 0
830 1 0.32021 0.918657 0
860 1 0.326863 0.942984 0
832 1 0.342388 0.926075 0
863 1 0.363098 0.93258 0
861 1 0.347964 0.950254 0
834 1 0.377647 0.914439 0
865 1 0.384296 0.939951 0
835 1 0.399033 0.922002 0
836 1 0.404106 0.946424 0
838 1 0.419615 0.92795 0
869 1 0.439622 0.933922 0
840 1 0.455541 0.915823 0
867 1 0.424904 0.951758 0
1741 1 0.461597 0.940488 0
1743 1 0.49868 0.928595 0
1712 1 0.4766 0.922564 0
1742 1 0.482896 0.946772 0
1770 1 0.0291469 0.958441 0
1799 1 0.00883488 0.965318 0
1800 1 0.0237637 0.983248 0
1798 1 0.00315741 0.989221 0
871 1 0.0437513 0.975541 0
872 1 0.0596663 0.993479 0
873 1 0.0649063 0.968718 0
846 1 0.107431 0.954661 0
874 1 0.0812181 0.987265 0
875 1 0.0860635 0.961657 0
876 1 0.101204 0.980076 0
7 1 0.11769 0.996777 0
877 1 0.122536 0.971917 0
878 1 0.138712 0.988803 0
848 1 0.144056 0.96443 0
849 1 0.164318 0.958023 0
879 1 0.159966 0.982504 0
850 1 0.180115 0.97489 0
11 1 0.195052 0.992257 0
852 1 0.200115 0.967994 0
883 1 0.221262 0.961115 0
882 1 0.21555 0.985368 0
884 1 0.236018 0.979342 0
886 1 0.254783 0.967674 0
16 1 0.259948 0.992801 0
887 1 0.290612 0.955717 0
17 1 0.275186 0.972909 0
888 1 0.296746 0.979878 0
18 1 0.281199 0.997443 0
858 1 0.311664 0.961267 0
889 1 0.317515 0.985712 0
891 1 0.33205 0.968079 0
890 1 0.337673 0.993233 0
862 1 0.3529 0.974864 0
864 1 0.368261 0.958153 0
893 1 0.374401 0.982862 0
895 1 0.38978 0.964049 0
896 1 0.394859 0.989233 0
866 1 0.41086 0.971041 0
897 1 0.415867 0.995376 0
868 1 0.431993 0.976708 0
899 1 0.45333 0.983354 0
870 1 0.446844 0.95885 0
892 1 0.358293 1.00065 0
423 1 0.0665666 0.499418 0
902 1 0.501074 0.0193946 0
904 1 0.522204 0.0267995 0
905 1 0.516314 0.00276334 0
906 1 0.536902 0.00910172 0
935 1 0.5434 0.0329777 0
908 1 0.558325 0.0156843 0
937 1 0.564301 0.0398088 0
939 1 0.579578 0.0218431 0
940 1 0.600938 0.0287662 0
941 1 0.5953 0.00398195 0
938 1 0.585705 0.0461853 0
942 1 0.761745 0.0226995 0
944 1 0.778503 0.0405567 0
943 1 0.782917 0.0169092 0
945 1 0.79948 0.0333463 0
914 1 0.804 0.00932838 0
947 1 0.820059 0.0269524 0
918 1 0.840663 0.0206824 0
916 1 0.825068 0.00215211 0
948 1 0.835477 0.0455872 0
949 1 0.856649 0.0378485 0
919 1 0.86135 0.0130972 0
920 1 0.877837 0.0307793 0
1790 1 0.882148 0.00596002 0
951 1 0.899204 0.0246353 0
922 1 0.919602 0.0173237 0
952 1 0.914067 0.0416581 0
953 1 0.935747 0.0351412 0
924 1 0.941144 0.0109349 0
955 1 0.956553 0.0287687 0
925 1 0.962082 0.00403803 0
926 1 0.976944 0.0215053 0
957 1 0.992083 0.0402931 0
928 1 0.997756 0.0144529 0
956 1 0.971024 0.0466392 0
933 1 0.506468 0.0436453 0
963 1 0.512607 0.0691282 0
934 1 0.526827 0.0510791 0
965 1 0.534176 0.0743373 0
936 1 0.549449 0.0573338 0
966 1 0.55589 0.0816397 0
967 1 0.570813 0.0648249 0
968 1 0.577104 0.0893175 0
969 1 0.592019 0.0700596 0
971 1 0.757197 0.0472612 0
970 1 0.751682 0.0716748 0
972 1 0.766161 0.0890003 0
973 1 0.772776 0.0640193 0
975 1 0.794226 0.05813 0
1003 1 0.788057 0.08209 0
974 1 0.809429 0.0757874 0
946 1 0.814562 0.0514502 0
976 1 0.830098 0.0696606 0
1007 1 0.844918 0.0878823 0
977 1 0.850659 0.063618 0
979 1 0.871798 0.056351 0
978 1 0.86642 0.0809408 0
980 1 0.887786 0.0722534 0
950 1 0.893021 0.049053 0
981 1 0.908594 0.065595 0
982 1 0.923898 0.0836879 0
983 1 0.929996 0.0600652 0
984 1 0.944911 0.0778253 0
954 1 0.951007 0.0538847 0
985 1 0.965822 0.0718593 0
987 1 0.986454 0.0646162 0
986 1 0.981627 0.0893838 0
964 1 0.519909 0.0931644 0
993 1 0.504258 0.11138 0
994 1 0.524838 0.11713 0
995 1 0.541243 0.0992806 0
996 1 0.545925 0.124395 0
997 1 0.561702 0.106914 0
1027 1 0.566777 0.131905 0
998 1 0.583209 0.113092 0
1000 1 0.603829 0.121422 0
1030 1 0.62502 0.127919 0
999 1 0.640676 0.110156 0
1032 1 0.645682 0.134401 0
1001 1 0.661834 0.118524 0
1002 1 0.682908 0.127036 0
1033 1 0.781178 0.10893 0
1065 1 0.798037 0.125401 0
1004 1 0.802685 0.100492 0
1005 1 0.823595 0.0937334 0
1035 1 0.818805 0.118628 0
1006 1 0.84007 0.112514 0
1036 1 0.834626 0.137103 0
1037 1 0.856399 0.130138 0
1008 1 0.860386 0.105293 0
1039 1 0.877394 0.121878 0
1009 1 0.882185 0.097575 0
1011 1 0.903199 0.0904491 0
1010 1 0.897699 0.11537 0
1012 1 0.918155 0.108318 0
1041 1 0.913887 0.133595 0
1043 1 0.934362 0.127362 0
1013 1 0.938685 0.102617 0
1014 1 0.955506 0.119168 0
1015 1 0.959965 0.0957861 0
1017 1 0.976637 0.113443 0