ITEM: TIMESTEP
205000
ITEM: NUMBER OF ATOMS
1800
ITEM: BOX BOUNDS pp pp pp
-7.0729939340075916e+00 1.7207299393400950e+02
1.1826529217466231e+00 1.6381734707825530e+02
0.0000000000000000e+00 5.5000000000000000e+00
ITEM: ATOMS id type xs ys zs
930 1 0.023627 0.0222416 0
929 1 0.00750865 0.00512207 0
31 1 0.0400743 0.0396554 0
959 1 0.00183205 0.0296346 0
2 1 0.0455525 0.0143561 0
33 1 0.0619357 0.0316734 0
3 1 0.0670777 0.00781781 0
4 1 0.0835675 0.0252377 0
6 1 0.104997 0.0175671 0
37 1 0.121584 0.0353919 0
35 1 0.100379 0.0437838 0
8 1 0.126613 0.0110843 0
39 1 0.143402 0.0272057 0
9 1 0.165112 0.0180595 0
69 1 0.160393 0.0438519 0
880 1 0.148146 0.00242358 0
40 1 0.182943 0.0349249 0
10 1 0.186687 0.0105775 0
41 1 0.204757 0.0271281 0
12 1 0.208722 0.00288236 0
14 1 0.226827 0.0197474 0
15 1 0.247204 0.00941165 0
45 1 0.243841 0.0360086 0
43 1 0.221183 0.0432882 0
16 1 0.268624 0.00170882 0
46 1 0.264423 0.0246581 0
47 1 0.287476 0.0225213 0
49 1 0.311653 0.0311768 0
19 1 0.30599 0.00741873 0
20 1 0.328333 0.0144731 0
51 1 0.33391 0.0386461 0
21 1 0.349599 0.0208873 0
23 1 0.37191 0.0273349 0
892 1 0.36556 0.00337795 0
894 1 0.387215 0.00973673 0
24 1 0.394377 0.0332634 0
25 1 0.409793 0.0145782 0
26 1 0.415381 0.0396757 0
27 1 0.431531 0.0221652 0
29 1 0.454184 0.0301121 0
898 1 0.447749 0.0045624 0
900 1 0.469531 0.0117882 0
30 1 0.47674 0.0359088 0
901 1 0.492146 0.0172715 0
931 1 0.498191 0.0419802 0
960 1 0.0186581 0.047648 0
989 1 0.0132795 0.0713034 0
61 1 0.0350534 0.0644366 0
990 1 0.0301648 0.0892394 0
62 1 0.0522065 0.0817833 0
32 1 0.0561043 0.0574519 0
63 1 0.0731766 0.0738012 0
34 1 0.0778435 0.0494963 0
65 1 0.0942325 0.0668014 0
36 1 0.117664 0.0595864 0
66 1 0.111646 0.0840435 0
64 1 0.0899684 0.0908324 0
67 1 0.134801 0.0767636 0
38 1 0.138851 0.0526114 0
68 1 0.156545 0.0692478 0
70 1 0.17368 0.0843156 0
71 1 0.1784 0.0602383 0
72 1 0.195893 0.0764322 0
42 1 0.199764 0.0514109 0
73 1 0.21625 0.0671983 0
44 1 0.237265 0.0597922 0
105 1 0.23426 0.0837792 0
77 1 0.276263 0.0444333 0
74 1 0.265492 0.0851096 0
75 1 0.259178 0.0606162 0
76 1 0.281774 0.067673 0
48 1 0.296936 0.0498158 0
79 1 0.30322 0.0743876 0
50 1 0.317818 0.0561626 0
81 1 0.324906 0.0815427 0
22 1 0.356035 0.0446975 0
52 1 0.339778 0.0634272 0
83 1 0.360971 0.0686131 0
82 1 0.346586 0.087611 0
53 1 0.377841 0.0516271 0
54 1 0.382949 0.0770387 0
55 1 0.39896 0.058719 0
56 1 0.405838 0.0829765 0
28 1 0.438339 0.0459866 0
57 1 0.420862 0.0642556 0
58 1 0.4438 0.0700352 0
87 1 0.428566 0.0881518 0
59 1 0.460583 0.0538249 0
89 1 0.466509 0.0770549 0
60 1 0.482779 0.0596178 0
961 1 0.487897 0.0830619 0
1020 1 0.0245442 0.11255 0
1019 1 0.00868277 0.0946794 0
1049 1 0.00303742 0.119663 0
121 1 0.0418651 0.129772 0
91 1 0.0466918 0.106043 0
92 1 0.0632855 0.123358 0
93 1 0.0686509 0.0987324 0
94 1 0.0851676 0.115604 0
95 1 0.106827 0.108049 0
96 1 0.124299 0.12482 0
125 1 0.102613 0.1331 0
97 1 0.128577 0.0999078 0
98 1 0.145805 0.117216 0
99 1 0.150971 0.0936178 0
129 1 0.163149 0.132857 0
100 1 0.168371 0.108852 0
130 1 0.185204 0.125328 0
101 1 0.190939 0.10028 0
102 1 0.206972 0.116813 0
103 1 0.213589 0.0926895 0
104 1 0.23006 0.116856 0
106 1 0.248252 0.101847 0
137 1 0.25417 0.125826 0
107 1 0.271151 0.109802 0
78 1 0.286973 0.0924124 0
108 1 0.276546 0.134211 0
109 1 0.292531 0.116973 0
80 1 0.308872 0.0993719 0
110 1 0.314386 0.123412 0
111 1 0.330079 0.106022 0
141 1 0.336858 0.130064 0
113 1 0.352252 0.112253 0
84 1 0.367431 0.0952776 0
112 1 0.37468 0.117966 0
143 1 0.358244 0.136783 0
85 1 0.38982 0.10009 0
115 1 0.396853 0.124834 0
86 1 0.412389 0.106361 0
116 1 0.41816 0.131533 0
88 1 0.449969 0.0953403 0
117 1 0.433769 0.112939 0
119 1 0.456024 0.119753 0
90 1 0.47237 0.102121 0
120 1 0.478756 0.12635 0
991 1 0.494121 0.107948 0
1353 1 0.496168 0.474336 0
1050 1 0.0199877 0.136847 0
1079 1 0.01436 0.161665 0
151 1 0.0357435 0.153932 0
1080 1 0.0311071 0.179522 0
152 1 0.051393 0.171676 0
122 1 0.0572045 0.147729 0
153 1 0.0731161 0.165018 0
123 1 0.0800295 0.14066 0
124 1 0.096913 0.157075 0
126 1 0.118431 0.149502 0
155 1 0.114196 0.173734 0
154 1 0.0908574 0.180289 0
157 1 0.135503 0.164963 0
127 1 0.140432 0.141424 0
128 1 0.158892 0.157868 0
159 1 0.180074 0.149532 0
131 1 0.201329 0.155762 0
132 1 0.184299 0.173398 0
135 1 0.239015 0.143269 0
133 1 0.217181 0.138416 0
134 1 0.223274 0.162177 0
165 1 0.244754 0.169179 0
136 1 0.260635 0.151075 0
138 1 0.282336 0.157646 0
167 1 0.266764 0.176211 0
139 1 0.298834 0.140925 0
169 1 0.305595 0.16434 0
140 1 0.321423 0.147134 0
171 1 0.327015 0.171557 0
142 1 0.342711 0.155192 0
173 1 0.364523 0.160515 0
172 1 0.349224 0.179287 0
114 1 0.380387 0.142611 0
144 1 0.386027 0.16717 0
145 1 0.402184 0.148859 0
146 1 0.407086 0.17346 0
118 1 0.439515 0.137933 0
147 1 0.423238 0.155909 0
148 1 0.445583 0.161975 0
177 1 0.429516 0.180264 0
1051 1 0.489647 0.176014 0
149 1 0.462403 0.143017 0
150 1 0.46768 0.168261 0
1021 1 0.484769 0.151084 0
1107 1 0.00258695 0.212414 0
1109 1 0.0257366 0.204335 0
1078 1 0.00900287 0.187471 0
181 1 0.0479695 0.196582 0
183 1 0.0703599 0.191564 0
182 1 0.0546055 0.220739 0
185 1 0.0878688 0.205943 0
186 1 0.114592 0.219138 0
156 1 0.107967 0.195782 0
158 1 0.129993 0.200248 0
160 1 0.148336 0.184905 0
189 1 0.152952 0.209269 0
163 1 0.206319 0.1805 0
161 1 0.169125 0.192135 0
191 1 0.174995 0.215627 0
162 1 0.190457 0.198405 0
192 1 0.196884 0.221402 0
193 1 0.212655 0.204232 0
164 1 0.228342 0.186148 0
195 1 0.235102 0.210649 0
166 1 0.250173 0.192875 0
196 1 0.256564 0.217251 0
197 1 0.272302 0.199983 0
168 1 0.288809 0.180828 0
198 1 0.278072 0.224594 0
199 1 0.294624 0.206116 0
170 1 0.310434 0.188783 0
200 1 0.315795 0.212994 0
201 1 0.33209 0.19545 0
202 1 0.337341 0.220349 0
203 1 0.354091 0.202842 0
174 1 0.370456 0.184843 0
233 1 0.358777 0.227402 0
204 1 0.376093 0.208981 0
175 1 0.391351 0.1909 0
205 1 0.396377 0.217217 0
176 1 0.413474 0.198597 0
179 1 0.452281 0.186799 0
207 1 0.419357 0.223476 0
178 1 0.434657 0.20494 0
209 1 0.456693 0.211573 0
180 1 0.472697 0.192831 0
1081 1 0.477884 0.218799 0
1052 1 0.494814 0.201279 0
1108 1 0.000810821 0.247087 0
211 1 0.0387015 0.237251 0
1140 1 0.022802 0.254906 0
1110 1 0.0174104 0.230593 0
1139 1 0.00629441 0.272864 0
212 1 0.0438328 0.26238 0
184 1 0.0769192 0.227914 0
213 1 0.0601284 0.245268 0
243 1 0.0652307 0.270455 0
214 1 0.080808 0.252098 0
215 1 0.0979571 0.235755 0
216 1 0.102666 0.259358 0
217 1 0.119691 0.243322 0
187 1 0.136335 0.225261 0
218 1 0.12536 0.267332 0
188 1 0.142221 0.249453 0
190 1 0.159055 0.23254 0
220 1 0.163812 0.256024 0
221 1 0.181029 0.239933 0
222 1 0.185577 0.262678 0
223 1 0.202218 0.24515 0
253 1 0.207266 0.268604 0
194 1 0.218599 0.22819 0
224 1 0.223886 0.251798 0
225 1 0.24041 0.234598 0
226 1 0.246369 0.258977 0
227 1 0.262755 0.24238 0
228 1 0.28409 0.248532 0
257 1 0.267306 0.266523 0
229 1 0.299636 0.230311 0
230 1 0.304845 0.255915 0
231 1 0.321492 0.239005 0
261 1 0.326748 0.262987 0
232 1 0.342831 0.246311 0
234 1 0.36519 0.251942 0
263 1 0.34942 0.269297 0
235 1 0.380546 0.234914 0
265 1 0.387489 0.258905 0
206 1 0.403249 0.240755 0
236 1 0.408799 0.26553 0
208 1 0.44019 0.229446 0
237 1 0.424252 0.24861 0
239 1 0.445474 0.253863 0
238 1 0.430143 0.272446 0
210 1 0.461354 0.236081 0
240 1 0.4671 0.261597 0
1111 1 0.482455 0.243282 0
1112 1 0.489567 0.268448 0
1169 1 0.0122377 0.298284 0
241 1 0.0273754 0.279987 0
271 1 0.0330674 0.305681 0
242 1 0.0486155 0.287683 0
244 1 0.0712886 0.294274 0
273 1 0.0544306 0.311468 0
245 1 0.0867469 0.276893 0
246 1 0.0927017 0.301321 0
247 1 0.109139 0.284084 0
248 1 0.114994 0.307973 0
249 1 0.13125 0.291542 0
219 1 0.147078 0.273562 0
250 1 0.153778 0.297644 0
279 1 0.135872 0.315868 0
251 1 0.169921 0.280431 0
281 1 0.175963 0.304115 0
252 1 0.191835 0.28704 0
283 1 0.197313 0.311701 0
254 1 0.212967 0.294166 0
255 1 0.229188 0.275818 0
285 1 0.235005 0.299426 0
256 1 0.250954 0.283474 0
259 1 0.289604 0.274272 0
287 1 0.255967 0.30767 0
258 1 0.273271 0.291052 0
288 1 0.278325 0.315291 0
289 1 0.295316 0.298651 0
260 1 0.311496 0.280186 0
291 1 0.316663 0.30468 0
262 1 0.333107 0.286709 0
293 1 0.354426 0.293592 0
292 1 0.338157 0.311099 0
264 1 0.371034 0.275526 0
295 1 0.375949 0.299997 0
266 1 0.39238 0.284127 0
297 1 0.398036 0.308259 0
267 1 0.413935 0.29032 0
268 1 0.436167 0.297846 0
298 1 0.419434 0.314605 0
269 1 0.451358 0.27821 0
270 1 0.45694 0.304093 0
1141 1 0.472753 0.286258 0
300 1 0.47958 0.310818 0
1171 1 0.495419 0.292499 0
1200 1 0.0391483 0.330079 0
1229 1 0.0225358 0.346658 0
1170 1 0.0172701 0.322588 0
1199 1 0.000662262 0.339467 0
301 1 0.0443161 0.354382 0
275 1 0.0770636 0.319299 0
272 1 0.0612207 0.336602 0
274 1 0.0827529 0.342737 0
303 1 0.0665174 0.360735 0
276 1 0.098926 0.32542 0
305 1 0.104291 0.350867 0
277 1 0.119769 0.333868 0
307 1 0.12585 0.357353 0
278 1 0.14179 0.339005 0
280 1 0.158364 0.321847 0
311 1 0.163629 0.34554 0
282 1 0.180419 0.328933 0
312 1 0.186089 0.353188 0
313 1 0.202489 0.335599 0
314 1 0.207912 0.359734 0
284 1 0.219909 0.317983 0
315 1 0.225241 0.342457 0
286 1 0.240938 0.325769 0
316 1 0.246446 0.350326 0
317 1 0.262644 0.332399 0
319 1 0.284604 0.339437 0
318 1 0.267918 0.35747 0
290 1 0.300044 0.322798 0
320 1 0.305519 0.348535 0
321 1 0.321815 0.329845 0
322 1 0.327133 0.35447 0
294 1 0.360092 0.318061 0
323 1 0.343596 0.335672 0
325 1 0.365507 0.342608 0
324 1 0.349348 0.361208 0
296 1 0.38096 0.32437 0
326 1 0.387297 0.349525 0
327 1 0.403627 0.332724 0
328 1 0.408945 0.357272 0
299 1 0.442169 0.322721 0
329 1 0.425744 0.339966 0
359 1 0.44702 0.34672 0
330 1 0.464219 0.328301 0
360 1 0.468966 0.353859 0
1201 1 0.485577 0.335963 0
1231 1 0.490809 0.360401 0
1259 1 0.00575972 0.364502 0
1230 1 0.0275461 0.371837 0
331 1 0.0330835 0.396409 0
1260 1 0.0118771 0.38904 0
302 1 0.0497294 0.378492 0
333 1 0.070294 0.386492 0
332 1 0.0536518 0.404741 0
304 1 0.0877692 0.368803 0
335 1 0.0928215 0.393124 0
306 1 0.109321 0.375764 0
337 1 0.114338 0.400173 0
308 1 0.132441 0.380597 0
309 1 0.148149 0.363465 0
339 1 0.153315 0.389242 0
338 1 0.136083 0.405947 0
310 1 0.169504 0.371184 0
341 1 0.175291 0.395332 0
343 1 0.191502 0.378635 0
342 1 0.197125 0.402467 0
344 1 0.21306 0.385465 0
345 1 0.229204 0.367622 0
346 1 0.234498 0.39227 0
347 1 0.2514 0.375075 0
377 1 0.257206 0.39894 0
348 1 0.273302 0.38146 0
349 1 0.289268 0.364936 0
378 1 0.279646 0.405997 0
350 1 0.295112 0.388921 0
351 1 0.311785 0.372141 0
381 1 0.317812 0.395997 0
353 1 0.333132 0.378631 0
354 1 0.355288 0.384832 0
352 1 0.339548 0.403272 0
355 1 0.371496 0.366188 0
356 1 0.376514 0.391225 0
357 1 0.393114 0.37485 0
386 1 0.398499 0.398701 0
387 1 0.414671 0.381406 0
358 1 0.430403 0.363811 0
389 1 0.436656 0.388324 0
388 1 0.41987 0.404958 0
1232 1 0.452498 0.371006 0
1261 1 0.457259 0.395425 0
1262 1 0.47425 0.378521 0
1293 1 0.480141 0.402503 0
1263 1 0.496384 0.384492 0
361 1 0.0370396 0.421487 0
391 1 0.0208489 0.439389 0
1290 1 0.0164627 0.412939 0
1320 1 0.00510383 0.455801 0
362 1 0.0425243 0.445866 0
334 1 0.0759865 0.410863 0
363 1 0.0596325 0.428647 0
365 1 0.0808496 0.435623 0
364 1 0.0642431 0.453246 0
336 1 0.0973422 0.418686 0
366 1 0.102912 0.442723 0
367 1 0.12134 0.423804 0
368 1 0.12603 0.448299 0
369 1 0.142305 0.4311 0
340 1 0.158658 0.413118 0
370 1 0.164447 0.437087 0
371 1 0.181121 0.419375 0
401 1 0.185886 0.444807 0
372 1 0.2026 0.428039 0
403 1 0.208122 0.452498 0
373 1 0.218133 0.410415 0
374 1 0.224592 0.434677 0
375 1 0.240969 0.416083 0
405 1 0.246263 0.440635 0
376 1 0.262755 0.423755 0
409 1 0.283922 0.431408 0
407 1 0.267555 0.44904 0
379 1 0.300862 0.413744 0
380 1 0.305557 0.437213 0
382 1 0.322528 0.420539 0
413 1 0.328586 0.444167 0
385 1 0.360532 0.410314 0
383 1 0.344601 0.427009 0
414 1 0.366602 0.433539 0
412 1 0.349511 0.45136 0
384 1 0.382494 0.415313 0
415 1 0.387845 0.440422 0
417 1 0.40426 0.423057 0
416 1 0.409566 0.447635 0
419 1 0.441507 0.412504 0
418 1 0.425275 0.430392 0
390 1 0.447329 0.436684 0
1292 1 0.485141 0.42586 0
1291 1 0.463413 0.4183 0
1321 1 0.468891 0.44204 0
1322 1 0.490455 0.450274 0
421 1 0.00882604 0.48037 0
392 1 0.0262978 0.464162 0
422 1 0.0321277 0.487953 0
393 1 0.0483292 0.470695 0
394 1 0.0704688 0.477209 0
423 1 0.0540002 0.494571 0
395 1 0.086337 0.459713 0
396 1 0.0926612 0.484713 0
397 1 0.108541 0.466237 0
427 1 0.114261 0.489725 0
399 1 0.147675 0.454458 0
398 1 0.131012 0.472203 0
429 1 0.152562 0.47956 0
428 1 0.136648 0.497494 0
400 1 0.169131 0.461889 0
431 1 0.173513 0.487066 0
402 1 0.190351 0.470348 0
432 1 0.195829 0.495036 0
433 1 0.21146 0.477524 0
404 1 0.229344 0.459344 0
435 1 0.235054 0.483769 0
406 1 0.251371 0.465659 0
436 1 0.257094 0.490843 0
408 1 0.2727 0.472935 0
410 1 0.289344 0.455466 0
439 1 0.278842 0.498733 0
441 1 0.293832 0.479621 0
411 1 0.311352 0.461212 0
440 1 0.316256 0.486346 0
442 1 0.332286 0.468765 0
471 1 0.338187 0.493809 0
473 1 0.354409 0.47542 0
443 1 0.371538 0.459259 0
444 1 0.37604 0.483739 0
445 1 0.393198 0.465946 0
475 1 0.398191 0.490034 0
446 1 0.415228 0.472234 0
447 1 0.431303 0.454165 0
477 1 0.421205 0.496829 0
420 1 0.453044 0.46158 0
448 1 0.436861 0.478574 0
449 1 0.45836 0.485804 0
1351 1 0.481143 0.491993 0
450 1 0.474155 0.467023 0
1082 1 0.499728 0.225649 0
5 1 0.0887851 -0.00016453 0
453 1 0.0371398 0.512374 0
452 1 0.0202461 0.529434 0
451 1 0.0154784 0.504763 0
481 1 0.00447165 0.546479 0
454 1 0.0423525 0.535919 0
424 1 0.0592311 0.519612 0
455 1 0.0816583 0.526839 0
485 1 0.06468 0.544046 0
425 1 0.0764371 0.502368 0
426 1 0.0988492 0.508887 0
456 1 0.10416 0.533154 0
457 1 0.11991 0.514427 0
458 1 0.125296 0.54021 0
459 1 0.141675 0.52274 0
430 1 0.157361 0.505487 0
460 1 0.163156 0.530732 0
461 1 0.179465 0.512547 0
462 1 0.185859 0.536378 0
463 1 0.202155 0.518885 0
493 1 0.207369 0.54371 0
434 1 0.218164 0.501299 0
464 1 0.22327 0.526592 0
465 1 0.239943 0.507492 0
466 1 0.246099 0.533075 0
437 1 0.26203 0.515744 0
467 1 0.283984 0.52346 0
497 1 0.267606 0.540163 0
438 1 0.300561 0.505384 0
468 1 0.306773 0.530194 0
469 1 0.322164 0.511126 0
499 1 0.328064 0.536365 0
470 1 0.344674 0.518994 0
503 1 0.366192 0.525767 0
472 1 0.360533 0.501156 0
501 1 0.349062 0.542747 0
474 1 0.3814 0.507364 0
505 1 0.388622 0.53303 0
476 1 0.404335 0.514617 0
506 1 0.41071 0.538547 0
507 1 0.426806 0.521105 0
478 1 0.442906 0.50395 0
480 1 0.449041 0.527572 0
479 1 0.464297 0.50973 0
510 1 0.471117 0.535173 0
1381 1 0.485865 0.516454 0
1411 1 0.49276 0.541098 0
482 1 0.0318201 0.578468 0
483 1 0.0262469 0.552961 0
1410 1 0.0106965 0.571692 0
513 1 0.0481504 0.560496 0
484 1 0.0700004 0.568328 0
514 1 0.0535608 0.58493 0
486 1 0.0865754 0.55129 0
515 1 0.0927499 0.575405 0
487 1 0.109315 0.558197 0
517 1 0.114544 0.582079 0
489 1 0.147166 0.547478 0
488 1 0.130823 0.564911 0
490 1 0.152843 0.571917 0
519 1 0.135972 0.589518 0
491 1 0.169903 0.553913 0
521 1 0.175281 0.579026 0
492 1 0.191596 0.562171 0
523 1 0.197163 0.586194 0
494 1 0.214144 0.568643 0
495 1 0.229052 0.550863 0
525 1 0.235367 0.576452 0
496 1 0.251346 0.557941 0
526 1 0.256947 0.583448 0
527 1 0.273643 0.566058 0
498 1 0.288306 0.547388 0
528 1 0.279455 0.591235 0
529 1 0.295249 0.571778 0
500 1 0.311435 0.554188 0
530 1 0.317547 0.578296 0
531 1 0.333236 0.560496 0
533 1 0.355024 0.567169 0
502 1 0.37115 0.55085 0
532 1 0.339474 0.584717 0
534 1 0.377713 0.574843 0
504 1 0.394195 0.55676 0
535 1 0.399555 0.581491 0
508 1 0.415995 0.563915 0
509 1 0.432356 0.546267 0
539 1 0.43823 0.570304 0
540 1 0.454355 0.551584 0
537 1 0.421351 0.587748 0
1442 1 0.482148 0.583661 0
569 1 0.459673 0.576624 0
1441 1 0.476636 0.558827 0
1412 1 0.498409 0.566294 0
511 1 0.0137898 0.595797 0
512 1 0.036196 0.602274 0
541 1 0.0195784 0.619772 0
542 1 0.0419489 0.625853 0
1470 1 0.00290695 0.637007 0
545 1 0.0760299 0.592575 0
543 1 0.0585356 0.608849 0
546 1 0.081714 0.616034 0
544 1 0.0637671 0.632459 0
516 1 0.0984476 0.599455 0
547 1 0.103608 0.624828 0
518 1 0.120475 0.607346 0
577 1 0.126144 0.63274 0
520 1 0.159126 0.595634 0
548 1 0.141579 0.614409 0
549 1 0.164466 0.6196 0
522 1 0.181613 0.6036 0
551 1 0.187198 0.627686 0
553 1 0.20326 0.61151 0
552 1 0.208426 0.636369 0
524 1 0.219481 0.593853 0
554 1 0.225469 0.618759 0
555 1 0.241888 0.601578 0
556 1 0.246761 0.62611 0
557 1 0.263449 0.60831 0
558 1 0.285333 0.615249 0
587 1 0.268752 0.632704 0
559 1 0.301306 0.597308 0
561 1 0.323635 0.603209 0
560 1 0.307615 0.621003 0
591 1 0.329009 0.627495 0
562 1 0.345231 0.60944 0
563 1 0.361239 0.591785 0
565 1 0.366632 0.616654 0
564 1 0.350562 0.633963 0
536 1 0.382463 0.598037 0
566 1 0.388959 0.623567 0
567 1 0.404393 0.606709 0
597 1 0.410858 0.630387 0
568 1 0.426441 0.612889 0
538 1 0.443129 0.595493 0
600 1 0.449157 0.619821 0
570 1 0.465845 0.602208 0
1501 1 0.470958 0.626155 0
1471 1 0.487124 0.608884 0
1472 1 0.493409 0.632321 0
572 1 0.0296901 0.666894 0
571 1 0.0240298 0.643992 0
1500 1 0.00527594 0.662023 0
573 1 0.0460522 0.649534 0
603 1 0.0514285 0.673461 0
574 1 0.0689655 0.656158 0
575 1 0.0865254 0.640712 0
605 1 0.0913367 0.66593 0
576 1 0.109237 0.649462 0
607 1 0.112216 0.675685 0
578 1 0.130959 0.663104 0
579 1 0.148184 0.640127 0
609 1 0.152303 0.677273 0
550 1 0.169674 0.642831 0
580 1 0.173143 0.666516 0
581 1 0.191754 0.652401 0
611 1 0.194135 0.676439 0
582 1 0.212835 0.661754 0
583 1 0.229831 0.644046 0
584 1 0.235266 0.669847 0
585 1 0.252102 0.651551 0
586 1 0.273706 0.658948 0
589 1 0.289416 0.640843 0
615 1 0.25727 0.676468 0
588 1 0.296911 0.664736 0
590 1 0.311844 0.646361 0
621 1 0.31872 0.671348 0
593 1 0.334293 0.651965 0
594 1 0.355194 0.658906 0
592 1 0.340612 0.677383 0
595 1 0.371508 0.640257 0
625 1 0.377568 0.664771 0
596 1 0.394565 0.647921 0
627 1 0.40043 0.672761 0
599 1 0.433021 0.636541 0
598 1 0.416302 0.654791 0
628 1 0.439184 0.661723 0
629 1 0.454785 0.643988 0
657 1 0.422212 0.678729 0
630 1 0.461253 0.668828 0
1502 1 0.477 0.649878 0
1533 1 0.48397 0.674214 0
631 1 0.0104783 0.709811 0
602 1 0.0318418 0.701688 0
601 1 0.014965 0.685115 0
632 1 0.0283879 0.725484 0
604 1 0.0726844 0.682671 0
633 1 0.0532016 0.697219 0
635 1 0.0730177 0.709532 0
634 1 0.0518663 0.721085 0
606 1 0.0934198 0.691743 0
636 1 0.094605 0.716338 0
637 1 0.114205 0.703288 0
608 1 0.132437 0.688555 0
638 1 0.134213 0.715053 0
639 1 0.153356 0.702562 0
640 1 0.153933 0.728297 0
610 1 0.172946 0.691731 0
641 1 0.173753 0.715124 0
612 1 0.193245 0.701073 0
642 1 0.193995 0.725611 0
613 1 0.216653 0.686213 0
643 1 0.214196 0.710737 0
614 1 0.238351 0.695907 0
645 1 0.234278 0.720479 0
616 1 0.263335 0.702689 0
617 1 0.280719 0.682783 0
647 1 0.272935 0.725982 0
618 1 0.286477 0.707404 0
619 1 0.302602 0.689895 0
620 1 0.309485 0.713653 0
622 1 0.325411 0.696477 0
651 1 0.332245 0.720421 0
653 1 0.346733 0.702268 0
624 1 0.36971 0.708567 0
623 1 0.362572 0.683023 0
655 1 0.391498 0.714325 0
626 1 0.384977 0.688964 0
656 1 0.407033 0.69662 0
686 1 0.413314 0.721227 0
658 1 0.42909 0.703671 0
659 1 0.445304 0.685622 0
660 1 0.451523 0.710322 0
1531 1 0.468065 0.692218 0
1561 1 0.475414 0.716661 0
1532 1 0.489939 0.698414 0
1563 1 0.497561 0.723612 0
663 1 0.0217644 0.750527 0
661 1 0.0056221 0.733671 0
662 1 0.0383999 0.766554 0
664 1 0.0440289 0.743125 0
695 1 0.0609211 0.758885 0
665 1 0.071155 0.735975 0
666 1 0.0934388 0.741015 0
667 1 0.114567 0.728611 0
668 1 0.116436 0.754758 0
697 1 0.096874 0.767047 0
669 1 0.134738 0.741098 0
670 1 0.15509 0.753412 0
699 1 0.13571 0.76637 0
671 1 0.17449 0.739998 0
672 1 0.175183 0.765406 0
673 1 0.194439 0.750509 0
644 1 0.214427 0.735471 0
674 1 0.215008 0.761022 0
675 1 0.233846 0.747015 0
646 1 0.252237 0.733606 0
677 1 0.255416 0.758198 0
648 1 0.277029 0.749655 0
649 1 0.294523 0.732242 0
679 1 0.301358 0.756077 0
650 1 0.316888 0.73828 0
681 1 0.323977 0.762698 0
654 1 0.354072 0.726112 0
652 1 0.339525 0.745033 0
682 1 0.346634 0.768808 0
683 1 0.361683 0.751154 0
685 1 0.376187 0.732592 0
684 1 0.382587 0.758212 0
715 1 0.397316 0.739532 0
714 1 0.404029 0.763456 0
717 1 0.41955 0.745753 0
687 1 0.436108 0.727838 0
688 1 0.443655 0.753122 0
716 1 0.426937 0.769697 0
689 1 0.458228 0.735018 0
719 1 0.465415 0.75956 0
690 1 0.481411 0.741507 0
1591 1 0.487589 0.764905 0
691 1 0.0170914 0.77387 0
693 1 0.0331907 0.791365 0
721 1 0.0109155 0.798507 0
692 1 0.0277619 0.815366 0
723 1 0.0497025 0.807709 0
694 1 0.0551003 0.783011 0
696 1 0.0767085 0.77661 0
725 1 0.0711798 0.800236 0
727 1 0.0946196 0.791866 0
728 1 0.113535 0.806614 0
698 1 0.116703 0.780315 0
726 1 0.0880145 0.816328 0
700 1 0.13629 0.791819 0
701 1 0.156324 0.777951 0
731 1 0.156332 0.802926 0
729 1 0.13576 0.816893 0
703 1 0.196525 0.774394 0
702 1 0.175668 0.790559 0
733 1 0.197122 0.799004 0
732 1 0.176422 0.816055 0
705 1 0.236384 0.772024 0
704 1 0.216412 0.786578 0
735 1 0.217646 0.811683 0
706 1 0.236217 0.798687 0
678 1 0.285897 0.774924 0
676 1 0.254964 0.783629 0
737 1 0.255635 0.810571 0
707 1 0.273451 0.795458 0
738 1 0.277582 0.819553 0
709 1 0.308645 0.780711 0
708 1 0.294698 0.800878 0
710 1 0.316678 0.806098 0
680 1 0.330263 0.787518 0
713 1 0.367817 0.777281 0
711 1 0.352081 0.7949 0
741 1 0.337868 0.813278 0
712 1 0.374019 0.800298 0
743 1 0.390364 0.781623 0
745 1 0.39652 0.806212 0
746 1 0.411178 0.787381 0
775 1 0.418254 0.813233 0
718 1 0.44972 0.777231 0
747 1 0.432765 0.794638 0
749 1 0.456097 0.801377 0
720 1 0.472066 0.783399 0
1621 1 0.479399 0.808498 0
1592 1 0.4948 0.790142 0
1680 1 0.0215152 0.839713 0
752 1 0.0380188 0.857111 0
1650 1 0.00552202 0.822219 0
1709 1 0.00079601 0.847871 0
751 1 0.0438526 0.832722 0
753 1 0.0600389 0.849369 0
722 1 0.0654566 0.824582 0
724 1 0.0811621 0.840187 0
757 1 0.103616 0.833115 0
756 1 0.118206 0.851239 0
755 1 0.0974446 0.858564 0
759 1 0.138784 0.842346 0
730 1 0.156393 0.827799 0
760 1 0.156855 0.858571 0
761 1 0.175513 0.842386 0
763 1 0.198409 0.823262 0
762 1 0.197441 0.84742 0
736 1 0.237561 0.82464 0
734 1 0.217699 0.837203 0
765 1 0.237287 0.8522 0
764 1 0.214984 0.862184 0
767 1 0.258915 0.836299 0
766 1 0.269229 0.85896 0
768 1 0.285504 0.842872 0
739 1 0.300231 0.825367 0
769 1 0.30715 0.849296 0
740 1 0.32206 0.831181 0
770 1 0.328741 0.855315 0
742 1 0.359309 0.81876 0
771 1 0.342968 0.836431 0
773 1 0.365903 0.842745 0
801 1 0.350088 0.860954 0
744 1 0.381652 0.825486 0
803 1 0.387522 0.84969 0
774 1 0.403682 0.832412 0
776 1 0.409164 0.856448 0
748 1 0.440092 0.818363 0
777 1 0.425383 0.837263 0
779 1 0.446905 0.844262 0
778 1 0.431543 0.863563 0
750 1 0.462359 0.825464 0
1651 1 0.484248 0.832734 0
780 1 0.468424 0.850589 0
1652 1 0.49045 0.856014 0
781 1 0.0163711 0.864816 0
782 1 0.0330858 0.881341 0
811 1 0.0101102 0.888818 0
812 1 0.0270465 0.905726 0
813 1 0.0497479 0.897471 0
783 1 0.054541 0.87352 0
784 1 0.070789 0.890496 0
754 1 0.0756564 0.865159 0
785 1 0.0922212 0.882831 0
787 1 0.11373 0.876846 0
786 1 0.108868 0.900582 0
815 1 0.0866673 0.907431 0
788 1 0.129444 0.893648 0
758 1 0.135844 0.867388 0
789 1 0.15056 0.885383 0
790 1 0.167073 0.90187 0
791 1 0.171281 0.877128 0
823 1 0.187993 0.895993 0
792 1 0.19286 0.870721 0
793 1 0.209162 0.887218 0
795 1 0.230285 0.878976 0
794 1 0.226018 0.903399 0
825 1 0.247265 0.895585 0
796 1 0.251731 0.871783 0
827 1 0.27246 0.884192 0
797 1 0.290993 0.866744 0
798 1 0.295981 0.891372 0
799 1 0.312853 0.873966 0
829 1 0.317511 0.898385 0
800 1 0.33411 0.880223 0
802 1 0.355995 0.886135 0
772 1 0.371853 0.868118 0
831 1 0.340769 0.903955 0
804 1 0.377813 0.893701 0
805 1 0.393341 0.874914 0
806 1 0.399744 0.898939 0
807 1 0.415546 0.88122 0
809 1 0.453379 0.869113 0
808 1 0.438567 0.888398 0
837 1 0.421309 0.905302 0
810 1 0.460356 0.894745 0
1681 1 0.475222 0.875731 0
1711 1 0.482274 0.900731 0
1682 1 0.496662 0.881456 0
841 1 0.0217421 0.929738 0
842 1 0.0384787 0.946865 0
1740 1 0.00470772 0.91278 0
1769 1 0.000402977 0.938301 0
843 1 0.0444125 0.922422 0
844 1 0.0607778 0.94031 0
814 1 0.065382 0.915277 0
845 1 0.0819176 0.932696 0
816 1 0.103212 0.925379 0
847 1 0.119352 0.942788 0
846 1 0.0982081 0.950312 0
817 1 0.125075 0.9178 0
818 1 0.141391 0.936064 0
819 1 0.145997 0.910853 0
820 1 0.162778 0.927546 0
849 1 0.158463 0.952619 0
851 1 0.180236 0.944908 0
821 1 0.183545 0.920038 0
824 1 0.205273 0.912477 0
822 1 0.201427 0.936123 0
853 1 0.222752 0.927796 0
855 1 0.243708 0.919766 0
854 1 0.239884 0.944325 0
883 1 0.21779 0.953303 0
826 1 0.265231 0.911567 0
856 1 0.260666 0.935677 0
857 1 0.282637 0.927327 0
887 1 0.276739 0.952535 0
828 1 0.30383 0.917714 0
859 1 0.300497 0.943798 0
830 1 0.325657 0.922472 0
860 1 0.331882 0.947904 0
833 1 0.362366 0.911055 0
832 1 0.34673 0.929701 0
863 1 0.369346 0.935721 0
861 1 0.354662 0.953461 0
834 1 0.38437 0.917127 0
865 1 0.390984 0.940758 0
835 1 0.406652 0.923126 0
836 1 0.413272 0.94819 0
839 1 0.443423 0.912455 0
838 1 0.428233 0.930372 0
869 1 0.450698 0.938085 0
867 1 0.434854 0.95536 0
1712 1 0.488587 0.925257 0
1741 1 0.473771 0.944374 0
840 1 0.465151 0.919986 0
1742 1 0.495066 0.950459 0
1770 1 0.0172285 0.954441 0
871 1 0.0340332 0.972475 0
1800 1 0.0125053 0.979158 0
1 1 0.0281956 0.99656 0
872 1 0.0505733 0.990445 0
873 1 0.055591 0.964659 0
874 1 0.0722674 0.982587 0
875 1 0.0780998 0.958558 0
876 1 0.0939499 0.975295 0
877 1 0.114881 0.967674 0
7 1 0.110289 0.992528 0
1771 1 0.478463 0.968202 0
878 1 0.132337 0.984738 0
848 1 0.136485 0.959949 0
879 1 0.153129 0.976436 0
881 1 0.168783 0.99354 0
850 1 0.175185 0.969348 0
11 1 0.191022 0.98684 0
852 1 0.196366 0.96197 0
882 1 0.213195 0.977934 0
884 1 0.234501 0.968826 0
13 1 0.229302 0.993749 0
886 1 0.251257 0.985467 0
885 1 0.255455 0.960675 0
17 1 0.272563 0.977171 0
18 1 0.289475 0.99267 0
888 1 0.293561 0.968396 0
858 1 0.31584 0.964276 0
889 1 0.321695 0.989429 0
890 1 0.343886 0.99533 0
891 1 0.337972 0.971375 0
862 1 0.360179 0.978324 0
864 1 0.376566 0.960346 0
893 1 0.381455 0.985245 0
895 1 0.398052 0.967099 0
896 1 0.40347 0.990597 0
870 1 0.457207 0.961548 0
866 1 0.419556 0.97334 0
897 1 0.426375 0.997312 0
868 1 0.441572 0.979709 0
1772 1 0.48447 0.992528 0
899 1 0.463175 0.986512 0
902 1 0.513815 0.0244828 0
904 1 0.536224 0.0299294 0
905 1 0.528746 0.0061066 0
906 1 0.551453 0.0110316 0
935 1 0.557816 0.0349327 0
908 1 0.57397 0.0171733 0
937 1 0.579918 0.041976 0
939 1 0.596247 0.0238311 0
940 1 0.618859 0.0292082 0
941 1 0.611489 0.00472045 0
942 1 0.738597 0.0245016 0
944 1 0.755476 0.0413462 0
943 1 0.760894 0.0173197 0
914 1 0.783031 0.0101861 0
945 1 0.776619 0.0351146 0
947 1 0.799062 0.0281243 0
918 1 0.820858 0.0205528 0
916 1 0.804784 0.00477521 0
948 1 0.81567 0.0452088 0
949 1 0.837785 0.0378919 0
919 1 0.844141 0.0134859 0
920 1 0.860091 0.0310248 0
1790 1 0.864832 0.00597673 0
951 1 0.881219 0.023402 0
922 1 0.903031 0.0162135 0
952 1 0.898225 0.0411416 0
953 1 0.919574 0.0330898 0
924 1 0.925083 0.00882687 0
955 1 0.941698 0.0259743 0
925 1 0.946853 0.00111686 0
956 1 0.958052 0.0426511 0
926 1 0.963818 0.0180087 0
957 1 0.980111 0.0360939 0
928 1 0.985767 0.0109276 0
933 1 0.520493 0.0482409 0
932 1 0.504502 0.0667197 0
963 1 0.526804 0.0722776 0
962 1 0.510722 0.0894878 0
934 1 0.542575 0.0542032 0
965 1 0.548511 0.0790368 0
936 1 0.564716 0.0604388 0
966 1 0.570382 0.0856462 0
967 1 0.586923 0.0659048 0
938 1 0.602824 0.0479086 0
969 1 0.60956 0.0723544 0
971 1 0.73442 0.0495236 0
970 1 0.727173 0.0734352 0
973 1 0.749748 0.0674106 0
975 1 0.771476 0.0584996 0
974 1 0.78809 0.0755053 0
1003 1 0.766212 0.0829054 0
946 1 0.793685 0.0509547 0
976 1 0.808604 0.0690161 0
1007 1 0.826054 0.0852391 0
977 1 0.831772 0.0617252 0
979 1 0.854389 0.0549335 0
980 1 0.871331 0.0725177 0
978 1 0.848302 0.0797411 0
950 1 0.876733 0.0481076 0
981 1 0.893367 0.0652897 0
983 1 0.914637 0.0580105 0
982 1 0.910223 0.0824317 0
1011 1 0.888752 0.0888417 0
984 1 0.93195 0.0750768 0
954 1 0.936359 0.0500842 0
985 1 0.952609 0.0671839 0
987 1 0.97517 0.0610286 0
988 1 0.992224 0.0782277 0
958 1 0.996871 0.0531779 0
986 1 0.969612 0.0854988 0
964 1 0.532572 0.0969748 0
993 1 0.516061 0.114667 0
994 1 0.5379 0.121819 0
995 1 0.554462 0.103268 0
996 1 0.560135 0.128422 0
997 1 0.576394 0.110291 0
1027 1 0.582528 0.136014 0
968 1 0.592451 0.0908743 0
998 1 0.59791 0.117545 0
1000 1 0.619251 0.1256 0
1030 1 0.640351 0.133562 0
999 1 0.65671 0.115817 0
1001 1 0.678345 0.122875 0
1002 1 0.69932 0.131076 0
972 1 0.743434 0.0909601 0
1033 1 0.761134 0.106188 0
1004 1 0.782659 0.0994743 0
1065 1 0.776359 0.124699 0
1005 1 0.804809 0.0931071 0
1035 1 0.7989 0.117147 0
1006 1 0.821335 0.110833 0
1036 1 0.816608 0.135127 0
1037 1 0.837968 0.127892 0
1008 1 0.842446 0.103236 0
1039 1 0.860073 0.120661 0
1009 1 0.865182 0.0970823 0
1010 1 0.882697 0.113356 0
1012 1 0.904935 0.106869 0
1041 1 0.899217 0.130523 0
1015 1 0.948268 0.0925132 0
1043 1 0.921085 0.123915 0
1013 1 0.926054 0.0998798 0
1014 1 0.943301 0.116416 0
1017 1 0.964804 0.110023 0
1018 1 0.986689 0.102654 0
1047 1 0.981986 0.127204 0
1016 1 0.960026 0.134142 0
1023 1 0.521633 0.139537 0
1022 1 0.505806 0.157398 0
1024 1 0.527962 0.165023 0
1025 1 0.543107 0.146636 0
1055 1 0.54975 0.17148 0
1026 1 0.56563 0.152835 0
1057 1 0.570635 0.178916 0
1029 1 0.604223 0.143788 0
1028 1 0.586691 0.160752 0
1058 1 0.60816 0.168874 0
1059 1 0.62504 0.151297 0
1032 1 0.662073 0.14077 0
1060 1 0.630007 0.175757 0
1061 1 0.646354 0.158385 0
1091 1 0.651654 0.182461 0
1031 1 0.68304 0.148846 0
1062 1 0.667073 0.165892 0
1064 1 0.689237 0.172667 0
1063 1 0.705026 0.155306 0
1095 1 0.710468 0.179728 0
1034 1 0.727645 0.160873 0
1067 1 0.832795 0.152107 0
1038 1 0.855392 0.144197 0
1069 1 0.871671 0.161668 0
1068 1 0.850333 0.168213 0
1040 1 0.877843 0.137712 0
1071 1 0.894033 0.15573 0
1072 1 0.909872 0.172811 0
1070 1 0.88805 0.179348 0
1042 1 0.916099 0.148381 0
1073 1 0.932041 0.166263 0
1044 1 0.938137 0.14147 0
1045 1 0.954274 0.159205 0
1046 1 0.976037 0.152287 0
1077 1 0.992857 0.169338 0
1048 1 0.99785 0.145026 0
1075 1 0.971011 0.176047 0