ITEM: TIMESTEP
327000
ITEM: NUMBER OF ATOMS
1800
ITEM: BOX BOUNDS pp pp pp
-1.1986110599383272e+01 1.7698611059938520e+02
1.1826529217466231e+00 1.6381734707825530e+02
0.0000000000000000e+00 5.5000000000000000e+00
ITEM: ATOMS id type xs ys zs
930 1 0.0383198 0.0240281 0
929 1 0.022591 0.00647979 0
959 1 0.0172559 0.0315298 0
928 1 0.00210858 0.0132729 0
31 1 0.0537096 0.0410471 0
2 1 0.0586343 0.0161098 0
33 1 0.0736712 0.0335485 0
3 1 0.0788804 0.00959722 0
4 1 0.0944138 0.0270648 0
6 1 0.114945 0.0197459 0
5 1 0.099672 0.00222368 0
35 1 0.109871 0.0441849 0
37 1 0.129833 0.0369613 0
8 1 0.135452 0.0126212 0
39 1 0.15092 0.029198 0
880 1 0.156538 0.00516376 0
9 1 0.17174 0.0232773 0
40 1 0.186466 0.0405941 0
10 1 0.191982 0.0165688 0
41 1 0.207183 0.0331003 0
12 1 0.212245 0.00902257 0
14 1 0.227538 0.026556 0
13 1 0.233243 0.0021585 0
15 1 0.2483 0.0200417 0
46 1 0.269185 0.0173156 0
45 1 0.242636 0.0437867 0
77 1 0.273596 0.0416157 0
47 1 0.289159 0.0250313 0
19 1 0.303371 0.00650865 0
49 1 0.309146 0.0311107 0
20 1 0.323702 0.0130131 0
51 1 0.329842 0.0371245 0
21 1 0.345202 0.0185857 0
23 1 0.365403 0.025368 0
22 1 0.350104 0.0433253 0
894 1 0.379989 0.00647404 0
24 1 0.38611 0.031238 0
25 1 0.400581 0.013152 0
26 1 0.40581 0.0378355 0
27 1 0.421839 0.0206487 0
29 1 0.442176 0.026604 0
900 1 0.457086 0.00827181 0
28 1 0.427757 0.0450005 0
898 1 0.43594 0.00167075 0
902 1 0.498698 0.0207726 0
30 1 0.46255 0.0329931 0
901 1 0.477859 0.0146507 0
931 1 0.483398 0.0390959 0
988 1 0.00765106 0.0794071 0
960 1 0.0336964 0.0483036 0
989 1 0.0287078 0.0731191 0
958 1 0.0136559 0.0558862 0
61 1 0.0489362 0.0654618 0
62 1 0.064193 0.0824222 0
32 1 0.069626 0.0576527 0
990 1 0.0443104 0.0901458 0
63 1 0.084088 0.0755555 0
34 1 0.089527 0.0521886 0
65 1 0.104928 0.0685243 0
66 1 0.120276 0.08535 0
36 1 0.125861 0.0612876 0
67 1 0.140772 0.0786221 0
38 1 0.145795 0.054129 0
69 1 0.16576 0.0470275 0
68 1 0.161151 0.0719545 0
71 1 0.180923 0.064556 0
70 1 0.176539 0.0894765 0
72 1 0.196818 0.0812973 0
42 1 0.202386 0.0570981 0
43 1 0.222306 0.0512415 0
73 1 0.217337 0.074329 0
44 1 0.238165 0.0680038 0
74 1 0.262501 0.0864569 0
75 1 0.258966 0.0605613 0
76 1 0.279507 0.0669359 0
48 1 0.29413 0.0494901 0
79 1 0.299583 0.0739351 0
50 1 0.315077 0.0549355 0
81 1 0.320181 0.0794719 0
52 1 0.335421 0.0615119 0
82 1 0.340462 0.0868594 0
83 1 0.356309 0.0687348 0
53 1 0.371472 0.0503969 0
54 1 0.376885 0.0753866 0
55 1 0.391752 0.0562932 0
56 1 0.397302 0.0802341 0
57 1 0.41155 0.0627235 0
87 1 0.417744 0.0878153 0
58 1 0.433708 0.0697093 0
59 1 0.448222 0.0510266 0
89 1 0.454346 0.0756853 0
932 1 0.489464 0.0641666 0
60 1 0.468235 0.0578633 0
961 1 0.474831 0.0814592 0
962 1 0.495248 0.0898215 0
1020 1 0.0380122 0.114792 0
1019 1 0.0230264 0.0977971 0
1049 1 0.0179348 0.122218 0
1018 1 0.002272 0.103759 0
121 1 0.0530492 0.131757 0
91 1 0.0583024 0.107542 0
92 1 0.0738307 0.124715 0
93 1 0.0790085 0.100334 0
64 1 0.0996332 0.0931921 0
94 1 0.0944284 0.116715 0
95 1 0.114981 0.110273 0
125 1 0.109945 0.133844 0
96 1 0.131228 0.126644 0
97 1 0.13537 0.102896 0
98 1 0.151274 0.120566 0
99 1 0.155993 0.0966933 0
100 1 0.172461 0.114259 0
130 1 0.189353 0.132232 0
101 1 0.192197 0.10632 0
102 1 0.208385 0.121905 0
103 1 0.213203 0.0989169 0
104 1 0.230493 0.118186 0
105 1 0.233519 0.091956 0
106 1 0.249989 0.10572 0
137 1 0.25457 0.128862 0
107 1 0.270305 0.110849 0
78 1 0.28416 0.091901 0
109 1 0.290509 0.115664 0
108 1 0.274799 0.134531 0
80 1 0.305874 0.098734 0
110 1 0.31101 0.122449 0
111 1 0.325981 0.105277 0
141 1 0.331007 0.129664 0
113 1 0.34717 0.111474 0
84 1 0.362362 0.0933186 0
112 1 0.367333 0.118653 0
85 1 0.383281 0.0998241 0
143 1 0.35201 0.135269 0
115 1 0.388531 0.123909 0
86 1 0.403731 0.10598 0
116 1 0.410644 0.129672 0
88 1 0.438542 0.0934798 0
117 1 0.425479 0.112252 0
119 1 0.445349 0.11847 0
90 1 0.460422 0.099851 0
118 1 0.431014 0.136799 0
120 1 0.465806 0.125399 0
991 1 0.48054 0.107955 0
992 1 0.486421 0.131919 0
1050 1 0.0326276 0.139462 0
1079 1 0.0270843 0.163989 0
1048 1 0.0125211 0.14656 0
1077 1 0.00662659 0.17195 0
151 1 0.04818 0.157705 0
122 1 0.0686171 0.149719 0
152 1 0.0638599 0.175768 0
1080 1 0.0434064 0.182508 0
153 1 0.0843015 0.166123 0
123 1 0.0893007 0.141373 0
124 1 0.105562 0.15796 0
155 1 0.12146 0.175594 0
126 1 0.125857 0.151519 0
157 1 0.141848 0.168012 0
127 1 0.145875 0.144564 0
129 1 0.165865 0.138411 0
128 1 0.162819 0.16435 0
159 1 0.181874 0.154857 0
132 1 0.188795 0.176694 0
131 1 0.202823 0.157855 0
133 1 0.219283 0.142234 0
134 1 0.224414 0.16572 0
163 1 0.208923 0.183144 0
135 1 0.239895 0.146214 0
165 1 0.244957 0.170923 0
136 1 0.26009 0.152867 0
167 1 0.265825 0.177273 0
138 1 0.280815 0.157765 0
139 1 0.295143 0.14007 0
169 1 0.301681 0.164582 0
140 1 0.316281 0.147094 0
171 1 0.322005 0.171715 0
142 1 0.337421 0.152981 0
172 1 0.342838 0.178264 0
173 1 0.358197 0.159171 0
114 1 0.374117 0.141916 0
144 1 0.379195 0.165504 0
145 1 0.395264 0.148069 0
146 1 0.400275 0.17256 0
147 1 0.415178 0.15383 0
177 1 0.420274 0.179595 0
148 1 0.43571 0.161901 0
149 1 0.450627 0.143925 0
150 1 0.456337 0.16848 0
1051 1 0.476725 0.173636 0
1021 1 0.471003 0.149983 0
1022 1 0.492056 0.156403 0
1053 1 0.497516 0.181602 0
1107 1 0.0170187 0.213203 0
1078 1 0.0233682 0.188998 0
1109 1 0.038519 0.207743 0
1076 1 0.00127833 0.196175 0
181 1 0.0591073 0.200487 0
182 1 0.0672495 0.22383 0
183 1 0.0811509 0.192434 0
154 1 0.101242 0.182563 0
185 1 0.0975191 0.209539 0
156 1 0.116393 0.19876 0
186 1 0.123679 0.221994 0
158 1 0.137362 0.203322 0
160 1 0.153154 0.187662 0
189 1 0.158483 0.210664 0
161 1 0.173613 0.192657 0
191 1 0.179454 0.216903 0
162 1 0.195041 0.200067 0
192 1 0.199592 0.224478 0
193 1 0.214686 0.206984 0
164 1 0.230254 0.189395 0
195 1 0.236268 0.212592 0
166 1 0.251267 0.194735 0
196 1 0.256637 0.219509 0
168 1 0.28649 0.183049 0
197 1 0.271715 0.201151 0
199 1 0.292262 0.208426 0
198 1 0.277306 0.225869 0
170 1 0.306117 0.189546 0
200 1 0.3123 0.214515 0
201 1 0.327787 0.195784 0
202 1 0.333627 0.220417 0
174 1 0.363642 0.183638 0
203 1 0.349476 0.202232 0
204 1 0.369408 0.207953 0
233 1 0.354509 0.22649 0
175 1 0.384936 0.190345 0
205 1 0.390031 0.214994 0
176 1 0.405495 0.197899 0
207 1 0.411106 0.222227 0
179 1 0.441123 0.186158 0
178 1 0.42636 0.204064 0
209 1 0.446237 0.211224 0
180 1 0.461265 0.192881 0
1081 1 0.467081 0.217327 0
1052 1 0.482568 0.199784 0
1082 1 0.48871 0.223779 0
1140 1 0.0346167 0.257998 0
1110 1 0.0301461 0.232113 0
1108 1 0.0138389 0.248127 0
211 1 0.0502131 0.24076 0
212 1 0.0558295 0.265448 0
213 1 0.0712183 0.248873 0
243 1 0.0760632 0.273638 0
184 1 0.0875566 0.231605 0
214 1 0.0925202 0.257227 0
215 1 0.107997 0.239546 0
216 1 0.112654 0.26443 0
187 1 0.1436 0.229261 0
217 1 0.128071 0.246417 0
218 1 0.132884 0.270825 0
188 1 0.148461 0.253126 0
190 1 0.163609 0.234944 0
220 1 0.169289 0.259634 0
221 1 0.184044 0.241963 0
222 1 0.190006 0.266596 0
223 1 0.204997 0.247379 0
194 1 0.220864 0.230035 0
224 1 0.226415 0.254663 0
225 1 0.2417 0.23736 0
226 1 0.24743 0.261752 0
227 1 0.262213 0.243998 0
257 1 0.268379 0.267725 0
228 1 0.282749 0.249848 0
229 1 0.298404 0.232763 0
230 1 0.304098 0.256977 0
231 1 0.318748 0.238346 0
261 1 0.325223 0.262848 0
232 1 0.339505 0.244417 0
263 1 0.345732 0.269906 0
234 1 0.360378 0.250652 0
235 1 0.374697 0.232551 0
265 1 0.380918 0.257529 0
206 1 0.395807 0.239872 0
236 1 0.401452 0.263886 0
237 1 0.416243 0.246007 0
238 1 0.422542 0.270039 0
208 1 0.431713 0.228738 0
239 1 0.43702 0.252345 0
210 1 0.452616 0.235238 0
240 1 0.457752 0.259147 0
1142 1 0.50034 0.27293 0
1111 1 0.473638 0.241583 0
1112 1 0.479234 0.266095 0
1113 1 0.493694 0.248223 0
1138 1 0.00441255 0.293821 0
1139 1 0.0197636 0.275941 0
1169 1 0.024514 0.300956 0
1168 1 0.00865181 0.317095 0
241 1 0.0404115 0.28365 0
271 1 0.0449014 0.308725 0
242 1 0.06032 0.29078 0
273 1 0.065212 0.314889 0
244 1 0.0811063 0.298437 0
245 1 0.0968047 0.280837 0
246 1 0.100767 0.305705 0
247 1 0.11676 0.288488 0
248 1 0.122356 0.311842 0
249 1 0.137885 0.294648 0
219 1 0.152676 0.277756 0
250 1 0.158033 0.302203 0
251 1 0.174169 0.283575 0
281 1 0.179645 0.30802 0
253 1 0.210867 0.272206 0
252 1 0.195183 0.290211 0
283 1 0.201067 0.313944 0
254 1 0.216723 0.296539 0
255 1 0.2318 0.278882 0
285 1 0.237008 0.304402 0
256 1 0.252447 0.286474 0
287 1 0.257483 0.310548 0
259 1 0.288335 0.274594 0
258 1 0.272311 0.292251 0
288 1 0.277991 0.316798 0
289 1 0.292752 0.299248 0
260 1 0.309389 0.281341 0
291 1 0.31396 0.30537 0
262 1 0.330204 0.286929 0
292 1 0.334155 0.312427 0
293 1 0.35026 0.294794 0
264 1 0.365908 0.275657 0
295 1 0.37148 0.301064 0
266 1 0.386281 0.282016 0
297 1 0.39221 0.306794 0
267 1 0.406559 0.287189 0
298 1 0.412472 0.313915 0
268 1 0.428074 0.294785 0
269 1 0.442724 0.277307 0
270 1 0.447521 0.302422 0
1141 1 0.463935 0.284231 0
300 1 0.469163 0.308276 0
1171 1 0.484546 0.29072 0
1172 1 0.490496 0.314894 0
1229 1 0.0347714 0.350049 0
1170 1 0.0292233 0.325044 0
1199 1 0.013585 0.342219 0
1200 1 0.0506156 0.332778 0
301 1 0.0552095 0.357102 0
272 1 0.0710811 0.339694 0
303 1 0.0767106 0.36459 0
275 1 0.085473 0.322745 0
274 1 0.0909968 0.345901 0
276 1 0.106936 0.329428 0
305 1 0.112223 0.353134 0
279 1 0.14248 0.319271 0
277 1 0.127552 0.336453 0
278 1 0.148644 0.343869 0
307 1 0.132538 0.360407 0
280 1 0.163324 0.32614 0
311 1 0.169295 0.350399 0
282 1 0.184953 0.332111 0
312 1 0.190073 0.356259 0
313 1 0.205414 0.337977 0
284 1 0.221366 0.320839 0
315 1 0.225915 0.345298 0
286 1 0.242156 0.327957 0
316 1 0.247218 0.352075 0
317 1 0.263116 0.334808 0
318 1 0.267354 0.360212 0
319 1 0.282764 0.341094 0
290 1 0.298612 0.323517 0
320 1 0.303696 0.347572 0
321 1 0.318813 0.329774 0
322 1 0.324812 0.353728 0
323 1 0.340095 0.335932 0
324 1 0.344881 0.360762 0
294 1 0.355355 0.318666 0
325 1 0.360173 0.343565 0
296 1 0.375602 0.325749 0
326 1 0.381325 0.349956 0
327 1 0.397833 0.332286 0
328 1 0.402755 0.356939 0
329 1 0.417795 0.338946 0
358 1 0.423599 0.3627 0
299 1 0.433271 0.320806 0
359 1 0.438991 0.344947 0
330 1 0.454184 0.325945 0
360 1 0.459485 0.350518 0
1202 1 0.495111 0.338885 0
1201 1 0.474542 0.333335 0
1231 1 0.480137 0.358125 0
1259 1 0.0194696 0.366368 0
1260 1 0.0236014 0.393279 0
1258 1 0.003528 0.384828 0
1289 1 0.00919402 0.410317 0
1230 1 0.038924 0.375616 0
331 1 0.0447104 0.39918 0
302 1 0.060185 0.381235 0
332 1 0.0669706 0.405995 0
333 1 0.0828136 0.388807 0
304 1 0.0973968 0.370519 0
335 1 0.102948 0.396254 0
306 1 0.118148 0.378836 0
337 1 0.124487 0.402607 0
308 1 0.139006 0.384849 0
309 1 0.154263 0.367571 0
339 1 0.159445 0.392361 0
310 1 0.175025 0.374289 0
341 1 0.17968 0.39887 0
314 1 0.210602 0.363658 0
343 1 0.195852 0.38158 0
342 1 0.200995 0.405185 0
344 1 0.21661 0.388419 0
345 1 0.230697 0.369907 0
346 1 0.237235 0.395854 0
347 1 0.251614 0.377641 0
377 1 0.257351 0.401215 0
349 1 0.288376 0.364914 0
348 1 0.273822 0.383254 0
350 1 0.294804 0.388856 0
378 1 0.278499 0.407199 0
351 1 0.309237 0.371557 0
381 1 0.315507 0.396324 0
353 1 0.330708 0.378972 0
352 1 0.335299 0.403151 0
354 1 0.351571 0.38468 0
355 1 0.366265 0.367909 0
356 1 0.371513 0.392458 0
357 1 0.386874 0.375406 0
386 1 0.392611 0.399126 0
387 1 0.4075 0.380973 0
388 1 0.413513 0.405654 0
389 1 0.427986 0.387071 0
1232 1 0.444177 0.368787 0
1261 1 0.44994 0.392926 0
1262 1 0.464448 0.375049 0
1293 1 0.470054 0.400153 0
1263 1 0.485144 0.38242 0
1294 1 0.490102 0.407122 0
1319 1 0.0143918 0.434615 0
391 1 0.0360137 0.441633 0
1290 1 0.0298877 0.417711 0
361 1 0.0509301 0.423819 0
362 1 0.0568464 0.448712 0
363 1 0.0723293 0.430896 0
364 1 0.0778083 0.455777 0
334 1 0.0879989 0.413643 0
365 1 0.0925038 0.438247 0
336 1 0.108892 0.419668 0
366 1 0.113728 0.444758 0
338 1 0.14478 0.409703 0
367 1 0.130143 0.427603 0
369 1 0.150247 0.434188 0
368 1 0.135278 0.451567 0
340 1 0.164531 0.416148 0
370 1 0.170114 0.440778 0
371 1 0.185309 0.422668 0
401 1 0.190798 0.447207 0
372 1 0.205916 0.428962 0
373 1 0.221796 0.412015 0
374 1 0.227804 0.43638 0
375 1 0.242903 0.419415 0
405 1 0.248708 0.443109 0
376 1 0.263984 0.425505 0
407 1 0.269093 0.449596 0
409 1 0.284187 0.431401 0
379 1 0.300087 0.413578 0
380 1 0.30502 0.438022 0
382 1 0.32066 0.421348 0
413 1 0.325299 0.445792 0
383 1 0.340966 0.428736 0
412 1 0.347174 0.452531 0
385 1 0.356057 0.409392 0
414 1 0.36187 0.435145 0
384 1 0.376966 0.416689 0
415 1 0.382773 0.441602 0
417 1 0.397708 0.42331 0
416 1 0.403159 0.448004 0
418 1 0.418575 0.429481 0
447 1 0.424603 0.453437 0
419 1 0.435139 0.411022 0
390 1 0.439379 0.436961 0
1291 1 0.455173 0.418156 0
1321 1 0.459766 0.442833 0
1323 1 0.496139 0.430821 0
1292 1 0.475525 0.42452 0
1322 1 0.480929 0.448944 0
1320 1 0.0198629 0.458077 0
421 1 0.0256242 0.483204 0
1349 1 0.00491056 0.476483 0
392 1 0.0410186 0.466231 0
422 1 0.0465383 0.4912 0
393 1 0.061272 0.473444 0
423 1 0.0680533 0.497605 0
394 1 0.0828075 0.479808 0
395 1 0.0986485 0.462969 0
396 1 0.103279 0.486667 0
397 1 0.11991 0.469621 0
427 1 0.124092 0.494065 0
398 1 0.140407 0.476799 0
399 1 0.155391 0.459293 0
429 1 0.161156 0.483007 0
400 1 0.177434 0.465421 0
431 1 0.18235 0.489346 0
403 1 0.212327 0.453109 0
402 1 0.197785 0.470998 0
432 1 0.202562 0.495902 0
433 1 0.21783 0.477565 0
404 1 0.233366 0.46095 0
435 1 0.238634 0.485336 0
406 1 0.254395 0.468011 0
436 1 0.259008 0.491971 0
408 1 0.273816 0.474528 0
410 1 0.289751 0.455643 0
441 1 0.294985 0.481123 0
439 1 0.280068 0.498569 0
411 1 0.310184 0.462557 0
440 1 0.315898 0.487845 0
442 1 0.330541 0.47033 0
471 1 0.337415 0.49503 0
473 1 0.352569 0.476573 0
443 1 0.367456 0.458888 0
444 1 0.373328 0.482009 0
445 1 0.388156 0.465333 0
475 1 0.39278 0.489435 0
446 1 0.408937 0.47197 0
477 1 0.413963 0.496128 0
448 1 0.429478 0.477971 0
420 1 0.445255 0.460265 0
449 1 0.450357 0.484552 0
450 1 0.46541 0.466763 0
1353 1 0.485826 0.473798 0
1351 1 0.471277 0.49069 0
1352 1 0.491755 0.4993 0
452 1 0.0355054 0.533437 0
451 1 0.0306005 0.508064 0
1380 1 0.0135113 0.525908 0
1350 1 0.00968502 0.501733 0
453 1 0.051083 0.514427 0
454 1 0.0557797 0.538645 0
424 1 0.0725147 0.521919 0
425 1 0.0884167 0.50464 0
455 1 0.0931065 0.528815 0
426 1 0.108431 0.511168 0
456 1 0.114191 0.535494 0
457 1 0.129839 0.517364 0
459 1 0.150412 0.524642 0
458 1 0.134546 0.542189 0
428 1 0.145514 0.499791 0
430 1 0.166693 0.506472 0
460 1 0.171532 0.530748 0
461 1 0.186942 0.514145 0
462 1 0.193306 0.538159 0
463 1 0.208314 0.520757 0
434 1 0.223 0.502623 0
464 1 0.229022 0.528493 0
465 1 0.24375 0.509996 0
466 1 0.250032 0.53431 0
437 1 0.26402 0.515827 0
497 1 0.269968 0.541295 0
467 1 0.285715 0.522908 0
438 1 0.300288 0.505407 0
468 1 0.305795 0.529877 0
469 1 0.320716 0.511778 0
499 1 0.326913 0.536738 0
470 1 0.341785 0.519386 0
503 1 0.362648 0.525739 0
501 1 0.347277 0.54388 0
474 1 0.37761 0.507416 0
505 1 0.38318 0.531146 0
472 1 0.357784 0.500875 0
476 1 0.399038 0.51316 0
506 1 0.404535 0.538939 0
507 1 0.419343 0.520865 0
480 1 0.440207 0.527073 0
479 1 0.456212 0.508815 0
478 1 0.435593 0.503203 0
510 1 0.46087 0.532523 0
1382 1 0.498157 0.522424 0
1381 1 0.477022 0.51628 0
1411 1 0.482418 0.540348 0
481 1 0.0196104 0.550172 0
1410 1 0.0253826 0.574424 0
1408 1 0.00433255 0.568411 0
483 1 0.0408648 0.55713 0
482 1 0.0464848 0.582836 0
513 1 0.0623027 0.563751 0
514 1 0.0677217 0.587835 0
485 1 0.0773508 0.546284 0
484 1 0.0830314 0.570457 0
486 1 0.0980194 0.553163 0
515 1 0.104195 0.57721 0
487 1 0.119047 0.559285 0
517 1 0.124565 0.585317 0
488 1 0.139198 0.566652 0
489 1 0.155537 0.549699 0
490 1 0.159935 0.574319 0
491 1 0.17667 0.556938 0
521 1 0.181488 0.581232 0
493 1 0.213244 0.545827 0
492 1 0.197575 0.564111 0
523 1 0.202727 0.588247 0
494 1 0.218261 0.570411 0
495 1 0.233953 0.552355 0
525 1 0.240111 0.577623 0
496 1 0.254684 0.559731 0
526 1 0.260067 0.584278 0
527 1 0.275133 0.566118 0
498 1 0.290645 0.548182 0
529 1 0.296146 0.572909 0
528 1 0.280575 0.591002 0
500 1 0.311908 0.55416 0
530 1 0.317288 0.578627 0
531 1 0.333087 0.56126 0
532 1 0.338121 0.584994 0
533 1 0.354288 0.567697 0
502 1 0.369633 0.550129 0
534 1 0.374953 0.57504 0
504 1 0.390025 0.556335 0
535 1 0.395646 0.581143 0
508 1 0.410546 0.563199 0
537 1 0.41554 0.588119 0
509 1 0.424847 0.544765 0
539 1 0.429895 0.568778 0
540 1 0.446018 0.550532 0
569 1 0.451388 0.574914 0
1443 1 0.494975 0.588996 0
1442 1 0.473594 0.581403 0
1441 1 0.466347 0.557604 0
1412 1 0.488561 0.564079 0
511 1 0.0317991 0.601013 0
1440 1 0.0134385 0.619479 0
1439 1 0.0111405 0.593138 0
541 1 0.0376083 0.625041 0
512 1 0.0528061 0.607015 0
542 1 0.057669 0.631037 0
543 1 0.07373 0.612283 0
545 1 0.0892476 0.594497 0
546 1 0.0944608 0.619408 0
516 1 0.110097 0.60271 0
544 1 0.0787329 0.636166 0
519 1 0.145528 0.59118 0
547 1 0.114855 0.626918 0
518 1 0.130484 0.609236 0
548 1 0.15076 0.616129 0
577 1 0.135772 0.633996 0
520 1 0.166218 0.599081 0
549 1 0.172255 0.622581 0
522 1 0.187575 0.605455 0
551 1 0.193478 0.629007 0
553 1 0.209159 0.611974 0
524 1 0.223932 0.594501 0
554 1 0.230022 0.618971 0
552 1 0.213585 0.635961 0
555 1 0.245407 0.601831 0
556 1 0.250718 0.626591 0
557 1 0.265829 0.608799 0
558 1 0.28703 0.614963 0
587 1 0.271934 0.632456 0
559 1 0.301854 0.597374 0
560 1 0.307918 0.621879 0
561 1 0.322456 0.603022 0
591 1 0.328689 0.628183 0
562 1 0.343424 0.609909 0
563 1 0.359628 0.591675 0
565 1 0.364806 0.616496 0
564 1 0.349143 0.634711 0
536 1 0.380173 0.599086 0
566 1 0.385298 0.622541 0
567 1 0.400895 0.605741 0
597 1 0.406067 0.630667 0
568 1 0.421707 0.611719 0
538 1 0.436712 0.592919 0
600 1 0.443572 0.618253 0
570 1 0.458696 0.600176 0
1501 1 0.463343 0.625413 0
1471 1 0.479042 0.606641 0
1472 1 0.484398 0.630299 0
1473 1 0.499812 0.612936 0
1470 1 0.0219188 0.642016 0
1500 1 0.0174054 0.666858 0
1499 1 0.00150108 0.649293 0
571 1 0.0426989 0.649445 0
572 1 0.0498245 0.67218 0
573 1 0.064343 0.654251 0
603 1 0.0694876 0.679159 0
574 1 0.0850132 0.661663 0
575 1 0.0998627 0.644289 0
605 1 0.105527 0.669303 0
576 1 0.120697 0.651882 0
607 1 0.127084 0.67581 0
578 1 0.142312 0.657988 0
579 1 0.15717 0.640208 0
609 1 0.16318 0.665448 0
550 1 0.178093 0.646906 0
580 1 0.183743 0.671892 0
581 1 0.198821 0.654443 0
611 1 0.204663 0.678107 0
582 1 0.219744 0.660328 0
583 1 0.234343 0.642696 0
584 1 0.240819 0.666915 0
585 1 0.25682 0.651003 0
615 1 0.261107 0.674434 0
586 1 0.276993 0.657186 0
589 1 0.292054 0.639191 0
588 1 0.297792 0.663258 0
617 1 0.282931 0.682336 0
590 1 0.313582 0.645965 0
621 1 0.318836 0.670266 0
593 1 0.334107 0.652986 0
592 1 0.340138 0.676642 0
594 1 0.3549 0.658717 0
595 1 0.37056 0.641383 0
625 1 0.375882 0.665924 0
596 1 0.391061 0.64842 0
627 1 0.396344 0.672797 0
598 1 0.41129 0.654851 0
657 1 0.418079 0.679394 0
599 1 0.427113 0.635839 0
628 1 0.433412 0.661879 0
629 1 0.448285 0.64254 0
630 1 0.454252 0.666917 0
1503 1 0.490252 0.655084 0
1502 1 0.469197 0.649775 0
1533 1 0.474628 0.674439 0
1504 1 0.495316 0.679916 0
601 1 0.0326051 0.684242 0
631 1 0.0282181 0.708331 0
1530 1 0.0120539 0.69122 0
1560 1 0.00748805 0.715023 0
602 1 0.0508633 0.6984 0
633 1 0.0737789 0.704177 0
632 1 0.0448771 0.724167 0
604 1 0.0896448 0.686114 0
635 1 0.0939497 0.710583 0
606 1 0.110964 0.693496 0
636 1 0.116015 0.718835 0
608 1 0.147585 0.681629 0
637 1 0.131861 0.699921 0
638 1 0.152559 0.70786 0
667 1 0.136604 0.725795 0
639 1 0.167619 0.690075 0
641 1 0.173462 0.71455 0
610 1 0.189202 0.696299 0
642 1 0.194931 0.720638 0
612 1 0.210449 0.702519 0
613 1 0.225448 0.684869 0
644 1 0.21685 0.728531 0
643 1 0.231597 0.710311 0
614 1 0.24686 0.692108 0
645 1 0.251712 0.717245 0
616 1 0.266974 0.69934 0
647 1 0.272834 0.72323 0
618 1 0.288414 0.705615 0
619 1 0.304 0.687583 0
620 1 0.308914 0.712129 0
622 1 0.324889 0.694193 0
651 1 0.330581 0.718807 0
653 1 0.346723 0.701125 0
623 1 0.361909 0.683028 0
624 1 0.367239 0.708838 0
626 1 0.381864 0.690649 0
654 1 0.351042 0.725666 0
655 1 0.387941 0.715368 0
656 1 0.402601 0.696938 0
686 1 0.408558 0.721228 0
658 1 0.42399 0.704189 0
659 1 0.439246 0.684845 0
660 1 0.444451 0.709298 0
1531 1 0.460028 0.691755 0
1561 1 0.465399 0.716103 0
1532 1 0.480815 0.698821 0
1563 1 0.485228 0.724449 0
1589 1 0.00185921 0.738738 0
661 1 0.0234797 0.732328 0
1590 1 0.0193275 0.756073 0
663 1 0.0398845 0.749393 0
662 1 0.055232 0.766705 0
664 1 0.0611652 0.741989 0
634 1 0.0799024 0.729557 0
695 1 0.083472 0.755201 0
665 1 0.100638 0.735888 0
697 1 0.106061 0.760612 0
666 1 0.121019 0.743377 0
668 1 0.126679 0.767414 0
669 1 0.143104 0.75046 0
699 1 0.148032 0.775113 0
640 1 0.158481 0.733022 0
670 1 0.164259 0.755831 0
671 1 0.179912 0.738625 0
672 1 0.186135 0.762614 0
673 1 0.200884 0.744577 0
703 1 0.206809 0.769463 0
674 1 0.22225 0.752872 0
675 1 0.236904 0.735469 0
705 1 0.242317 0.75917 0
646 1 0.257776 0.741282 0
677 1 0.263991 0.766399 0
648 1 0.278608 0.74783 0
649 1 0.293585 0.73006 0
679 1 0.299769 0.754375 0
678 1 0.284379 0.772539 0
650 1 0.314588 0.736252 0
681 1 0.320717 0.762296 0
652 1 0.335815 0.743753 0
682 1 0.341595 0.768556 0
683 1 0.356307 0.750033 0
685 1 0.372431 0.732821 0
684 1 0.378293 0.756681 0
715 1 0.393313 0.738817 0
714 1 0.398933 0.763763 0
717 1 0.414234 0.745521 0
716 1 0.419239 0.770438 0
687 1 0.429477 0.727258 0
688 1 0.434256 0.753335 0
689 1 0.449296 0.734429 0
719 1 0.454715 0.759264 0
690 1 0.469528 0.7419 0
1591 1 0.476207 0.766246 0
1562 1 0.491054 0.748402 0
1593 1 0.496831 0.771975 0
691 1 0.0344902 0.774049 0
721 1 0.0283618 0.799407 0
1620 1 0.0138953 0.780927 0
1649 1 0.00754589 0.806144 0
693 1 0.0501147 0.792379 0
723 1 0.0653658 0.809079 0
694 1 0.0711981 0.784512 0
692 1 0.0434413 0.81696 0
725 1 0.0852614 0.802098 0
696 1 0.0918539 0.778261 0
727 1 0.106906 0.795944 0
728 1 0.120518 0.814342 0
698 1 0.129471 0.79062 0
700 1 0.140547 0.810722 0
731 1 0.157258 0.797035 0
701 1 0.170794 0.77858 0
732 1 0.175876 0.806686 0
702 1 0.191187 0.787557 0
763 1 0.196809 0.812181 0
733 1 0.211475 0.794092 0
704 1 0.228042 0.776349 0
706 1 0.233316 0.800159 0
676 1 0.248938 0.783502 0
737 1 0.253397 0.806987 0
707 1 0.268508 0.790195 0
738 1 0.274803 0.815185 0
708 1 0.289427 0.797038 0
709 1 0.304587 0.778959 0
710 1 0.310696 0.802968 0
680 1 0.326475 0.785882 0
741 1 0.33256 0.810655 0
713 1 0.362341 0.774071 0
711 1 0.348528 0.793269 0
712 1 0.368936 0.79933 0
742 1 0.353822 0.817186 0
743 1 0.383412 0.781433 0
745 1 0.389234 0.805343 0
746 1 0.403724 0.78806 0
775 1 0.410051 0.812916 0
718 1 0.439687 0.777984 0
747 1 0.424399 0.794782 0
749 1 0.446563 0.801504 0
720 1 0.460835 0.782844 0
1621 1 0.467141 0.807616 0
1592 1 0.482584 0.790936 0
1622 1 0.488701 0.815409 0
1650 1 0.0228807 0.823937 0
1709 1 0.0185057 0.847786 0
1679 1 0.00217714 0.830956 0
1680 1 0.0385096 0.841723 0
752 1 0.0543169 0.857798 0
751 1 0.0594692 0.833276 0
753 1 0.0741734 0.851874 0
722 1 0.0802528 0.827559 0
726 1 0.100476 0.821095 0
724 1 0.0951575 0.845548 0
755 1 0.11004 0.863503 0
757 1 0.115332 0.839191 0
756 1 0.130252 0.857182 0
729 1 0.136047 0.833607 0
759 1 0.152982 0.848972 0
730 1 0.159184 0.823695 0
761 1 0.181247 0.830002 0
792 1 0.187135 0.855987 0
735 1 0.218523 0.819792 0
762 1 0.202343 0.837746 0
734 1 0.224097 0.843244 0
764 1 0.20912 0.862007 0
736 1 0.239277 0.825467 0
765 1 0.245505 0.84977 0
767 1 0.259767 0.831573 0
766 1 0.266265 0.856663 0
768 1 0.28141 0.838909 0
739 1 0.296268 0.820834 0
769 1 0.30201 0.845872 0
740 1 0.317336 0.82817 0
770 1 0.323359 0.852524 0
771 1 0.338375 0.835473 0
801 1 0.344313 0.859025 0
773 1 0.359555 0.841526 0
744 1 0.374353 0.82379 0
803 1 0.38104 0.847976 0
774 1 0.39509 0.830408 0
776 1 0.401231 0.854845 0
777 1 0.416255 0.835946 0
778 1 0.422461 0.860939 0
748 1 0.431309 0.818389 0
779 1 0.437787 0.843662 0
750 1 0.451852 0.825786 0
780 1 0.458276 0.85009 0
1651 1 0.472711 0.832821 0
1652 1 0.478845 0.856531 0
1653 1 0.494485 0.839242 0
781 1 0.0333988 0.86621 0
1710 1 0.0139791 0.873358 0
811 1 0.0296972 0.891057 0
1739 1 0.00880873 0.897981 0
782 1 0.049614 0.883452 0
813 1 0.0651546 0.902316 0
783 1 0.0697109 0.87653 0
812 1 0.0446993 0.907657 0
784 1 0.0848457 0.89464 0
754 1 0.0902218 0.869653 0
785 1 0.106293 0.887488 0
786 1 0.12178 0.905352 0
787 1 0.126531 0.88164 0
788 1 0.142647 0.898382 0
758 1 0.146579 0.8726 0
760 1 0.167546 0.867485 0
789 1 0.162907 0.891683 0
791 1 0.184769 0.88225 0
790 1 0.178959 0.907655 0
823 1 0.199803 0.901886 0
793 1 0.216441 0.88732 0
795 1 0.230907 0.867575 0
794 1 0.237002 0.893034 0
796 1 0.251685 0.874718 0
825 1 0.257788 0.898893 0
797 1 0.287739 0.863716 0
827 1 0.272257 0.881303 0
826 1 0.279133 0.906467 0
798 1 0.29298 0.888122 0
799 1 0.308075 0.870194 0
829 1 0.314149 0.894203 0
800 1 0.329561 0.876073 0
831 1 0.33475 0.901358 0
802 1 0.349774 0.883769 0
772 1 0.365257 0.865546 0
804 1 0.370938 0.889933 0
833 1 0.355802 0.908163 0
805 1 0.385579 0.872599 0
806 1 0.391443 0.897201 0
807 1 0.407519 0.879049 0
837 1 0.412584 0.904083 0
809 1 0.442766 0.868547 0
808 1 0.427551 0.886624 0
810 1 0.448938 0.89323 0
1683 1 0.500027 0.863769 0
1681 1 0.463346 0.874077 0
1711 1 0.469504 0.899487 0
1682 1 0.483894 0.880654 0
1713 1 0.490062 0.904838 0
1740 1 0.0248651 0.915019 0
1769 1 0.0185731 0.940155 0
1738 1 0.00310905 0.922896 0
841 1 0.038654 0.932611 0
842 1 0.0534817 0.951125 0
843 1 0.0592707 0.925655 0
844 1 0.0741232 0.942998 0
814 1 0.0802934 0.919119 0
815 1 0.100572 0.912022 0
845 1 0.0946623 0.936492 0
846 1 0.10966 0.954054 0
816 1 0.115228 0.929577 0
847 1 0.130678 0.94687 0
817 1 0.135823 0.922739 0
818 1 0.151452 0.939382 0
819 1 0.157173 0.915871 0
820 1 0.172932 0.932367 0
851 1 0.187935 0.949773 0
821 1 0.193348 0.926117 0
822 1 0.208778 0.942894 0
824 1 0.222216 0.911399 0
853 1 0.228678 0.936395 0
855 1 0.243195 0.917798 0
854 1 0.249001 0.942371 0
856 1 0.263767 0.92381 0
885 1 0.270136 0.947514 0
857 1 0.284809 0.929971 0
828 1 0.300173 0.913323 0
859 1 0.305706 0.937151 0
830 1 0.3208 0.919858 0
860 1 0.326309 0.943943 0
832 1 0.341545 0.92727 0
861 1 0.347509 0.950657 0
863 1 0.36262 0.932686 0
834 1 0.376677 0.915246 0
865 1 0.382974 0.939845 0
835 1 0.398019 0.921366 0
836 1 0.403208 0.946148 0
838 1 0.418641 0.928353 0
839 1 0.433665 0.910786 0
869 1 0.439798 0.934686 0
840 1 0.45419 0.916981 0
867 1 0.424658 0.952379 0
1741 1 0.460121 0.941228 0
1743 1 0.495994 0.930017 0
1712 1 0.47526 0.922827 0
1742 1 0.481526 0.947224 0
1770 1 0.0334153 0.956834 0
1799 1 0.0125091 0.964187 0
1800 1 0.0276248 0.981706 0
1798 1 0.00729268 0.988974 0
871 1 0.0479481 0.975238 0
872 1 0.0635519 0.991831 0
873 1 0.0686587 0.967214 0
1 1 0.0425583 0.99898 0
874 1 0.0843892 0.98557 0
875 1 0.0897443 0.960894 0
876 1 0.104304 0.97873 0
7 1 0.120694 0.99505 0
877 1 0.12515 0.970697 0
878 1 0.140767 0.987847 0
848 1 0.146839 0.963956 0
849 1 0.166782 0.955651 0
879 1 0.162392 0.980482 0
850 1 0.182299 0.973256 0
881 1 0.177114 0.998112 0
11 1 0.197327 0.991925 0
852 1 0.203051 0.966676 0
883 1 0.224098 0.960663 0
882 1 0.217627 0.984225 0
884 1 0.238819 0.978396 0
886 1 0.256151 0.965209 0
16 1 0.257641 0.992774 0
887 1 0.290065 0.95547 0
17 1 0.276269 0.975121 0
888 1 0.29697 0.981117 0
18 1 0.282795 0.999475 0
858 1 0.310742 0.962532 0
889 1 0.317687 0.987513 0
891 1 0.332537 0.969208 0
890 1 0.33853 0.995079 0
862 1 0.352204 0.976004 0
864 1 0.368281 0.958268 0
893 1 0.37387 0.982558 0
892 1 0.35914 1.00084 0
895 1 0.388904 0.964408 0
896 1 0.394211 0.98891 0
866 1 0.409185 0.970659 0
897 1 0.415227 0.994034 0
868 1 0.429602 0.976647 0
899 1 0.450883 0.983812 0
870 1 0.445195 0.959401 0
903 1 0.492442 0.99693 0
1773 1 0.487153 0.971496 0
1772 1 0.472311 0.989232 0
1771 1 0.466071 0.96509 0
904 1 0.519393 0.0277173 0
905 1 0.513785 0.0036621 0
906 1 0.534502 0.0110478 0
933 1 0.503899 0.0452318 0
935 1 0.540843 0.0344829 0
908 1 0.555666 0.0177635 0
937 1 0.56281 0.0420924 0
939 1 0.576753 0.0232791 0
940 1 0.598174 0.028961 0
941 1 0.590893 0.00489929 0
971 1 0.762854 0.0466786 0
942 1 0.768725 0.0218303 0
943 1 0.789022 0.0151428 0
945 1 0.804611 0.0321616 0
944 1 0.783782 0.0402115 0
914 1 0.810063 0.00783254 0
947 1 0.825416 0.0246278 0
916 1 0.830961 0.00108765 0
948 1 0.840616 0.0415693 0
918 1 0.846389 0.0182553 0
949 1 0.861848 0.0371759 0
919 1 0.867483 0.0121637 0
920 1 0.882997 0.0302695 0
1790 1 0.887953 0.00493406 0
951 1 0.903674 0.0227145 0
952 1 0.919948 0.0404547 0
922 1 0.924771 0.0156424 0
953 1 0.940121 0.0345549 0
924 1 0.94568 0.0101569 0
955 1 0.961469 0.0266403 0
925 1 0.965934 0.00241904 0
926 1 0.982146 0.0192605 0
957 1 0.996663 0.0377428 0
956 1 0.976234 0.044433 0
963 1 0.51118 0.0705545 0
934 1 0.525376 0.0517955 0
965 1 0.531885 0.0775331 0
936 1 0.546536 0.0584603 0
966 1 0.552317 0.0835519 0
967 1 0.568286 0.0661825 0
968 1 0.573349 0.0907305 0
938 1 0.583884 0.0476537 0
969 1 0.588984 0.0732059 0
970 1 0.757236 0.0717839 0
972 1 0.773191 0.0881406 0
973 1 0.778991 0.0643329 0
975 1 0.799881 0.0558975 0
1003 1 0.794387 0.080235 0
974 1 0.815754 0.0735514 0
946 1 0.820925 0.0493547 0
976 1 0.836097 0.0674156 0
977 1 0.856459 0.0604346 0
979 1 0.878074 0.0538641 0
978 1 0.871849 0.0776971 0
1007 1 0.851336 0.0854067 0
980 1 0.893081 0.0707994 0
950 1 0.899027 0.0471468 0
981 1 0.914128 0.0645168 0
1011 1 0.90885 0.0883887 0
982 1 0.92934 0.0838391 0
983 1 0.934917 0.0579323 0
984 1 0.950262 0.0756374 0
954 1 0.955673 0.0514211 0
985 1 0.971743 0.0689005 0
987 1 0.992395 0.0617424 0
986 1 0.987026 0.0862739 0
964 1 0.515738 0.0953466 0
993 1 0.501164 0.114713 0
994 1 0.521824 0.120425 0
995 1 0.536247 0.101855 0
996 1 0.542973 0.127029 0
997 1 0.557974 0.108063 0
1027 1 0.563826 0.132811 0
998 1 0.579125 0.115586 0
1000 1 0.599706 0.122636 0
1030 1 0.620456 0.130539 0
999 1 0.634469 0.112132 0
1001 1 0.656478 0.118696 0
1002 1 0.677728 0.12661 0
1033 1 0.789167 0.104278 0
1065 1 0.804946 0.122133 0
1005 1 0.830422 0.0910422 0
1004 1 0.81008 0.0971168 0
1035 1 0.825643 0.115965 0
1036 1 0.842008 0.134131 0
1006 1 0.845852 0.109918 0
1037 1 0.862287 0.126378 0