ITEM: TIMESTEP
209000
ITEM: NUMBER OF ATOMS
1800
ITEM: BOX BOUNDS pp pp pp
-7.2340797263149916e+00 1.7223407972631691e+02
1.1826529217466231e+00 1.6381734707825530e+02
0.0000000000000000e+00 5.5000000000000000e+00
ITEM: ATOMS id type xs ys zs
930 1 0.024943 0.0209258 0
929 1 0.00808187 0.00291397 0
31 1 0.0393343 0.0393732 0
959 1 0.00249282 0.0271537 0
960 1 0.0180199 0.0458106 0
2 1 0.0467599 0.0144957 0
33 1 0.0619321 0.0325827 0
3 1 0.0676751 0.00625434 0
4 1 0.0832043 0.0252163 0
6 1 0.105799 0.0176182 0
37 1 0.122978 0.0352607 0
35 1 0.0997036 0.0417591 0
5 1 0.0892268 0.000548094 0
8 1 0.128008 0.0116743 0
39 1 0.144689 0.029108 0
9 1 0.16593 0.0212593 0
69 1 0.16058 0.046324 0
880 1 0.149611 0.00447516 0
40 1 0.18158 0.0386525 0
10 1 0.188239 0.0142055 0
41 1 0.203785 0.0325437 0
12 1 0.208941 0.00687211 0
14 1 0.225238 0.0234758 0
15 1 0.245672 0.0148713 0
45 1 0.241888 0.041725 0
16 1 0.267532 0.00715015 0
46 1 0.26204 0.0302445 0
47 1 0.287124 0.0242435 0
49 1 0.312902 0.0343577 0
19 1 0.306441 0.0119997 0
20 1 0.328239 0.0168245 0
51 1 0.334163 0.0413819 0
21 1 0.350547 0.022432 0
23 1 0.37186 0.0277167 0
892 1 0.364613 0.00322417 0
894 1 0.38672 0.00907709 0
24 1 0.39342 0.0341128 0
25 1 0.409061 0.0157177 0
26 1 0.41472 0.0399186 0
27 1 0.429652 0.0215181 0
29 1 0.452038 0.0278193 0
898 1 0.446305 0.00383983 0
900 1 0.468449 0.0110339 0
30 1 0.4735 0.0352377 0
901 1 0.489778 0.0174044 0
931 1 0.49595 0.0418052 0
989 1 0.0125116 0.070464 0
61 1 0.0342958 0.0633915 0
990 1 0.0296386 0.088442 0
62 1 0.0514015 0.0815833 0
32 1 0.0561483 0.0569722 0
63 1 0.0725929 0.0746906 0
34 1 0.0783342 0.0494663 0
65 1 0.0942044 0.0668982 0
36 1 0.116315 0.059406 0
66 1 0.111803 0.0840954 0
64 1 0.0886468 0.09236 0
67 1 0.133392 0.0762009 0
38 1 0.139056 0.0529931 0
68 1 0.15523 0.0701958 0
70 1 0.170771 0.0877827 0
71 1 0.176579 0.0630975 0
72 1 0.192874 0.0804454 0
42 1 0.198339 0.0561702 0
43 1 0.220239 0.049215 0
73 1 0.214614 0.0740139 0
44 1 0.237414 0.0678729 0
105 1 0.230679 0.0922086 0
77 1 0.276152 0.047129 0
74 1 0.263456 0.0881297 0
75 1 0.258742 0.0614366 0
76 1 0.279633 0.0711168 0
48 1 0.296907 0.0515218 0
79 1 0.302303 0.0764427 0
50 1 0.318244 0.0586366 0
81 1 0.324261 0.0828117 0
22 1 0.355545 0.046212 0
52 1 0.340647 0.0652583 0
83 1 0.362717 0.0711652 0
82 1 0.346128 0.0896625 0
53 1 0.378025 0.0531657 0
54 1 0.384202 0.0772291 0
55 1 0.399254 0.0583872 0
56 1 0.405987 0.0821928 0
28 1 0.43694 0.0463528 0
57 1 0.42114 0.063989 0
58 1 0.443332 0.0710639 0
87 1 0.427854 0.0891741 0
59 1 0.45848 0.0541127 0
89 1 0.464395 0.0785413 0
60 1 0.479946 0.0607421 0
961 1 0.485899 0.086039 0
1020 1 0.0242621 0.112546 0
1019 1 0.00771605 0.0946137 0
1049 1 0.00254476 0.119494 0
121 1 0.0407712 0.130193 0
91 1 0.0457144 0.10676 0
92 1 0.0625322 0.123328 0
93 1 0.0673244 0.0986799 0
94 1 0.0842253 0.116051 0
95 1 0.105124 0.108909 0
96 1 0.122301 0.125435 0
125 1 0.100235 0.133092 0
97 1 0.127592 0.101254 0
98 1 0.14349 0.118863 0
99 1 0.149671 0.0935003 0
129 1 0.16053 0.136715 0
100 1 0.16562 0.112368 0
130 1 0.182506 0.129249 0
101 1 0.187026 0.104023 0
102 1 0.203306 0.122715 0
103 1 0.209142 0.0982012 0
104 1 0.226384 0.116444 0
106 1 0.248758 0.106434 0
137 1 0.254022 0.129742 0
107 1 0.270405 0.113064 0
78 1 0.285708 0.0945855 0
109 1 0.291894 0.11911 0
80 1 0.307991 0.099499 0
110 1 0.313976 0.124937 0
111 1 0.329563 0.107414 0
141 1 0.336807 0.132201 0
113 1 0.351646 0.113626 0
84 1 0.36806 0.0955108 0
112 1 0.373711 0.119406 0
85 1 0.390764 0.100782 0
115 1 0.395934 0.126325 0
86 1 0.411792 0.108167 0
116 1 0.417791 0.132427 0
88 1 0.44945 0.0973255 0
117 1 0.433385 0.114345 0
119 1 0.454588 0.121772 0
90 1 0.470471 0.104257 0
120 1 0.475838 0.128649 0
991 1 0.492768 0.109581 0
992 1 0.498519 0.134394 0
1050 1 0.0187936 0.136533 0
1079 1 0.0123767 0.161003 0
151 1 0.0345474 0.153833 0
1080 1 0.0285988 0.178698 0
152 1 0.0517567 0.171928 0
122 1 0.056254 0.148463 0
153 1 0.0734754 0.165642 0
123 1 0.0781053 0.140807 0
124 1 0.0945666 0.157543 0
126 1 0.115753 0.149014 0
155 1 0.111207 0.17377 0
157 1 0.132394 0.166903 0
127 1 0.139124 0.144201 0
128 1 0.156536 0.160362 0
159 1 0.177652 0.152824 0
131 1 0.200103 0.155989 0
132 1 0.184597 0.175139 0
135 1 0.239145 0.1475 0
133 1 0.217534 0.140746 0
134 1 0.221893 0.165074 0
165 1 0.242949 0.171708 0
108 1 0.27653 0.137167 0
136 1 0.260215 0.155668 0
138 1 0.281736 0.162231 0
167 1 0.265594 0.179379 0
139 1 0.297935 0.142776 0
169 1 0.303499 0.167711 0
140 1 0.319244 0.149981 0
171 1 0.325881 0.174071 0
143 1 0.358697 0.137841 0
142 1 0.341539 0.156148 0
173 1 0.363031 0.162423 0
172 1 0.347756 0.179975 0
114 1 0.379927 0.14366 0
144 1 0.384961 0.167866 0
145 1 0.401383 0.150187 0
146 1 0.406576 0.174809 0
118 1 0.438889 0.13885 0
147 1 0.422226 0.157318 0
148 1 0.444431 0.163036 0
177 1 0.42831 0.181118 0
1051 1 0.489133 0.1777 0
149 1 0.460766 0.146329 0
150 1 0.466237 0.170961 0
1021 1 0.482352 0.152999 0
1107 1 0.00235685 0.209544 0
1109 1 0.0236386 0.204656 0
1078 1 0.00756697 0.185983 0
181 1 0.0452513 0.195764 0
183 1 0.0677617 0.189291 0
182 1 0.0551452 0.218522 0
154 1 0.0897916 0.182137 0
185 1 0.0868207 0.206663 0
186 1 0.11551 0.220022 0
156 1 0.107244 0.197946 0
158 1 0.131046 0.200966 0
160 1 0.147171 0.184607 0
189 1 0.152319 0.208543 0
163 1 0.206157 0.18152 0
161 1 0.168524 0.192361 0
191 1 0.173905 0.216301 0
162 1 0.189876 0.199449 0
192 1 0.195219 0.224036 0
193 1 0.210792 0.204736 0
164 1 0.22769 0.189266 0
195 1 0.233407 0.213501 0
166 1 0.249755 0.195608 0
168 1 0.287549 0.186009 0
196 1 0.255835 0.22086 0
197 1 0.271607 0.20273 0
198 1 0.27752 0.227264 0
199 1 0.293124 0.209293 0
170 1 0.310473 0.192361 0
200 1 0.31501 0.215633 0
201 1 0.332545 0.197963 0
202 1 0.336397 0.222669 0
203 1 0.352775 0.204061 0
174 1 0.369186 0.186238 0
204 1 0.374681 0.210905 0
175 1 0.390535 0.192404 0
205 1 0.396932 0.217625 0
176 1 0.412316 0.19943 0
179 1 0.449463 0.188056 0
207 1 0.419335 0.223521 0
178 1 0.434276 0.206333 0
209 1 0.45698 0.212487 0
180 1 0.472312 0.194529 0
1081 1 0.478938 0.219443 0
1052 1 0.494243 0.202138 0
211 1 0.0393968 0.236702 0
1140 1 0.0213431 0.253579 0
1110 1 0.0164348 0.229167 0
1139 1 0.0061412 0.271935 0
184 1 0.0762463 0.229642 0
212 1 0.0438433 0.262543 0
213 1 0.0595695 0.245681 0
243 1 0.0661103 0.26987 0
214 1 0.0817404 0.253138 0
215 1 0.0977275 0.235374 0
216 1 0.103746 0.261951 0
217 1 0.119971 0.244822 0
187 1 0.136482 0.227145 0
218 1 0.124707 0.268596 0
188 1 0.141439 0.251809 0
190 1 0.158019 0.234104 0
220 1 0.163008 0.257927 0
221 1 0.179517 0.24052 0
222 1 0.184946 0.265013 0
223 1 0.201025 0.24831 0
194 1 0.217821 0.229568 0
224 1 0.221844 0.2553 0
225 1 0.238103 0.239189 0
226 1 0.243767 0.263292 0
227 1 0.260133 0.245307 0
228 1 0.283383 0.251058 0
257 1 0.267292 0.26838 0
229 1 0.298777 0.233762 0
230 1 0.304653 0.258239 0
231 1 0.319584 0.240658 0
261 1 0.326538 0.264621 0
233 1 0.358794 0.228663 0
232 1 0.342525 0.247053 0
234 1 0.363912 0.252828 0
263 1 0.348202 0.270555 0
235 1 0.380774 0.235679 0
265 1 0.386321 0.259064 0
206 1 0.40254 0.241979 0
236 1 0.40795 0.2665 0
208 1 0.44125 0.23086 0
237 1 0.424404 0.248922 0
239 1 0.446284 0.256058 0
238 1 0.429952 0.272544 0
210 1 0.461815 0.238788 0
240 1 0.467733 0.262715 0
1111 1 0.483973 0.244732 0
1112 1 0.488794 0.269081 0
1169 1 0.0114882 0.296769 0
241 1 0.0279325 0.279617 0
271 1 0.0330058 0.304642 0
242 1 0.0507824 0.286546 0
244 1 0.0710378 0.295786 0
273 1 0.0546709 0.312201 0
245 1 0.0865542 0.278302 0
246 1 0.0926933 0.303934 0
247 1 0.108295 0.285903 0
248 1 0.114412 0.309897 0
249 1 0.130213 0.293173 0
219 1 0.14624 0.276163 0
250 1 0.151869 0.300709 0
279 1 0.135963 0.317902 0
253 1 0.20633 0.272795 0
251 1 0.167922 0.282594 0
281 1 0.173694 0.307538 0
252 1 0.189558 0.290438 0
283 1 0.195705 0.314952 0
254 1 0.210971 0.296831 0
255 1 0.227881 0.279204 0
285 1 0.233829 0.303039 0
256 1 0.250832 0.285467 0
259 1 0.288478 0.275296 0
287 1 0.256238 0.30928 0
258 1 0.272718 0.292415 0
289 1 0.294407 0.299543 0
260 1 0.310583 0.281792 0
291 1 0.315869 0.305784 0
262 1 0.332129 0.288805 0
293 1 0.35403 0.294432 0
292 1 0.33883 0.312863 0
264 1 0.370256 0.277592 0
295 1 0.375264 0.301392 0
266 1 0.391699 0.284508 0
297 1 0.397628 0.3086 0
267 1 0.413535 0.291145 0
268 1 0.43563 0.297111 0
298 1 0.419779 0.315321 0
269 1 0.451639 0.280101 0
270 1 0.457616 0.30439 0
1141 1 0.474418 0.28674 0
300 1 0.479004 0.311937 0
1171 1 0.495734 0.293931 0
1200 1 0.0383144 0.32874 0
1229 1 0.0217828 0.346675 0
1170 1 0.0164608 0.322119 0
1259 1 0.00514089 0.363026 0
301 1 0.0430995 0.354582 0
275 1 0.0767742 0.320574 0
272 1 0.0597823 0.336915 0
274 1 0.0811293 0.345111 0
303 1 0.0648518 0.362099 0
276 1 0.0974351 0.327827 0
305 1 0.102237 0.351603 0
277 1 0.11924 0.335088 0
307 1 0.124852 0.359188 0
278 1 0.141457 0.342231 0
280 1 0.1576 0.324491 0
311 1 0.162966 0.348895 0
282 1 0.179176 0.331595 0
312 1 0.184219 0.356551 0
313 1 0.200652 0.339797 0
284 1 0.217731 0.321223 0
315 1 0.223961 0.345209 0
286 1 0.240459 0.326776 0
316 1 0.245732 0.351545 0
288 1 0.278203 0.315973 0
317 1 0.261754 0.334409 0
319 1 0.28418 0.340263 0
318 1 0.267254 0.358291 0
290 1 0.29943 0.322994 0
320 1 0.306122 0.348225 0
321 1 0.321644 0.3307 0
322 1 0.328644 0.354943 0
294 1 0.360627 0.319833 0
323 1 0.343595 0.336435 0
325 1 0.364954 0.343959 0
324 1 0.349554 0.361826 0
296 1 0.382044 0.326799 0
326 1 0.386597 0.351408 0
327 1 0.402856 0.333553 0
328 1 0.407807 0.358267 0
299 1 0.440649 0.320902 0
329 1 0.424599 0.339468 0
359 1 0.446235 0.3473 0
358 1 0.429988 0.363949 0
330 1 0.461973 0.328226 0
360 1 0.469 0.353768 0
1201 1 0.484259 0.335876 0
1231 1 0.489769 0.35994 0
1230 1 0.0264887 0.370438 0
331 1 0.031836 0.395686 0
1260 1 0.0100857 0.388582 0
302 1 0.04843 0.378591 0
333 1 0.0705176 0.386449 0
332 1 0.0539834 0.404422 0
304 1 0.0860133 0.369365 0
335 1 0.092048 0.393831 0
306 1 0.107378 0.375434 0
337 1 0.113863 0.401169 0
308 1 0.129932 0.382888 0
309 1 0.147087 0.366075 0
339 1 0.152867 0.390294 0
338 1 0.135672 0.407698 0
314 1 0.207199 0.363013 0
310 1 0.16889 0.374186 0
341 1 0.174436 0.398173 0
343 1 0.191202 0.381405 0
342 1 0.196787 0.40592 0
344 1 0.213238 0.388077 0
345 1 0.22897 0.369364 0
346 1 0.235735 0.394358 0
347 1 0.250644 0.375875 0
377 1 0.256388 0.401587 0
348 1 0.27249 0.382716 0
349 1 0.288914 0.364798 0
350 1 0.294141 0.389396 0
351 1 0.311426 0.37161 0
381 1 0.315613 0.397246 0
353 1 0.332438 0.38055 0
354 1 0.354235 0.38647 0
352 1 0.33872 0.405188 0
355 1 0.371103 0.369774 0
356 1 0.376807 0.394452 0
357 1 0.392403 0.376537 0
386 1 0.399036 0.400203 0
387 1 0.414366 0.382045 0
389 1 0.435993 0.388918 0
388 1 0.41991 0.407124 0
1232 1 0.451448 0.371139 0
1261 1 0.458343 0.395623 0
1262 1 0.473909 0.378204 0
1293 1 0.480275 0.402829 0
1263 1 0.49546 0.384738 0
361 1 0.0375799 0.420214 0
391 1 0.0213516 0.437619 0
1290 1 0.0156657 0.412851 0
1320 1 0.00507578 0.454029 0
362 1 0.0436549 0.445799 0
334 1 0.0761554 0.411909 0
363 1 0.0605685 0.429093 0
365 1 0.0812801 0.437216 0
364 1 0.0650874 0.452884 0
336 1 0.0978418 0.419107 0
366 1 0.102688 0.442964 0
367 1 0.119165 0.425293 0
368 1 0.124241 0.450433 0
369 1 0.142182 0.432147 0
340 1 0.158636 0.41597 0
370 1 0.163045 0.440143 0
371 1 0.179952 0.423756 0
401 1 0.186211 0.447675 0
372 1 0.202048 0.429339 0
403 1 0.208219 0.454262 0
373 1 0.219523 0.412107 0
374 1 0.225058 0.436867 0
375 1 0.241547 0.419953 0
405 1 0.247193 0.443795 0
378 1 0.278067 0.407191 0
376 1 0.262981 0.42581 0
409 1 0.284305 0.4325 0
407 1 0.269156 0.450406 0
379 1 0.299155 0.413911 0
380 1 0.305807 0.43968 0
382 1 0.321133 0.421848 0
413 1 0.328264 0.44622 0
385 1 0.360628 0.411889 0
383 1 0.344282 0.428802 0
414 1 0.366512 0.435977 0
412 1 0.350192 0.4535 0
384 1 0.382594 0.418792 0
415 1 0.388782 0.442931 0
417 1 0.404167 0.424436 0
416 1 0.410333 0.448934 0
419 1 0.442156 0.413379 0
418 1 0.425862 0.431599 0
390 1 0.448356 0.437224 0
1292 1 0.486389 0.426896 0
1291 1 0.46362 0.419287 0
1321 1 0.470068 0.443874 0
1322 1 0.492289 0.452259 0
421 1 0.0102225 0.478925 0
392 1 0.0272615 0.462775 0
422 1 0.0323818 0.486271 0
393 1 0.0491497 0.469835 0
394 1 0.0705129 0.477371 0
423 1 0.0542491 0.494362 0
395 1 0.0879657 0.460898 0
396 1 0.0928196 0.48568 0
397 1 0.108551 0.46881 0
427 1 0.113968 0.492383 0
399 1 0.146918 0.457148 0
398 1 0.130464 0.473895 0
429 1 0.152576 0.4815 0
428 1 0.137029 0.497795 0
400 1 0.169576 0.464403 0
431 1 0.17454 0.488254 0
402 1 0.191451 0.471777 0
432 1 0.197128 0.495906 0
433 1 0.213276 0.479343 0
404 1 0.229332 0.46158 0
435 1 0.235379 0.48599 0
406 1 0.252157 0.468243 0
436 1 0.257089 0.492203 0
408 1 0.273565 0.475555 0
410 1 0.290636 0.457622 0
439 1 0.279529 0.499577 0
441 1 0.295384 0.48152 0
411 1 0.311779 0.46392 0
440 1 0.31718 0.488973 0
442 1 0.332731 0.470858 0
471 1 0.339048 0.494971 0
473 1 0.35515 0.47768 0
443 1 0.37194 0.460728 0
444 1 0.377627 0.485516 0
445 1 0.393431 0.467189 0
475 1 0.399468 0.491893 0
446 1 0.415114 0.47348 0
447 1 0.431374 0.456221 0
477 1 0.421752 0.497746 0
420 1 0.453187 0.460927 0
448 1 0.43697 0.479738 0
450 1 0.475066 0.468374 0
1353 1 0.497663 0.476044 0
449 1 0.457823 0.48657 0
1351 1 0.481089 0.493477 0
453 1 0.0376273 0.510379 0
452 1 0.0221694 0.528434 0
451 1 0.016339 0.503513 0
454 1 0.0438423 0.535645 0
424 1 0.059465 0.51946 0
455 1 0.0816678 0.526778 0
485 1 0.064957 0.543417 0
425 1 0.0762213 0.502428 0
426 1 0.0981435 0.509834 0
456 1 0.104084 0.533829 0
457 1 0.120176 0.516501 0
458 1 0.124695 0.540467 0
459 1 0.142106 0.523038 0
430 1 0.158329 0.506166 0
460 1 0.163617 0.530883 0
461 1 0.180231 0.512146 0
462 1 0.185178 0.537006 0
463 1 0.201359 0.520803 0
493 1 0.207457 0.544725 0
434 1 0.218197 0.503461 0
464 1 0.224377 0.527899 0
465 1 0.240717 0.510613 0
466 1 0.246752 0.533978 0
437 1 0.262909 0.51697 0
467 1 0.285231 0.523951 0
497 1 0.267747 0.541006 0
438 1 0.301615 0.506225 0
468 1 0.307463 0.53007 0
469 1 0.323004 0.512499 0
499 1 0.328433 0.537398 0
470 1 0.344039 0.519721 0
503 1 0.366523 0.526967 0
472 1 0.361251 0.502814 0
501 1 0.350751 0.543802 0
474 1 0.383353 0.510018 0
505 1 0.38833 0.534207 0
476 1 0.405194 0.514988 0
506 1 0.410076 0.540275 0
507 1 0.426681 0.522062 0
478 1 0.44296 0.504853 0
480 1 0.448549 0.528073 0
479 1 0.465051 0.51095 0
510 1 0.470143 0.535198 0
1381 1 0.486316 0.517302 0
1411 1 0.491702 0.540928 0
481 1 0.00527541 0.54495 0
482 1 0.0324256 0.577508 0
483 1 0.0275256 0.552388 0
1410 1 0.0107769 0.569618 0
513 1 0.0489558 0.560204 0
484 1 0.0709808 0.567283 0
514 1 0.0544116 0.583922 0
545 1 0.0761891 0.591809 0
486 1 0.0876259 0.550424 0
515 1 0.0921485 0.57509 0
487 1 0.108702 0.558168 0
517 1 0.114729 0.581595 0
489 1 0.147168 0.547509 0
488 1 0.130793 0.56413 0
490 1 0.151853 0.571728 0
519 1 0.135753 0.590839 0
491 1 0.169192 0.554557 0
521 1 0.174727 0.578723 0
492 1 0.190732 0.5614 0
523 1 0.196883 0.585024 0
494 1 0.213248 0.568719 0
495 1 0.229851 0.552442 0
525 1 0.23521 0.575484 0
496 1 0.251425 0.558345 0
526 1 0.257472 0.582547 0
527 1 0.273518 0.565823 0
498 1 0.290761 0.54799 0
528 1 0.279159 0.590377 0
529 1 0.295767 0.573194 0
500 1 0.311807 0.555622 0
530 1 0.317943 0.579455 0
531 1 0.333848 0.561631 0
533 1 0.355283 0.568715 0
502 1 0.372445 0.550755 0
532 1 0.339355 0.586371 0
534 1 0.37714 0.577233 0
504 1 0.393696 0.559123 0
535 1 0.400028 0.583166 0
508 1 0.415653 0.564859 0
509 1 0.431559 0.546733 0
539 1 0.437633 0.570395 0
540 1 0.454343 0.553109 0
537 1 0.421437 0.589671 0
1442 1 0.482732 0.583136 0
569 1 0.45964 0.577511 0
1441 1 0.476199 0.55989 0
1412 1 0.498215 0.566361 0
511 1 0.0161673 0.593102 0
512 1 0.037906 0.601028 0
541 1 0.021255 0.617554 0
542 1 0.0434423 0.624916 0
543 1 0.0594153 0.607777 0
544 1 0.0647227 0.63276 0
546 1 0.0822394 0.616277 0
516 1 0.0981263 0.598915 0
547 1 0.103258 0.62551 0
518 1 0.119246 0.607126 0
577 1 0.126312 0.632046 0
520 1 0.158512 0.596431 0
548 1 0.141483 0.614327 0
549 1 0.163423 0.620074 0
522 1 0.18048 0.603221 0
551 1 0.1875 0.627806 0
553 1 0.202531 0.609774 0
552 1 0.209027 0.635102 0
524 1 0.218934 0.592602 0
554 1 0.225542 0.618503 0
555 1 0.240647 0.600145 0
556 1 0.247729 0.625035 0
557 1 0.263353 0.607376 0
558 1 0.285026 0.614749 0
587 1 0.268654 0.632624 0
559 1 0.301884 0.597465 0
561 1 0.323381 0.604909 0
560 1 0.306556 0.621462 0
591 1 0.328834 0.629349 0
562 1 0.345023 0.611509 0
563 1 0.36082 0.594302 0
565 1 0.366938 0.617582 0
564 1 0.351545 0.635434 0
536 1 0.383115 0.600758 0
566 1 0.389841 0.62469 0
567 1 0.405525 0.606658 0
597 1 0.411093 0.631665 0
568 1 0.426594 0.613903 0
538 1 0.442983 0.594249 0
600 1 0.449509 0.618574 0
570 1 0.466105 0.600351 0
1501 1 0.471584 0.625393 0
1471 1 0.487241 0.607777 0
1472 1 0.492731 0.632206 0
1470 1 0.00512914 0.634951 0
572 1 0.0309849 0.665716 0
571 1 0.0257793 0.642124 0
1500 1 0.0081948 0.660487 0
573 1 0.0484293 0.648985 0
603 1 0.0516815 0.673323 0
574 1 0.069529 0.657686 0
604 1 0.0743305 0.682784 0
575 1 0.086248 0.642486 0
605 1 0.0908948 0.667429 0
576 1 0.108117 0.650525 0
607 1 0.112366 0.675216 0
578 1 0.12988 0.658606 0
579 1 0.147537 0.638538 0
609 1 0.153207 0.664028 0
550 1 0.169762 0.642895 0
580 1 0.174981 0.666645 0
581 1 0.192161 0.651952 0
611 1 0.194553 0.67743 0
582 1 0.212802 0.660787 0
583 1 0.230297 0.642652 0
584 1 0.235314 0.667527 0
585 1 0.252003 0.649855 0
586 1 0.273789 0.657498 0
589 1 0.291066 0.639367 0
615 1 0.257207 0.674433 0
617 1 0.280761 0.680329 0
588 1 0.296717 0.662545 0
590 1 0.312995 0.645671 0
621 1 0.31872 0.670191 0
593 1 0.334847 0.652948 0
594 1 0.35757 0.660745 0
592 1 0.340201 0.67717 0
595 1 0.373045 0.642133 0
625 1 0.37861 0.66638 0
596 1 0.394608 0.649064 0
627 1 0.400458 0.673385 0
598 1 0.416447 0.656039 0
599 1 0.433169 0.637177 0
628 1 0.438567 0.661942 0
629 1 0.454547 0.643438 0
657 1 0.422704 0.680362 0
630 1 0.46029 0.666933 0
1502 1 0.476938 0.65018 0
1533 1 0.483635 0.674432 0
1503 1 0.499196 0.656237 0
631 1 0.0126758 0.708489 0
602 1 0.033464 0.700009 0
601 1 0.0171844 0.684386 0
632 1 0.0308898 0.724388 0
633 1 0.0555137 0.696249 0
635 1 0.0747939 0.707449 0
634 1 0.0544904 0.720032 0
606 1 0.0953237 0.692605 0
636 1 0.096442 0.716911 0
637 1 0.115248 0.702621 0
608 1 0.133309 0.685373 0
638 1 0.135997 0.715081 0
639 1 0.155118 0.701556 0
610 1 0.175264 0.690845 0
641 1 0.174943 0.714936 0
612 1 0.195684 0.701498 0
642 1 0.195695 0.725515 0
613 1 0.215304 0.68597 0
643 1 0.216084 0.71127 0
614 1 0.239007 0.693491 0
645 1 0.236112 0.720925 0
616 1 0.263154 0.698111 0
647 1 0.270143 0.722446 0
618 1 0.285705 0.70462 0
619 1 0.303067 0.687112 0
620 1 0.307767 0.712627 0
622 1 0.32395 0.694795 0
651 1 0.330077 0.719288 0
653 1 0.345731 0.701511 0
624 1 0.368902 0.708451 0
623 1 0.362484 0.684804 0
654 1 0.352317 0.725174 0
655 1 0.390664 0.716219 0
626 1 0.38501 0.69087 0
656 1 0.406926 0.697881 0
686 1 0.413361 0.722108 0
658 1 0.428929 0.704055 0
659 1 0.444911 0.685546 0
660 1 0.450868 0.709421 0
1531 1 0.467338 0.691211 0
1561 1 0.472725 0.71693 0
1532 1 0.488906 0.699084 0
1563 1 0.494818 0.723226 0
663 1 0.0246983 0.749301 0
661 1 0.00778618 0.732471 0
1590 1 0.00261632 0.756698 0
662 1 0.041733 0.766648 0
664 1 0.0464877 0.742591 0
695 1 0.0636431 0.757588 0
665 1 0.0750575 0.733146 0
667 1 0.116098 0.729455 0
666 1 0.0964222 0.741331 0
668 1 0.117536 0.754477 0
697 1 0.0987837 0.766755 0
640 1 0.156108 0.727101 0
669 1 0.136161 0.741297 0
670 1 0.155413 0.753347 0
699 1 0.137158 0.767318 0
671 1 0.175054 0.739455 0
672 1 0.17537 0.765335 0
673 1 0.194931 0.751729 0
644 1 0.216195 0.736579 0
674 1 0.213861 0.764129 0
675 1 0.234327 0.750305 0
646 1 0.25302 0.736727 0
677 1 0.257163 0.761503 0
648 1 0.275616 0.746884 0
649 1 0.29155 0.729071 0
679 1 0.297608 0.753399 0
650 1 0.314739 0.737421 0
681 1 0.319623 0.761209 0
652 1 0.336667 0.74346 0
682 1 0.342289 0.768891 0
683 1 0.359149 0.749967 0
685 1 0.374228 0.732255 0
684 1 0.381319 0.756901 0
715 1 0.39675 0.739932 0
714 1 0.403389 0.763986 0
687 1 0.434846 0.728159 0
717 1 0.418986 0.745982 0
688 1 0.439997 0.752136 0
716 1 0.425807 0.770515 0
689 1 0.456837 0.73405 0
719 1 0.462681 0.758021 0
690 1 0.479542 0.740778 0
1591 1 0.484121 0.766276 0
691 1 0.0184958 0.773629 0
693 1 0.0357602 0.790436 0
721 1 0.0140672 0.798328 0
692 1 0.0304822 0.81593 0
723 1 0.0520986 0.808041 0
694 1 0.0576513 0.783636 0
696 1 0.0787247 0.776859 0
725 1 0.0743436 0.800735 0
727 1 0.0966962 0.792327 0
728 1 0.115929 0.808622 0
698 1 0.118163 0.780446 0
726 1 0.0919727 0.816463 0
700 1 0.136336 0.794616 0
701 1 0.1569 0.779041 0
731 1 0.156923 0.804731 0
729 1 0.136718 0.821529 0
703 1 0.194889 0.77685 0
702 1 0.176472 0.791042 0
733 1 0.195961 0.802042 0
732 1 0.17723 0.816228 0
705 1 0.233414 0.774289 0
704 1 0.215172 0.788279 0
735 1 0.217537 0.814519 0
706 1 0.235101 0.800803 0
678 1 0.281303 0.770482 0
676 1 0.252331 0.785783 0
737 1 0.255565 0.810559 0
707 1 0.273143 0.794154 0
709 1 0.304352 0.780895 0
708 1 0.292946 0.802475 0
710 1 0.313846 0.807579 0
680 1 0.326225 0.786405 0
713 1 0.365344 0.774805 0
711 1 0.349016 0.792344 0
741 1 0.335129 0.813068 0
712 1 0.371081 0.800081 0
743 1 0.387389 0.781786 0
745 1 0.392969 0.805305 0
746 1 0.409516 0.787578 0
775 1 0.414821 0.812035 0
718 1 0.447207 0.776643 0
747 1 0.431 0.794464 0
749 1 0.453665 0.801433 0
720 1 0.469204 0.784366 0
1621 1 0.475809 0.808261 0
1592 1 0.491573 0.789968 0
1622 1 0.497415 0.813871 0
1680 1 0.0241612 0.840123 0
752 1 0.0413253 0.856805 0
1650 1 0.00813185 0.822541 0
1709 1 0.0028486 0.84694 0
751 1 0.0472045 0.832737 0
753 1 0.0639038 0.848755 0
722 1 0.0695452 0.824436 0
724 1 0.085212 0.841609 0
757 1 0.108331 0.833841 0
756 1 0.122192 0.853025 0
755 1 0.100873 0.858561 0
759 1 0.143287 0.845672 0
730 1 0.159125 0.829601 0
760 1 0.161527 0.860625 0
761 1 0.178398 0.841414 0
763 1 0.197328 0.826522 0
762 1 0.199228 0.850692 0
736 1 0.238207 0.825913 0
734 1 0.218996 0.840375 0
765 1 0.239327 0.852754 0
738 1 0.276146 0.819181 0
767 1 0.258616 0.835281 0
766 1 0.264554 0.858029 0
768 1 0.281554 0.843342 0
739 1 0.298496 0.826133 0
769 1 0.303966 0.850607 0
740 1 0.319861 0.831826 0
770 1 0.326499 0.855806 0
742 1 0.356542 0.818194 0
771 1 0.341948 0.837561 0
773 1 0.363666 0.84289 0
801 1 0.34806 0.860952 0
744 1 0.378253 0.82415 0
803 1 0.384655 0.849115 0
774 1 0.399854 0.830814 0
776 1 0.407018 0.854842 0
748 1 0.436546 0.818686 0
777 1 0.421291 0.836726 0
779 1 0.444081 0.842041 0
778 1 0.429114 0.861339 0
750 1 0.459929 0.824996 0
1651 1 0.482085 0.831741 0
780 1 0.466065 0.849545 0
1652 1 0.488077 0.856074 0
781 1 0.0199135 0.864278 0
782 1 0.0363835 0.880578 0
811 1 0.014153 0.88828 0
812 1 0.0308633 0.90473 0
813 1 0.0526362 0.898471 0
783 1 0.0577193 0.873116 0
784 1 0.0736072 0.890911 0
754 1 0.0791894 0.866576 0
785 1 0.0957414 0.88439 0
787 1 0.117423 0.87732 0
786 1 0.110916 0.901421 0
788 1 0.133304 0.893984 0
758 1 0.139223 0.869749 0
789 1 0.154733 0.886952 0
790 1 0.17051 0.906045 0
791 1 0.176367 0.881048 0
823 1 0.191356 0.899362 0
792 1 0.19727 0.874758 0
764 1 0.218077 0.865697 0
793 1 0.212111 0.892283 0
795 1 0.232964 0.884498 0
794 1 0.229744 0.908781 0
825 1 0.250338 0.900816 0
796 1 0.253311 0.877562 0
827 1 0.271298 0.891274 0
797 1 0.28646 0.868251 0
798 1 0.293322 0.892434 0
799 1 0.308586 0.874521 0
829 1 0.316182 0.898027 0
800 1 0.332263 0.879606 0
802 1 0.353635 0.886561 0
772 1 0.369262 0.867559 0
831 1 0.338058 0.90411 0
804 1 0.374987 0.891456 0
805 1 0.391683 0.874452 0
806 1 0.39824 0.898639 0
807 1 0.413931 0.88106 0
809 1 0.450148 0.867236 0
808 1 0.436296 0.88673 0
837 1 0.419606 0.905603 0
810 1 0.457824 0.892417 0
1681 1 0.472237 0.873952 0
1711 1 0.478858 0.89945 0
1682 1 0.49427 0.880693 0
841 1 0.024781 0.929509 0
842 1 0.0397874 0.947483 0
1740 1 0.00842794 0.912341 0
1769 1 0.00343215 0.936684 0
843 1 0.0465347 0.922715 0
844 1 0.0614878 0.940841 0
814 1 0.0679038 0.915778 0
845 1 0.0839013 0.932771 0
815 1 0.0893005 0.907932 0
816 1 0.105636 0.925979 0
847 1 0.121604 0.944677 0
846 1 0.0992182 0.951557 0
819 1 0.14885 0.912861 0
817 1 0.127158 0.919246 0
818 1 0.143258 0.937655 0
820 1 0.16473 0.930132 0
849 1 0.160075 0.955514 0
851 1 0.182014 0.947604 0
821 1 0.186408 0.923964 0
824 1 0.208431 0.916435 0
822 1 0.203355 0.940998 0
853 1 0.224914 0.933522 0
855 1 0.246194 0.925046 0
854 1 0.2415 0.94959 0
826 1 0.267893 0.915599 0
856 1 0.263898 0.941098 0
857 1 0.28487 0.933158 0
828 1 0.300779 0.916218 0
859 1 0.306297 0.940989 0
830 1 0.321981 0.922666 0
860 1 0.329207 0.947819 0
833 1 0.360223 0.910918 0
832 1 0.344193 0.929195 0
863 1 0.366271 0.935633 0
834 1 0.382226 0.916981 0
865 1 0.388835 0.940709 0
835 1 0.40411 0.923486 0
836 1 0.41073 0.947441 0
839 1 0.441925 0.910677 0
838 1 0.426498 0.928504 0
869 1 0.448111 0.935055 0
1712 1 0.484654 0.92436 0
1741 1 0.4693 0.94226 0
840 1 0.462868 0.917109 0
1742 1 0.490576 0.949196 0
1770 1 0.0185261 0.955249 0
871 1 0.035708 0.972242 0
1800 1 0.0143138 0.978691 0
1 1 0.0302043 0.996949 0
872 1 0.0517397 0.989315 0
873 1 0.0570151 0.964584 0
874 1 0.0729953 0.982282 0
875 1 0.0780169 0.957378 0
876 1 0.0947566 0.975406 0
877 1 0.116048 0.969206 0
7 1 0.1114 0.993426 0
878 1 0.132544 0.986622 0
848 1 0.138369 0.96192 0
879 1 0.154813 0.979434 0
881 1 0.171342 0.996232 0
850 1 0.176198 0.972052 0
11 1 0.192819 0.98957 0
852 1 0.197585 0.965304 0
883 1 0.218506 0.956972 0
882 1 0.214775 0.981435 0
884 1 0.235555 0.973476 0
13 1 0.23029 0.997856 0
886 1 0.251311 0.99091 0
887 1 0.279997 0.958203 0
885 1 0.258002 0.965147 0
17 1 0.273173 0.982481 0
18 1 0.288129 0.99952 0
888 1 0.294953 0.976987 0
858 1 0.314553 0.965169 0
889 1 0.318312 0.990818 0
861 1 0.350854 0.953223 0
890 1 0.342266 0.996929 0
891 1 0.336349 0.972375 0
862 1 0.358495 0.978593 0
864 1 0.373515 0.960218 0
893 1 0.379187 0.984915 0
895 1 0.394547 0.96588 0
896 1 0.40181 0.991392 0
867 1 0.433398 0.954617 0
870 1 0.454671 0.960522 0
866 1 0.417186 0.972601 0
897 1 0.42439 0.997371 0
868 1 0.439813 0.978576 0
1771 1 0.476474 0.968341 0
1772 1 0.48376 0.992943 0
1773 1 0.498434 0.974384 0
899 1 0.461338 0.985316 0
902 1 0.511459 0.0237516 0
904 1 0.533363 0.0299486 0
905 1 0.526897 0.00606785 0
906 1 0.548748 0.0124444 0
935 1 0.554481 0.038278 0
908 1 0.570873 0.0178906 0
937 1 0.57702 0.0421512 0
939 1 0.593536 0.0242661 0
940 1 0.615947 0.0279896 0
941 1 0.608179 0.00401242 0
942 1 0.741568 0.0168414 0
971 1 0.736107 0.0426524 0
944 1 0.757544 0.0357755 0
943 1 0.764032 0.0118768 0
914 1 0.785816 0.00569045 0
945 1 0.779597 0.0296381 0
947 1 0.801804 0.0231724 0
918 1 0.823301 0.0169708 0
948 1 0.817302 0.0415616 0
949 1 0.839866 0.03451 0
919 1 0.845105 0.0102874 0
920 1 0.860943 0.0285928 0
1790 1 0.866068 0.00264564 0
951 1 0.883202 0.0204672 0
922 1 0.904931 0.0138451 0
952 1 0.898997 0.0389286 0
950 1 0.877337 0.0454045 0
953 1 0.920504 0.0310002 0
924 1 0.925816 0.00634839 0
955 1 0.94273 0.0242765 0
925 1 0.947876 -0.00015782 0
956 1 0.959403 0.0418462 0
926 1 0.964256 0.0171232 0
957 1 0.980077 0.0338435 0
928 1 0.986088 0.0095583 0
933 1 0.516919 0.0487706 0
932 1 0.501898 0.0682015 0
963 1 0.523869 0.073858 0
934 1 0.538928 0.0555286 0
962 1 0.509093 0.0926132 0
965 1 0.545736 0.0795917 0
936 1 0.562282 0.0617669 0
966 1 0.568457 0.0858224 0
967 1 0.584816 0.0666857 0
938 1 0.600086 0.0482368 0
969 1 0.606225 0.0728774 0
970 1 0.729243 0.0659713 0
972 1 0.744806 0.0836018 0
973 1 0.751912 0.0605965 0
975 1 0.77441 0.0541007 0
974 1 0.79029 0.0723996 0
1003 1 0.767841 0.0785125 0
946 1 0.795527 0.048049 0
976 1 0.811572 0.0650263 0
1007 1 0.827614 0.0828341 0
1005 1 0.806613 0.0895454 0
977 1 0.8341 0.059442 0
979 1 0.855573 0.0527651 0
980 1 0.871375 0.0698786 0
978 1 0.84952 0.0771799 0
981 1 0.893468 0.0635885 0
983 1 0.915821 0.0555816 0
982 1 0.909969 0.080021 0
1011 1 0.888309 0.0872348 0
984 1 0.93114 0.0728904 0
954 1 0.936841 0.048573 0
985 1 0.952704 0.0665323 0
987 1 0.975111 0.0598431 0
988 1 0.991393 0.0777547 0
958 1 0.996485 0.0514477 0
986 1 0.970076 0.0836493 0
964 1 0.531356 0.0983496 0
993 1 0.515284 0.116837 0
994 1 0.537516 0.123518 0
995 1 0.552886 0.10483 0
996 1 0.559501 0.129665 0
997 1 0.574617 0.110616 0
1027 1 0.580869 0.135994 0
968 1 0.590289 0.0921556 0
998 1 0.59634 0.11796 0
1000 1 0.617942 0.12545 0
1030 1 0.639248 0.133623 0
999 1 0.655323 0.115404 0
1001 1 0.677091 0.120822 0
1002 1 0.699687 0.129599 0
1033 1 0.761762 0.101924 0
1004 1 0.784573 0.0968183 0
1065 1 0.778406 0.119787 0
1035 1 0.80083 0.114642 0
1006 1 0.822729 0.107711 0
1036 1 0.817526 0.132909 0
1037 1 0.838877 0.124707 0
1008 1 0.844032 0.100736 0
1039 1 0.861287 0.118765 0
1009 1 0.866338 0.0941134 0
1010 1 0.882295 0.110946 0
1012 1 0.904043 0.10467 0
1041 1 0.899053 0.128422 0
1015 1 0.947224 0.0908003 0
1043 1 0.920157 0.121297 0
1013 1 0.925761 0.0972409 0
1014 1 0.942609 0.115331 0
1017 1 0.96432 0.107565 0
1018 1 0.985859 0.101158 0
1047 1 0.980625 0.125702 0
1016 1 0.959397 0.132286 0
1023 1 0.521282 0.141555 0
1022 1 0.504543 0.159466 0
1024 1 0.526769 0.165921 0
1025 1 0.543153 0.147486 0
1055 1 0.548624 0.17156 0
1026 1 0.56503 0.154388 0
1057 1 0.570568 0.178089 0
1029 1 0.602186 0.143417 0
1028 1 0.586635 0.161035 0
1058 1 0.608508 0.168746 0
1059 1 0.623696 0.150269 0
1032 1 0.661195 0.138884 0
1060 1 0.630055 0.174856 0
1061 1 0.645809 0.157156 0
1031 1 0.683283 0.146281 0
1062 1 0.667604 0.163823 0
1064 1 0.689277 0.170348 0
1063 1 0.705321 0.153467 0
1095 1 0.710512 0.177474 0
1034 1 0.727367 0.159498 0
1067 1 0.834784 0.14883 0
1038 1 0.856007 0.142586 0
1069 1 0.871449 0.160154 0
1068 1 0.849908 0.1671 0
1040 1 0.877556 0.135459 0
1071 1 0.893453 0.15303 0
1072 1 0.910155 0.170698 0
1070 1 0.888066 0.178149 0
1042 1 0.914753 0.14703 0
1073 1 0.931264 0.163679 0
1044 1 0.937333 0.140091 0
1045 1 0.953179 0.157645 0
1046 1 0.974659 0.151643 0
1077 1 0.990664 0.168058 0
1048 1 0.996323 0.143679 0
1075 1 0.969452 0.175639 0
1053 1 0.511123 0.183966 0