ITEM: TIMESTEP
184000
ITEM: NUMBER OF ATOMS
1800
ITEM: BOX BOUNDS pp pp pp
-6.2272935243937457e+00 1.7122729352439566e+02
1.1826529217466231e+00 1.6381734707825530e+02
0.0000000000000000e+00 5.5000000000000000e+00
ITEM: ATOMS id type xs ys zs
2 1 0.0418158 0.0182148 0
930 1 0.0200029 0.026201 0
929 1 0.00238383 0.00931927 0
31 1 0.0375153 0.0434239 0
1 1 0.0240618 0.00220808 0
33 1 0.0588401 0.0359877 0
3 1 0.0638097 0.00989902 0
4 1 0.0802138 0.0266505 0
5 1 0.0856219 0.00210054 0
6 1 0.10182 0.0195793 0
8 1 0.123825 0.0106051 0
37 1 0.119253 0.0363828 0
35 1 0.0974867 0.0436875 0
39 1 0.140569 0.0287953 0
880 1 0.146118 0.00333526 0
9 1 0.162239 0.0207296 0
40 1 0.178203 0.039369 0
10 1 0.184218 0.0145939 0
41 1 0.199367 0.0325716 0
12 1 0.205032 0.00606844 0
14 1 0.221027 0.0241534 0
15 1 0.242082 0.0150619 0
45 1 0.238622 0.0416065 0
16 1 0.264359 0.00754023 0
46 1 0.259024 0.0305681 0
47 1 0.287194 0.0246319 0
18 1 0.28516 0.000167632 0
49 1 0.310937 0.033202 0
19 1 0.305729 0.00933177 0
20 1 0.327404 0.0151937 0
51 1 0.333064 0.0398486 0
21 1 0.348805 0.0213806 0
23 1 0.371605 0.0261758 0
892 1 0.363806 0.00166715 0
22 1 0.35513 0.0454103 0
894 1 0.386266 0.00702211 0
24 1 0.392946 0.0315885 0
25 1 0.408528 0.0135101 0
26 1 0.415867 0.0377135 0
27 1 0.43119 0.0197687 0
29 1 0.45371 0.0253685 0
28 1 0.438368 0.0444117 0
898 1 0.445524 0.00128552 0
900 1 0.469446 0.0072255 0
30 1 0.475886 0.0321488 0
901 1 0.49169 0.0135945 0
931 1 0.498297 0.0375533 0
989 1 0.0102481 0.0750404 0
61 1 0.0320079 0.0674786 0
960 1 0.0145366 0.0510699 0
62 1 0.0482923 0.0845958 0
32 1 0.0540022 0.0594419 0
63 1 0.0701628 0.0768341 0
34 1 0.0759842 0.0520657 0
65 1 0.0913702 0.0693999 0
36 1 0.113477 0.0609365 0
66 1 0.108897 0.0857573 0
69 1 0.157059 0.0464163 0
67 1 0.130004 0.0774872 0
38 1 0.136116 0.0535855 0
68 1 0.152063 0.0709079 0
70 1 0.168962 0.0876159 0
71 1 0.174261 0.063797 0
72 1 0.19087 0.0814371 0
42 1 0.195462 0.0569938 0
73 1 0.212364 0.0744998 0
43 1 0.2167 0.0490044 0
44 1 0.233221 0.0662272 0
105 1 0.229891 0.0899819 0
77 1 0.275041 0.046099 0
74 1 0.253703 0.0833369 0
75 1 0.255415 0.0576303 0
76 1 0.2777 0.0702187 0
48 1 0.296337 0.0517062 0
79 1 0.300642 0.075008 0
50 1 0.317131 0.0583735 0
81 1 0.323692 0.0818922 0
52 1 0.340043 0.0629579 0
83 1 0.362195 0.0688578 0
82 1 0.346851 0.0865822 0
53 1 0.377482 0.0499862 0
54 1 0.384457 0.0744724 0
55 1 0.399741 0.055525 0
56 1 0.407102 0.0807677 0
57 1 0.42233 0.062776 0
58 1 0.444458 0.068383 0
87 1 0.429553 0.0881602 0
59 1 0.459819 0.0505352 0
89 1 0.466882 0.0744154 0
60 1 0.482595 0.05682 0
961 1 0.489603 0.0803694 0
990 1 0.0264675 0.0931406 0
1020 1 0.0214685 0.116818 0
1019 1 0.0049414 0.0997781 0
121 1 0.0388563 0.134597 0
91 1 0.0432553 0.11 0
92 1 0.0598741 0.126525 0
93 1 0.0651713 0.101644 0
94 1 0.081938 0.11841 0
64 1 0.0869316 0.0938338 0
95 1 0.103715 0.111287 0
96 1 0.120237 0.128016 0
125 1 0.0982978 0.135938 0
97 1 0.125315 0.10346 0
98 1 0.141824 0.119109 0
99 1 0.146664 0.09475 0
100 1 0.163288 0.111131 0
130 1 0.179555 0.129045 0
101 1 0.185098 0.105549 0
102 1 0.202143 0.12266 0
103 1 0.207148 0.0990655 0
104 1 0.224048 0.116791 0
106 1 0.245325 0.106316 0
137 1 0.253775 0.128738 0
107 1 0.269384 0.110129 0
78 1 0.285298 0.0931703 0
108 1 0.275653 0.133692 0
109 1 0.292184 0.117347 0
80 1 0.307841 0.0991744 0
110 1 0.316216 0.122283 0
111 1 0.331673 0.104455 0
141 1 0.337875 0.128971 0
113 1 0.353619 0.110224 0
84 1 0.369354 0.0931303 0
112 1 0.374989 0.117732 0
85 1 0.390764 0.0992047 0
115 1 0.39753 0.123212 0
86 1 0.413135 0.105511 0
88 1 0.451079 0.0923699 0
116 1 0.419137 0.129838 0
117 1 0.435197 0.111508 0
119 1 0.457085 0.116074 0
118 1 0.441643 0.135326 0
90 1 0.473376 0.0988026 0
120 1 0.479976 0.124412 0
991 1 0.495649 0.10516 0
1079 1 0.0114671 0.165654 0
151 1 0.0342996 0.16028 0
1050 1 0.0172025 0.141265 0
152 1 0.0515359 0.177717 0
122 1 0.0558323 0.151682 0
153 1 0.072113 0.169056 0
123 1 0.0771941 0.143134 0
124 1 0.0941378 0.160115 0
126 1 0.115649 0.152184 0
155 1 0.110804 0.176326 0
129 1 0.15839 0.13688 0
157 1 0.13255 0.169214 0
127 1 0.136828 0.144405 0
128 1 0.155264 0.161925 0
159 1 0.176911 0.152833 0
131 1 0.199333 0.156867 0
132 1 0.184877 0.175829 0
135 1 0.238477 0.146734 0
133 1 0.216067 0.141351 0
134 1 0.222409 0.165068 0
165 1 0.245767 0.171895 0
136 1 0.260301 0.153019 0
138 1 0.282526 0.158751 0
167 1 0.267474 0.177833 0
139 1 0.298831 0.140799 0
169 1 0.304087 0.165591 0
140 1 0.320388 0.146266 0
171 1 0.325957 0.172667 0
143 1 0.35904 0.135701 0
142 1 0.342119 0.154699 0
173 1 0.364523 0.160257 0
172 1 0.348994 0.177859 0
114 1 0.381601 0.141757 0
144 1 0.386853 0.166395 0
145 1 0.403271 0.148222 0
146 1 0.410342 0.172527 0
147 1 0.425805 0.154075 0
148 1 0.447462 0.160761 0
177 1 0.431954 0.178422 0
1051 1 0.492665 0.17376 0
149 1 0.46341 0.141871 0
150 1 0.469563 0.166207 0
1021 1 0.485626 0.14842 0
1107 1 0.000708305 0.215282 0
1080 1 0.0289974 0.18384 0
1109 1 0.0225284 0.208678 0
1078 1 0.00566016 0.191453 0
181 1 0.0445321 0.201371 0
183 1 0.0681666 0.198536 0
182 1 0.0537248 0.224627 0
185 1 0.0883208 0.211711 0
154 1 0.0890548 0.186477 0
186 1 0.115003 0.222109 0
156 1 0.107964 0.199615 0
158 1 0.130043 0.203029 0
160 1 0.147463 0.187935 0
189 1 0.153356 0.211329 0
163 1 0.206389 0.18216 0
161 1 0.169355 0.193514 0
191 1 0.175167 0.218484 0
162 1 0.191109 0.200396 0
192 1 0.196745 0.224401 0
193 1 0.212948 0.206568 0
164 1 0.22853 0.189078 0
195 1 0.234858 0.213589 0
166 1 0.251304 0.196742 0
196 1 0.257203 0.220949 0
197 1 0.273058 0.202447 0
168 1 0.28953 0.183535 0
199 1 0.295433 0.208226 0
170 1 0.310859 0.189935 0
200 1 0.316821 0.213994 0
201 1 0.332837 0.196437 0
202 1 0.338933 0.22109 0
203 1 0.354617 0.202134 0
174 1 0.370727 0.185066 0
204 1 0.377722 0.209081 0
175 1 0.393508 0.189416 0
205 1 0.400822 0.215169 0
176 1 0.415842 0.196818 0
179 1 0.453621 0.184702 0
207 1 0.422892 0.221508 0
178 1 0.437766 0.202235 0
209 1 0.460513 0.208819 0
180 1 0.475517 0.189924 0
1081 1 0.482402 0.213924 0
1052 1 0.49956 0.196882 0
211 1 0.0380624 0.241992 0
1140 1 0.019972 0.257929 0
1110 1 0.0156472 0.232839 0
212 1 0.0425292 0.266091 0
213 1 0.059729 0.249958 0
184 1 0.0756722 0.232643 0
214 1 0.0814825 0.256937 0
243 1 0.0646999 0.273682 0
215 1 0.0974619 0.237511 0
216 1 0.104357 0.262716 0
217 1 0.119853 0.246338 0
218 1 0.126286 0.269953 0
187 1 0.137339 0.228287 0
188 1 0.142045 0.25311 0
190 1 0.159441 0.235904 0
220 1 0.164326 0.259347 0
221 1 0.181717 0.242213 0
222 1 0.186646 0.265273 0
223 1 0.203102 0.24844 0
253 1 0.208125 0.272169 0
194 1 0.218957 0.23075 0
224 1 0.224101 0.255143 0
225 1 0.239945 0.237863 0
226 1 0.246516 0.26233 0
198 1 0.279617 0.225948 0
227 1 0.263247 0.245393 0
228 1 0.285799 0.250093 0
257 1 0.269267 0.269004 0
229 1 0.301844 0.231519 0
230 1 0.307127 0.256763 0
231 1 0.323003 0.238464 0
261 1 0.329082 0.262996 0
233 1 0.361032 0.226808 0
232 1 0.344869 0.245681 0
234 1 0.366769 0.250671 0
263 1 0.351129 0.270026 0
235 1 0.383938 0.233354 0
265 1 0.389385 0.257585 0
206 1 0.406029 0.239233 0
236 1 0.412332 0.264315 0
208 1 0.444918 0.225977 0
237 1 0.427721 0.245575 0
239 1 0.449857 0.250373 0
238 1 0.434308 0.269863 0
210 1 0.467006 0.232511 0
240 1 0.472529 0.256738 0
1111 1 0.488904 0.238588 0
1112 1 0.494597 0.262518 0
1139 1 0.00437477 0.276622 0
1169 1 0.00946632 0.300222 0
241 1 0.0261425 0.283423 0
271 1 0.0320913 0.308225 0
242 1 0.0475076 0.29058 0
244 1 0.0702655 0.298087 0
273 1 0.0532093 0.314813 0
245 1 0.0872279 0.281003 0
246 1 0.0918935 0.304237 0
247 1 0.109628 0.287681 0
248 1 0.11395 0.312309 0
249 1 0.131309 0.29541 0
219 1 0.147994 0.278163 0
250 1 0.154372 0.302007 0
251 1 0.170335 0.283597 0
281 1 0.176404 0.309637 0
252 1 0.192093 0.290349 0
283 1 0.198447 0.314887 0
254 1 0.213284 0.297624 0
255 1 0.230805 0.27998 0
285 1 0.236289 0.305125 0
256 1 0.252103 0.286243 0
287 1 0.257609 0.310711 0
258 1 0.27404 0.292439 0
288 1 0.279707 0.316287 0
259 1 0.290978 0.273598 0
289 1 0.296372 0.297963 0
260 1 0.313171 0.281353 0
291 1 0.318876 0.306291 0
262 1 0.334696 0.288006 0
293 1 0.356786 0.293887 0
292 1 0.340866 0.312264 0
264 1 0.373489 0.276159 0
294 1 0.363227 0.318022 0
295 1 0.379856 0.300224 0
266 1 0.395602 0.282105 0
297 1 0.401603 0.306153 0
267 1 0.417868 0.288027 0
268 1 0.440622 0.294624 0
298 1 0.424168 0.311951 0
269 1 0.456329 0.275451 0
270 1 0.462224 0.299232 0
1141 1 0.479307 0.281526 0
300 1 0.484445 0.305431 0
449 1 0.464065 0.483907 0
1200 1 0.037604 0.331971 0
1229 1 0.0211882 0.350502 0
1170 1 0.0156568 0.32614 0
301 1 0.0431047 0.356946 0
272 1 0.0593247 0.33956 0
275 1 0.075008 0.322317 0
274 1 0.0811189 0.347254 0
276 1 0.0971498 0.329189 0
305 1 0.103607 0.353951 0
277 1 0.11991 0.336845 0
307 1 0.126584 0.360633 0
279 1 0.137617 0.319307 0
278 1 0.142699 0.343275 0
280 1 0.159304 0.32658 0
311 1 0.164801 0.350851 0
282 1 0.180719 0.333407 0
312 1 0.186323 0.357603 0
313 1 0.202202 0.339716 0
314 1 0.209241 0.364973 0
284 1 0.218622 0.322317 0
315 1 0.225209 0.346644 0
286 1 0.241183 0.328893 0
316 1 0.247932 0.35284 0
317 1 0.263496 0.334595 0
319 1 0.285638 0.341919 0
318 1 0.269641 0.359087 0
290 1 0.301777 0.322826 0
320 1 0.307808 0.347341 0
321 1 0.323731 0.330719 0
322 1 0.329193 0.356024 0
323 1 0.345732 0.3364 0
325 1 0.367965 0.343525 0
324 1 0.351004 0.361829 0
296 1 0.385624 0.325241 0
326 1 0.390066 0.349978 0
327 1 0.408018 0.330558 0
328 1 0.412284 0.355736 0
299 1 0.445852 0.318385 0
329 1 0.430052 0.335969 0
359 1 0.451555 0.342707 0
358 1 0.434653 0.360139 0
330 1 0.467567 0.324255 0
360 1 0.473551 0.34868 0
1201 1 0.490009 0.329725 0
1231 1 0.495671 0.355205 0
1230 1 0.0263979 0.374238 0
331 1 0.0316735 0.398203 0
1260 1 0.008744 0.391042 0
1259 1 0.00387464 0.366888 0
302 1 0.048343 0.381558 0
303 1 0.064791 0.364359 0
333 1 0.0696799 0.388264 0
332 1 0.0537777 0.40445 0
304 1 0.0860349 0.370864 0
335 1 0.0920531 0.39392 0
306 1 0.109844 0.377684 0
337 1 0.114333 0.401431 0
308 1 0.131695 0.384522 0
309 1 0.148392 0.367759 0
339 1 0.154237 0.393405 0
338 1 0.136497 0.408676 0
310 1 0.170962 0.374955 0
341 1 0.175649 0.398939 0
343 1 0.192739 0.382356 0
342 1 0.197414 0.407226 0
344 1 0.215107 0.389113 0
345 1 0.231854 0.371427 0
346 1 0.236731 0.396404 0
347 1 0.253244 0.377217 0
377 1 0.258765 0.403471 0
348 1 0.274995 0.385682 0
378 1 0.280489 0.410502 0
349 1 0.29166 0.365733 0
350 1 0.296279 0.393144 0
351 1 0.313061 0.372858 0
381 1 0.318129 0.39911 0
353 1 0.333856 0.381076 0
354 1 0.356941 0.387062 0
352 1 0.341445 0.405189 0
355 1 0.373991 0.368629 0
356 1 0.379033 0.392791 0
357 1 0.395957 0.374686 0
386 1 0.401125 0.399947 0
387 1 0.417976 0.379796 0
389 1 0.440206 0.384715 0
388 1 0.423453 0.404512 0
1232 1 0.456556 0.366615 0
1262 1 0.479053 0.37334 0
1261 1 0.461946 0.391471 0
1293 1 0.484233 0.398194 0
361 1 0.0369818 0.422491 0
391 1 0.0194619 0.439417 0
1290 1 0.0149832 0.414129 0
362 1 0.0416867 0.446153 0
363 1 0.0589348 0.430703 0
334 1 0.0757736 0.412284 0
365 1 0.0803566 0.437298 0
336 1 0.0969043 0.419162 0
366 1 0.102397 0.443717 0
367 1 0.119264 0.426358 0
368 1 0.124823 0.450141 0
369 1 0.141469 0.432548 0
340 1 0.159536 0.416654 0
370 1 0.163273 0.44037 0
371 1 0.180974 0.423448 0
401 1 0.186563 0.447954 0
372 1 0.203666 0.430728 0
403 1 0.208235 0.45525 0
373 1 0.219912 0.413248 0
374 1 0.225806 0.437535 0
375 1 0.242078 0.420575 0
405 1 0.247233 0.445248 0
376 1 0.26433 0.42846 0
409 1 0.285447 0.435249 0
407 1 0.268756 0.45213 0
379 1 0.301553 0.417398 0
380 1 0.307687 0.442024 0
382 1 0.323691 0.423602 0
413 1 0.329025 0.447731 0
385 1 0.362858 0.410962 0
383 1 0.346417 0.430672 0
414 1 0.36839 0.435828 0
412 1 0.351861 0.454774 0
384 1 0.384628 0.416888 0
415 1 0.391035 0.441524 0
417 1 0.407522 0.424549 0
416 1 0.413633 0.447788 0
419 1 0.446077 0.408642 0
418 1 0.429805 0.427848 0
390 1 0.451615 0.43478 0
447 1 0.435647 0.452929 0
1292 1 0.490747 0.422374 0
1291 1 0.469002 0.415947 0
1321 1 0.474216 0.440406 0
1322 1 0.497118 0.447181 0
421 1 0.00884578 0.481879 0
392 1 0.0258981 0.46323 0
422 1 0.0313606 0.488436 0
1320 1 0.00291403 0.457723 0
393 1 0.0475322 0.471539 0
364 1 0.0639651 0.454534 0
394 1 0.0688422 0.479091 0
423 1 0.0529517 0.496477 0
395 1 0.0859984 0.461842 0
396 1 0.0910716 0.487567 0
397 1 0.107632 0.468426 0
427 1 0.113287 0.493438 0
398 1 0.130048 0.473797 0
399 1 0.146443 0.456895 0
429 1 0.152551 0.480611 0
428 1 0.135511 0.498399 0
400 1 0.169573 0.464238 0
431 1 0.174753 0.489069 0
402 1 0.192299 0.472042 0
432 1 0.198093 0.4973 0
433 1 0.214105 0.479244 0
404 1 0.23062 0.462395 0
435 1 0.235789 0.486674 0
406 1 0.252987 0.468993 0
436 1 0.257647 0.493329 0
408 1 0.274789 0.475923 0
1049 1 0.000118092 0.124256 0
410 1 0.291874 0.459692 0
441 1 0.296748 0.483877 0
411 1 0.313102 0.466007 0
440 1 0.318717 0.489844 0
442 1 0.335648 0.472257 0
473 1 0.358008 0.478501 0
471 1 0.341228 0.497026 0
443 1 0.374048 0.459664 0
444 1 0.380389 0.485583 0
445 1 0.396297 0.466807 0
475 1 0.403653 0.49086 0
448 1 0.441709 0.477914 0
446 1 0.419051 0.472416 0
477 1 0.426487 0.497349 0
420 1 0.4578 0.459613 0
1351 1 0.486403 0.489236 0
450 1 0.479868 0.46427 0
453 1 0.0366818 0.513088 0
452 1 0.0196274 0.528953 0
451 1 0.0151275 0.505278 0
454 1 0.041867 0.538491 0
424 1 0.0585832 0.521542 0
425 1 0.0743912 0.503296 0
455 1 0.0803923 0.528353 0
426 1 0.0973248 0.510813 0
456 1 0.102304 0.535695 0
457 1 0.119175 0.517313 0
458 1 0.123995 0.542524 0
459 1 0.141217 0.522603 0
430 1 0.158077 0.505699 0
489 1 0.146575 0.546888 0
460 1 0.163099 0.529043 0
461 1 0.180313 0.513581 0
462 1 0.186011 0.538169 0
463 1 0.203163 0.521247 0
434 1 0.219411 0.504813 0
464 1 0.224719 0.528803 0
465 1 0.241328 0.511687 0
493 1 0.207273 0.54539 0
466 1 0.246995 0.536151 0
437 1 0.263913 0.518276 0
467 1 0.285644 0.526037 0
497 1 0.268525 0.543845 0
438 1 0.302237 0.50805 0
468 1 0.307602 0.532751 0
469 1 0.325154 0.514483 0
499 1 0.330711 0.54038 0
470 1 0.347167 0.522975 0
472 1 0.363838 0.502866 0
503 1 0.370367 0.528363 0
474 1 0.387111 0.509692 0
505 1 0.392783 0.53291 0
476 1 0.40944 0.515403 0
506 1 0.416132 0.539957 0
507 1 0.4316 0.521048 0
478 1 0.448848 0.501928 0
480 1 0.45472 0.526112 0
479 1 0.470743 0.507942 0
510 1 0.477472 0.532117 0
1381 1 0.493253 0.513466 0
482 1 0.0295477 0.579159 0
483 1 0.0249424 0.554694 0
1410 1 0.00609341 0.570618 0
481 1 0.00344762 0.546619 0
513 1 0.0468062 0.563415 0
485 1 0.0645932 0.546151 0
484 1 0.0685593 0.570646 0
514 1 0.052032 0.588132 0
486 1 0.0874723 0.553997 0
515 1 0.0910049 0.580245 0
487 1 0.108656 0.563861 0
488 1 0.129683 0.578869 0
490 1 0.150053 0.569555 0
491 1 0.168235 0.553096 0
521 1 0.171838 0.577131 0
492 1 0.190204 0.561755 0
523 1 0.192914 0.585772 0
494 1 0.211684 0.56981 0
495 1 0.230185 0.552462 0
525 1 0.234075 0.578151 0
496 1 0.251691 0.560736 0
526 1 0.255265 0.586119 0
527 1 0.272916 0.568585 0
498 1 0.29104 0.551455 0
529 1 0.295788 0.575219 0
500 1 0.313868 0.55774 0
530 1 0.319333 0.583886 0
501 1 0.352727 0.547441 0
531 1 0.336489 0.566339 0
533 1 0.3593 0.571393 0
532 1 0.343268 0.591818 0
502 1 0.376647 0.551318 0
534 1 0.382212 0.576227 0
504 1 0.399553 0.557296 0
535 1 0.405178 0.581156 0
509 1 0.438667 0.544493 0
508 1 0.422057 0.564623 0
537 1 0.429088 0.587637 0
539 1 0.444826 0.568984 0
1442 1 0.489781 0.582163 0
540 1 0.46031 0.549868 0
569 1 0.467344 0.574679 0
1441 1 0.483494 0.555899 0
512 1 0.0322005 0.603866 0
542 1 0.0377098 0.62867 0
541 1 0.0153163 0.621003 0
511 1 0.0106028 0.59453 0
543 1 0.0549793 0.613192 0
545 1 0.0740077 0.59657 0
546 1 0.0762679 0.622 0
517 1 0.111477 0.5927 0
516 1 0.094276 0.608042 0
547 1 0.0970862 0.633013 0
518 1 0.115462 0.618689 0
520 1 0.15348 0.592571 0
519 1 0.13332 0.604113 0
548 1 0.137204 0.629329 0
549 1 0.155576 0.616446 0
522 1 0.174898 0.601414 0
551 1 0.177531 0.6252 0
553 1 0.196915 0.610605 0
552 1 0.199523 0.634574 0
524 1 0.21627 0.594259 0
554 1 0.217829 0.619289 0
555 1 0.238188 0.602727 0
556 1 0.239569 0.627211 0
557 1 0.259998 0.609587 0
528 1 0.279297 0.593209 0
558 1 0.282405 0.618593 0
587 1 0.26077 0.634823 0
559 1 0.300911 0.601372 0
561 1 0.323954 0.60982 0
560 1 0.303282 0.628685 0
562 1 0.349399 0.616343 0
563 1 0.365703 0.597098 0
565 1 0.376086 0.6193 0
564 1 0.361365 0.63782 0
536 1 0.389859 0.600181 0
566 1 0.398598 0.623969 0
567 1 0.413248 0.605572 0
568 1 0.435664 0.612111 0
597 1 0.421051 0.630876 0
538 1 0.451436 0.593414 0
600 1 0.458306 0.61688 0
570 1 0.473883 0.598985 0
1501 1 0.480898 0.624403 0
1471 1 0.496862 0.605374 0
573 1 0.0399526 0.653185 0
572 1 0.0209075 0.668904 0
571 1 0.0187675 0.645557 0
603 1 0.0419554 0.676718 0
544 1 0.0582204 0.638203 0
575 1 0.0793417 0.648015 0
574 1 0.0608712 0.662605 0
605 1 0.0813552 0.673493 0
577 1 0.117858 0.643668 0
576 1 0.100014 0.659329 0
578 1 0.120936 0.669432 0
579 1 0.138528 0.654444 0
550 1 0.158663 0.640619 0
580 1 0.161596 0.665718 0
609 1 0.141345 0.679884 0
581 1 0.179788 0.649425 0
611 1 0.181711 0.674969 0
582 1 0.201157 0.658781 0
583 1 0.220619 0.643386 0
584 1 0.222492 0.667237 0
585 1 0.242515 0.651414 0
615 1 0.243414 0.67605 0
586 1 0.262901 0.660692 0
589 1 0.281235 0.645085 0
588 1 0.28408 0.670792 0
590 1 0.302477 0.65438 0
591 1 0.324066 0.639904 0
621 1 0.324595 0.665733 0
619 1 0.304355 0.68057 0
593 1 0.343792 0.653239 0
594 1 0.365952 0.661964 0
592 1 0.347242 0.677501 0
595 1 0.383122 0.643853 0
625 1 0.389763 0.667662 0
596 1 0.405614 0.649553 0
627 1 0.41284 0.673664 0
599 1 0.443703 0.636332 0
598 1 0.428575 0.655391 0
628 1 0.449565 0.661992 0
657 1 0.434383 0.682343 0
629 1 0.465053 0.641941 0
630 1 0.472216 0.667025 0
1502 1 0.487851 0.64854 0
1533 1 0.493919 0.673012 0
631 1 0.00177139 0.713554 0
602 1 0.022457 0.703858 0
601 1 0.00637441 0.687097 0
633 1 0.0451028 0.701282 0
604 1 0.0630672 0.687245 0
635 1 0.0640589 0.714259 0
606 1 0.0832679 0.700144 0
636 1 0.0847245 0.724895 0
607 1 0.101638 0.68474 0
637 1 0.103779 0.710243 0
608 1 0.121168 0.694889 0
638 1 0.124664 0.720447 0
639 1 0.142473 0.706178 0
610 1 0.161916 0.690887 0
641 1 0.165259 0.714941 0
612 1 0.182793 0.700024 0
613 1 0.20281 0.684077 0
643 1 0.204385 0.708732 0
642 1 0.186094 0.724158 0
614 1 0.224769 0.693247 0
645 1 0.225934 0.71789 0
616 1 0.245418 0.701638 0
617 1 0.264592 0.685683 0
647 1 0.266568 0.711003 0
618 1 0.284625 0.695769 0
649 1 0.287341 0.720486 0
620 1 0.30618 0.705025 0
622 1 0.324661 0.68946 0
651 1 0.326397 0.715872 0
653 1 0.343682 0.701515 0
624 1 0.364681 0.709297 0
623 1 0.372992 0.685216 0
654 1 0.348011 0.725856 0
655 1 0.385358 0.715952 0
626 1 0.396043 0.693233 0
686 1 0.406437 0.722365 0
656 1 0.419053 0.700881 0
658 1 0.442636 0.7058 0
687 1 0.428405 0.725624 0
659 1 0.456995 0.686373 0
660 1 0.464704 0.711275 0
1531 1 0.479259 0.691558 0
1561 1 0.487011 0.715809 0
632 1 0.0196019 0.730137 0
664 1 0.035762 0.747966 0
663 1 0.0136518 0.754202 0
662 1 0.0304513 0.771364 0
634 1 0.0443158 0.725653 0
695 1 0.0538242 0.763209 0
665 1 0.0639297 0.739542 0
666 1 0.0857691 0.749769 0
667 1 0.104961 0.734976 0
668 1 0.10869 0.760427 0
697 1 0.0908924 0.774592 0
669 1 0.126674 0.745428 0
640 1 0.145839 0.731395 0
670 1 0.147764 0.756865 0
699 1 0.130228 0.771358 0
671 1 0.167574 0.740083 0
672 1 0.170126 0.763915 0
673 1 0.188239 0.749185 0
644 1 0.207367 0.732847 0
674 1 0.208428 0.759091 0
646 1 0.247263 0.726494 0
675 1 0.227278 0.743313 0
705 1 0.23052 0.767613 0
677 1 0.248997 0.750681 0
648 1 0.268134 0.736654 0
678 1 0.271961 0.761101 0
679 1 0.289464 0.745251 0
650 1 0.307959 0.730758 0
681 1 0.311217 0.755199 0
652 1 0.330192 0.740522 0
682 1 0.331986 0.765684 0
683 1 0.351049 0.751907 0
685 1 0.368734 0.734638 0
684 1 0.372801 0.75854 0
715 1 0.390974 0.740294 0
714 1 0.396747 0.763386 0
717 1 0.4136 0.745759 0
689 1 0.450829 0.731057 0
688 1 0.436167 0.750636 0
716 1 0.42048 0.769381 0
719 1 0.457621 0.754811 0
690 1 0.472121 0.735401 0
1591 1 0.479217 0.760705 0
1562 1 0.493551 0.742674 0
693 1 0.0257877 0.795879 0
691 1 0.00820369 0.778915 0
721 1 0.00230267 0.802839 0
723 1 0.0423917 0.811644 0
694 1 0.048384 0.787966 0
696 1 0.0696972 0.782989 0
725 1 0.0649027 0.806002 0
727 1 0.0885946 0.798865 0
728 1 0.107329 0.8131 0
698 1 0.110232 0.786848 0
700 1 0.13211 0.796942 0
701 1 0.150843 0.782279 0
731 1 0.15282 0.808689 0
702 1 0.172527 0.790421 0
703 1 0.190507 0.773951 0
733 1 0.194476 0.799234 0
732 1 0.175169 0.814961 0
704 1 0.212293 0.783596 0
735 1 0.216598 0.809216 0
706 1 0.233078 0.793017 0
676 1 0.251778 0.775587 0
737 1 0.254444 0.801056 0
707 1 0.272998 0.785124 0
738 1 0.275759 0.81105 0
708 1 0.293289 0.795991 0
709 1 0.293011 0.770692 0
710 1 0.313964 0.804397 0
680 1 0.313812 0.780249 0
741 1 0.334507 0.815382 0
713 1 0.356509 0.777672 0
711 1 0.335534 0.791035 0
712 1 0.365752 0.800395 0
743 1 0.380784 0.782332 0
745 1 0.389517 0.80555 0
746 1 0.403994 0.786995 0
775 1 0.411683 0.811859 0
718 1 0.4425 0.774342 0
747 1 0.426388 0.79301 0
749 1 0.448904 0.79845 0
748 1 0.434438 0.816922 0
1622 1 0.493107 0.810261 0
720 1 0.464395 0.77959 0
1621 1 0.470824 0.80358 0
1592 1 0.486416 0.78575 0
692 1 0.0201091 0.82024 0
751 1 0.0376505 0.836282 0
1680 1 0.0152794 0.845102 0
752 1 0.0317308 0.861262 0
753 1 0.0544906 0.854507 0
722 1 0.0597268 0.829685 0
724 1 0.0762181 0.845755 0
726 1 0.0812224 0.822247 0
757 1 0.0985087 0.838034 0
756 1 0.115449 0.853953 0
755 1 0.0945474 0.862502 0
729 1 0.129501 0.822304 0
759 1 0.137641 0.846046 0
730 1 0.158716 0.835166 0
760 1 0.154558 0.862817 0
761 1 0.176308 0.854472 0
763 1 0.19709 0.823595 0
762 1 0.19884 0.847885 0
734 1 0.218934 0.83566 0
736 1 0.236812 0.818842 0
765 1 0.237167 0.85456 0
764 1 0.214605 0.864747 0
767 1 0.258096 0.826343 0
766 1 0.261487 0.851043 0
768 1 0.2795 0.836654 0
739 1 0.296522 0.820799 0
769 1 0.299894 0.84712 0
740 1 0.316752 0.830694 0
770 1 0.322118 0.855388 0
742 1 0.354875 0.822088 0
771 1 0.338692 0.839304 0
773 1 0.360022 0.84592 0
801 1 0.344881 0.864113 0
744 1 0.376659 0.825638 0
803 1 0.382022 0.850261 0
774 1 0.398013 0.832058 0
776 1 0.405269 0.856646 0
777 1 0.420128 0.836895 0
779 1 0.441634 0.840904 0
778 1 0.427421 0.861996 0
750 1 0.457174 0.822551 0
1651 1 0.478913 0.8287 0
780 1 0.463332 0.847816 0
1652 1 0.485632 0.85274 0
781 1 0.00941237 0.868922 0
782 1 0.0279733 0.885604 0
811 1 0.00516735 0.894403 0
813 1 0.04491 0.903111 0
783 1 0.0495684 0.878163 0
784 1 0.0661954 0.894406 0
754 1 0.0717498 0.870874 0
785 1 0.0884071 0.886769 0
787 1 0.110953 0.878382 0
786 1 0.104813 0.904217 0
788 1 0.127201 0.895408 0
758 1 0.132311 0.871044 0
789 1 0.149296 0.888108 0
790 1 0.166024 0.904809 0
791 1 0.170759 0.879527 0
823 1 0.188124 0.895833 0
792 1 0.192441 0.871604 0
793 1 0.209508 0.888795 0
795 1 0.231326 0.880802 0
825 1 0.248131 0.897815 0
794 1 0.226903 0.905718 0
796 1 0.252528 0.873512 0
827 1 0.269477 0.88848 0
797 1 0.282118 0.866779 0
798 1 0.290765 0.893448 0
799 1 0.305742 0.872871 0
829 1 0.312514 0.897983 0
800 1 0.328133 0.879266 0
831 1 0.334945 0.905144 0
802 1 0.351608 0.887561 0
772 1 0.366833 0.868984 0
804 1 0.373774 0.89305 0
805 1 0.388898 0.874004 0
806 1 0.395926 0.898265 0
807 1 0.411705 0.880808 0
809 1 0.449124 0.867259 0
808 1 0.43366 0.885429 0
837 1 0.418243 0.904799 0
810 1 0.456345 0.890611 0
839 1 0.441269 0.909673 0
1681 1 0.471165 0.871504 0
1711 1 0.479049 0.895963 0
1682 1 0.493697 0.877592 0
812 1 0.0225133 0.910863 0
843 1 0.0393112 0.927294 0
841 1 0.0170275 0.935368 0
842 1 0.0343548 0.951457 0
899 1 0.462326 0.984265 0
844 1 0.0565258 0.943549 0
814 1 0.0608469 0.919506 0
845 1 0.0783175 0.936436 0
815 1 0.0815481 0.911459 0
816 1 0.0996303 0.928465 0
817 1 0.122175 0.921023 0
847 1 0.116584 0.945742 0
846 1 0.0947881 0.953121 0
818 1 0.138345 0.936726 0
819 1 0.143321 0.912971 0
820 1 0.160257 0.929672 0
851 1 0.177453 0.945225 0
821 1 0.182966 0.921398 0
824 1 0.204407 0.913588 0
822 1 0.200044 0.938385 0
853 1 0.221304 0.930345 0
855 1 0.243646 0.92301 0
854 1 0.23754 0.948727 0
826 1 0.265755 0.916499 0
856 1 0.260051 0.941364 0
857 1 0.281966 0.935432 0
828 1 0.297875 0.918194 0
859 1 0.303528 0.942733 0
830 1 0.320031 0.923979 0
860 1 0.326561 0.946976 0
833 1 0.35808 0.911277 0
832 1 0.34247 0.929346 0
863 1 0.365373 0.93487 0
861 1 0.349477 0.95243 0
834 1 0.380631 0.916967 0
865 1 0.387503 0.941425 0
835 1 0.402709 0.923286 0
836 1 0.409778 0.946389 0
838 1 0.425154 0.928463 0
869 1 0.447783 0.933797 0
867 1 0.431762 0.952517 0
1712 1 0.485723 0.920696 0
1741 1 0.469994 0.939345 0
840 1 0.463307 0.915075 0
1742 1 0.492549 0.946337 0
871 1 0.0292486 0.977266 0
1770 1 0.012175 0.95943 0
1800 1 0.00669695 0.98449 0
872 1 0.0460426 0.995283 0
873 1 0.0506078 0.968701 0
874 1 0.0675478 0.985404 0
875 1 0.0722926 0.960996 0
876 1 0.0896326 0.977692 0
877 1 0.11174 0.970516 0
7 1 0.107131 0.994246 0
849 1 0.155494 0.95378 0
878 1 0.12984 0.986909 0
848 1 0.133231 0.961597 0
879 1 0.151081 0.978844 0
881 1 0.16795 0.996206 0
850 1 0.172633 0.97096 0
11 1 0.189027 0.988036 0
852 1 0.193565 0.962648 0
882 1 0.210537 0.980858 0
883 1 0.215466 0.956138 0
884 1 0.232333 0.97285 0
886 1 0.248304 0.990786 0
13 1 0.226243 0.997931 0
885 1 0.25413 0.965743 0
17 1 0.269859 0.982645 0
887 1 0.276515 0.958676 0
888 1 0.292444 0.977511 0
858 1 0.312332 0.966425 0
889 1 0.319554 0.991067 0
891 1 0.334078 0.971448 0
890 1 0.341566 0.99618 0
862 1 0.357284 0.976526 0
864 1 0.371675 0.95903 0
893 1 0.379081 0.983039 0
895 1 0.394286 0.964239 0
896 1 0.40074 0.989048 0
866 1 0.416344 0.970969 0
870 1 0.455262 0.958184 0
897 1 0.423504 0.994963 0
868 1 0.438851 0.976319 0
1772 1 0.484203 0.989431 0
1771 1 0.476964 0.963992 0
1411 1 0.499692 0.539193 0
1773 1 0.499196 0.971546 0
439 1 0.280143 0.500551 0
902 1 0.51403 0.0195111 0
933 1 0.520612 0.0432712 0
904 1 0.535766 0.024237 0
906 1 0.551506 0.00469087 0
935 1 0.559445 0.0297377 0
908 1 0.575008 0.0111993 0
937 1 0.582434 0.0356445 0
939 1 0.597489 0.0157899 0
938 1 0.605276 0.0414553 0
940 1 0.619888 0.0221181 0
942 1 0.733456 0.0335835 0
912 1 0.73909 0.0088146 0
943 1 0.7556 0.0276258 0
913 1 0.760805 0.00311045 0
914 1 0.777319 0.0206417 0
947 1 0.793562 0.0378583 0
916 1 0.798355 0.0138076 0
918 1 0.816323 0.029925 0
917 1 0.820976 0.00442636 0
919 1 0.837554 0.0215347 0
920 1 0.85525 0.0385977 0
1790 1 0.859888 0.0129387 0
951 1 0.876474 0.0303964 0
921 1 0.880843 0.00579366 0
922 1 0.897861 0.0231321 0
953 1 0.916452 0.0393755 0
924 1 0.91906 0.0145939 0
955 1 0.936546 0.0308235 0
925 1 0.942626 0.00698316 0
926 1 0.959042 0.0242822 0
957 1 0.976151 0.0417973 0
928 1 0.981 0.0167869 0
959 1 0.997951 0.0339115 0
932 1 0.505353 0.0626196 0
963 1 0.528093 0.0669814 0
962 1 0.51194 0.0862179 0
934 1 0.543793 0.0487611 0
965 1 0.551393 0.0724805 0
936 1 0.566514 0.0529939 0
966 1 0.573122 0.078479 0
967 1 0.587511 0.060227 0
968 1 0.594579 0.0858168 0
969 1 0.609047 0.0678114 0
971 1 0.727881 0.0590135 0
944 1 0.749553 0.0513581 0
973 1 0.744448 0.0761481 0
970 1 0.721896 0.0825319 0
945 1 0.771939 0.0449029 0
975 1 0.767532 0.0692365 0
946 1 0.789042 0.0614004 0
974 1 0.784076 0.0860969 0
949 1 0.833006 0.0462269 0
976 1 0.80598 0.0778727 0
948 1 0.810648 0.0535347 0
977 1 0.827733 0.0709317 0
979 1 0.850039 0.0627687 0
950 1 0.872378 0.0557526 0
980 1 0.867117 0.0806287 0
978 1 0.844738 0.0877141 0
952 1 0.893893 0.0473354 0
981 1 0.888636 0.0719756 0
983 1 0.91042 0.0641139 0
982 1 0.906177 0.0887952 0
984 1 0.927856 0.0814932 0
954 1 0.932495 0.0559841 0
956 1 0.954533 0.0488901 0
985 1 0.949631 0.0733849 0
987 1 0.971386 0.0657789 0
988 1 0.987735 0.0838556 0
958 1 0.993115 0.0579216 0
964 1 0.534907 0.0920637 0
992 1 0.502135 0.130699 0
993 1 0.517802 0.110875 0
1023 1 0.524295 0.135763 0
994 1 0.539773 0.115685 0
995 1 0.55644 0.09881 0
996 1 0.56297 0.121726 0
997 1 0.579007 0.103989 0
1027 1 0.584822 0.129503 0
998 1 0.600419 0.111661 0
1029 1 0.607821 0.136988 0
1000 1 0.623939 0.119659 0
1030 1 0.646304 0.125535 0
999 1 0.661575 0.107648 0
1001 1 0.684252 0.113349 0
1032 1 0.66778 0.131222 0
1002 1 0.706647 0.119308 0
972 1 0.737733 0.102233 0
1033 1 0.75627 0.117986 0
1003 1 0.762028 0.0925154 0
1004 1 0.77752 0.110666 0
1035 1 0.79617 0.127915 0
1005 1 0.801134 0.102968 0
1007 1 0.823268 0.0948743 0
1006 1 0.817539 0.120082 0
1008 1 0.839581 0.113326 0
1039 1 0.85754 0.128667 0
1009 1 0.861989 0.104673 0
1037 1 0.833529 0.137014 0
1010 1 0.879212 0.121312 0
1011 1 0.884069 0.0964869 0
1012 1 0.900619 0.1125 0
1043 1 0.917336 0.129929 0
1013 1 0.922266 0.106073 0
1014 1 0.939196 0.12281 0
1015 1 0.944679 0.0982794 0
1017 1 0.960898 0.115151 0
986 1 0.966438 0.0903549 0
1018 1 0.982852 0.107868 0
1047 1 0.977534 0.131869 0
1379 1 0.969433 0.491544 0
1022 1 0.508999 0.154184 0
1053 1 0.515136 0.17887 0
1024 1 0.530549 0.159037 0
1025 1 0.547026 0.139873 0
1055 1 0.553204 0.164715 0
1026 1 0.568601 0.146959 0
1057 1 0.575127 0.171286 0
1028 1 0.591128 0.153344 0
1087 1 0.59809 0.178051 0
1058 1 0.613914 0.160858 0
1059 1 0.630199 0.143448 0
1060 1 0.636115 0.167387 0
1061 1 0.651967 0.148955 0
1091 1 0.658382 0.174175 0
1031 1 0.690152 0.136849 0
1062 1 0.673993 0.155349 0
1093 1 0.682228 0.1798 0
1064 1 0.697242 0.162083 0
1063 1 0.712681 0.144484 0
1095 1 0.719661 0.170269 0
1034 1 0.73586 0.152334 0
1066 1 0.74323 0.176083 0
1065 1 0.773932 0.136335 0
1097 1 0.76591 0.18122 0
1036 1 0.812661 0.14482 0
1067 1 0.829758 0.162127 0
1038 1 0.851256 0.152729 0
1040 1 0.874424 0.145795 0
1069 1 0.868491 0.170023 0
1068 1 0.846464 0.177822 0
1041 1 0.895876 0.13772 0
1071 1 0.890207 0.162588 0
1042 1 0.91246 0.155123 0
1072 1 0.907111 0.179651 0
1073 1 0.929141 0.171838 0
1044 1 0.934365 0.146495 0
1016 1 0.956795 0.140213 0
1045 1 0.950779 0.164366 0
1046 1 0.972117 0.157715 0
1077 1 0.98966 0.173775 0
1048 1 0.994922 0.148394 0
1075 1 0.968487 0.182018 0
1054 1 0.537484 0.18399 0
1083 1 0.521887 0.20268 0
1082 1 0.505378 0.220947 0
1085 1 0.54416 0.208103 0
1056 1 0.559474 0.190035 0
1115 1 0.566385 0.214007 0