ITEM: TIMESTEP
98000
ITEM: NUMBER OF ATOMS
1800
ITEM: BOX BOUNDS pp pp pp
-2.7639489897846605e+00 1.6776394898978657e+02
1.1826529217466231e+00 1.6381734707825530e+02
0.0000000000000000e+00 5.5000000000000000e+00
ITEM: ATOMS id type xs ys zs
2 1 0.0279487 0.0169634 0
31 1 0.0223989 0.041705 0
930 1 0.0049165 0.0254176 0
33 1 0.0449263 0.0349834 0
3 1 0.0514604 0.0103947 0
4 1 0.0671673 0.0275975 0
5 1 0.0733179 0.0026593 0
35 1 0.0840024 0.0446143 0
6 1 0.0900142 0.0201046 0
8 1 0.113876 0.0117985 0
37 1 0.106594 0.0377623 0
39 1 0.130894 0.0301335 0
880 1 0.136728 0.00491349 0
9 1 0.153503 0.0222184 0
40 1 0.170116 0.039854 0
10 1 0.177668 0.0144295 0
41 1 0.194034 0.0324355 0
12 1 0.199825 0.00895943 0
14 1 0.216398 0.0262793 0
15 1 0.238821 0.0197896 0
45 1 0.234042 0.0439137 0
13 1 0.22261 0.00114872 0
16 1 0.261491 0.0136959 0
46 1 0.25712 0.0379611 0
47 1 0.282718 0.032036 0
18 1 0.282928 0.00751233 0
49 1 0.312817 0.0361405 0
19 1 0.305994 0.0129731 0
20 1 0.328676 0.0181931 0
21 1 0.351823 0.0228457 0
51 1 0.336433 0.0418648 0
892 1 0.367028 0.00281349 0
23 1 0.374935 0.027926 0
894 1 0.390315 0.00784899 0
24 1 0.397713 0.0333998 0
25 1 0.413876 0.0156047 0
27 1 0.436923 0.0203318 0
26 1 0.421218 0.0398546 0
898 1 0.452378 0.00126462 0
29 1 0.460275 0.0267567 0
900 1 0.476382 0.00828714 0
30 1 0.4833 0.0331211 0
901 1 0.499167 0.0137244 0
990 1 0.00918929 0.0918998 0
32 1 0.0379315 0.059701 0
62 1 0.0320708 0.0845381 0
61 1 0.0151955 0.0669803 0
63 1 0.0553057 0.0764194 0
34 1 0.0610806 0.0521497 0
65 1 0.0781744 0.0685546 0
66 1 0.0939408 0.0874776 0
36 1 0.1009 0.0625598 0
38 1 0.124953 0.0551642 0
67 1 0.118554 0.0791081 0
69 1 0.147677 0.0470452 0
68 1 0.14206 0.0729212 0
71 1 0.164907 0.0648654 0
70 1 0.158238 0.0896806 0
72 1 0.1819 0.0825212 0
42 1 0.188157 0.0579703 0
73 1 0.204643 0.0758324 0
43 1 0.210956 0.05069 0
44 1 0.227794 0.0683411 0
74 1 0.245207 0.086569 0
75 1 0.250022 0.0625933 0
76 1 0.268058 0.0795997 0
77 1 0.273214 0.0558232 0
48 1 0.295877 0.0538971 0
79 1 0.302026 0.0782832 0
50 1 0.319606 0.0603018 0
81 1 0.326076 0.0841612 0
22 1 0.359424 0.0478697 0
52 1 0.342982 0.0663213 0
83 1 0.36623 0.0722464 0
82 1 0.349763 0.0902686 0
53 1 0.382667 0.052748 0
54 1 0.389748 0.0769392 0
55 1 0.405726 0.0582317 0
56 1 0.413185 0.0824654 0
28 1 0.444146 0.0451828 0
57 1 0.42837 0.0639062 0
58 1 0.45179 0.0702926 0
87 1 0.436189 0.089443 0
59 1 0.46734 0.0512928 0
89 1 0.476533 0.0758333 0
60 1 0.49102 0.056251 0
961 1 0.498943 0.0829142 0
91 1 0.0269283 0.109137 0
121 1 0.0199285 0.132933 0
1020 1 0.00157678 0.11655 0
92 1 0.0438951 0.126119 0
64 1 0.0715889 0.0939288 0
93 1 0.0495068 0.101615 0
94 1 0.0667772 0.118617 0
125 1 0.0838751 0.135488 0
95 1 0.089119 0.111078 0
96 1 0.107325 0.128068 0
97 1 0.113034 0.103567 0
98 1 0.130046 0.120505 0
99 1 0.135224 0.0970223 0
100 1 0.153903 0.113597 0
130 1 0.170509 0.1315 0
101 1 0.176344 0.106019 0
103 1 0.198689 0.100536 0
102 1 0.193057 0.124921 0
104 1 0.216073 0.11723 0
105 1 0.221522 0.0927198 0
106 1 0.239052 0.110441 0
137 1 0.252952 0.129884 0
107 1 0.263101 0.106102 0
78 1 0.285365 0.0956263 0
109 1 0.292459 0.119436 0
80 1 0.309149 0.102431 0
110 1 0.315827 0.127245 0
111 1 0.332529 0.107629 0
141 1 0.339685 0.131837 0
113 1 0.356899 0.11478 0
84 1 0.373056 0.0968309 0
112 1 0.380033 0.12054 0
85 1 0.397112 0.101278 0
115 1 0.403301 0.125683 0
86 1 0.419965 0.107656 0
116 1 0.42642 0.130876 0
117 1 0.444833 0.113764 0
88 1 0.459779 0.0945755 0
119 1 0.467506 0.120673 0
90 1 0.482822 0.102113 0
120 1 0.490698 0.12607 0
122 1 0.0366688 0.150779 0
152 1 0.0323688 0.175139 0
151 1 0.0139106 0.157928 0
153 1 0.05661 0.169337 0
123 1 0.0605962 0.143301 0
124 1 0.0780337 0.159378 0
155 1 0.0960101 0.174613 0
126 1 0.102054 0.151349 0
127 1 0.125063 0.144985 0
157 1 0.119611 0.169809 0
129 1 0.147362 0.13728 0
128 1 0.143342 0.161251 0
159 1 0.165699 0.155228 0
131 1 0.188914 0.150383 0
132 1 0.179837 0.174634 0
135 1 0.235399 0.146003 0
133 1 0.210654 0.141656 0
134 1 0.218724 0.164744 0
165 1 0.241783 0.172035 0
108 1 0.275447 0.137021 0
136 1 0.258343 0.153546 0
138 1 0.281588 0.160804 0
167 1 0.264863 0.178781 0
139 1 0.299162 0.143563 0
169 1 0.304898 0.167672 0
140 1 0.323267 0.150334 0
171 1 0.328597 0.17438 0
143 1 0.362404 0.138052 0
142 1 0.346095 0.156158 0
173 1 0.369435 0.162772 0
172 1 0.351963 0.181302 0
114 1 0.385696 0.144234 0
144 1 0.392235 0.168662 0
145 1 0.409637 0.149041 0
146 1 0.415329 0.174137 0
118 1 0.449179 0.138105 0
147 1 0.43291 0.156465 0
148 1 0.456556 0.161877 0
177 1 0.438896 0.180745 0
149 1 0.474517 0.144501 0
150 1 0.479918 0.16849 0
1021 1 0.498628 0.15149 0
1080 1 0.00839913 0.182302 0
181 1 0.0257084 0.199388 0
182 1 0.0400004 0.219732 0
1109 1 0.00231222 0.206515 0
183 1 0.0509273 0.196017 0
154 1 0.0743592 0.185017 0
185 1 0.0773269 0.210205 0
186 1 0.104009 0.220558 0
156 1 0.0969427 0.198166 0
158 1 0.121293 0.202022 0
160 1 0.13886 0.185072 0
189 1 0.14404 0.209226 0
161 1 0.161969 0.191791 0
191 1 0.167311 0.217042 0
163 1 0.202616 0.182861 0
162 1 0.184131 0.200072 0
192 1 0.189993 0.225015 0
193 1 0.206684 0.207555 0
164 1 0.224457 0.188629 0
195 1 0.22984 0.213327 0
166 1 0.248125 0.195828 0
196 1 0.253411 0.221045 0
197 1 0.271005 0.203227 0
168 1 0.288775 0.185884 0
198 1 0.276984 0.22773 0
199 1 0.295122 0.210677 0
170 1 0.311506 0.192649 0
200 1 0.317357 0.217762 0
201 1 0.33569 0.199924 0
202 1 0.341514 0.224372 0
203 1 0.358847 0.205941 0
174 1 0.374817 0.187088 0
204 1 0.381435 0.211009 0
175 1 0.399039 0.192263 0
205 1 0.404438 0.21717 0
176 1 0.422066 0.198668 0
207 1 0.430128 0.223732 0
178 1 0.446116 0.20562 0
179 1 0.462434 0.187372 0
209 1 0.469548 0.21185 0
180 1 0.486683 0.192859 0
1081 1 0.494274 0.217554 0
212 1 0.0263278 0.262866 0
211 1 0.0206723 0.236841 0
1140 1 0.00282218 0.2538 0
184 1 0.0617611 0.228497 0
213 1 0.044038 0.246174 0
243 1 0.0489369 0.270494 0
214 1 0.0674363 0.252936 0
215 1 0.0846654 0.235597 0
216 1 0.0905752 0.259808 0
217 1 0.108314 0.244064 0
218 1 0.113814 0.268581 0
187 1 0.126879 0.227109 0
188 1 0.132321 0.252354 0
190 1 0.150015 0.233638 0
220 1 0.155469 0.257794 0
221 1 0.172283 0.24145 0
222 1 0.177719 0.266312 0
223 1 0.194868 0.249393 0
194 1 0.213713 0.231829 0
224 1 0.219219 0.255246 0
225 1 0.235719 0.238242 0
226 1 0.241469 0.263576 0
227 1 0.259798 0.245049 0
228 1 0.284463 0.252249 0
257 1 0.266436 0.26925 0
229 1 0.301596 0.235365 0
230 1 0.306409 0.25991 0
231 1 0.324437 0.241313 0
261 1 0.331327 0.265324 0
233 1 0.364935 0.230208 0
232 1 0.348309 0.24873 0
234 1 0.372911 0.255864 0
263 1 0.354041 0.27248 0
235 1 0.387905 0.235482 0
265 1 0.396472 0.260338 0
206 1 0.411755 0.241199 0
237 1 0.436842 0.248036 0
236 1 0.419463 0.266649 0
208 1 0.454257 0.230386 0
210 1 0.477268 0.236611 0
239 1 0.46114 0.255602 0
240 1 0.48391 0.260448 0
241 1 0.00751515 0.278117 0
242 1 0.0309166 0.287128 0
271 1 0.0124184 0.303232 0
273 1 0.0362378 0.311555 0
245 1 0.0723407 0.277134 0
244 1 0.0547961 0.294283 0
246 1 0.0778112 0.302054 0
247 1 0.0952975 0.284584 0
249 1 0.118348 0.293451 0
248 1 0.10136 0.309228 0
279 1 0.124224 0.318262 0
219 1 0.136012 0.276373 0
251 1 0.159391 0.282853 0
250 1 0.141918 0.299893 0
281 1 0.165952 0.307151 0
253 1 0.201138 0.272598 0
252 1 0.184087 0.290139 0
283 1 0.190293 0.314427 0
254 1 0.207273 0.297395 0
255 1 0.2241 0.280909 0
285 1 0.230509 0.305619 0
256 1 0.247598 0.288305 0
287 1 0.254081 0.31159 0
258 1 0.27118 0.294277 0
259 1 0.289678 0.276851 0
289 1 0.296103 0.30065 0
260 1 0.314386 0.282942 0
291 1 0.318721 0.307919 0
262 1 0.338132 0.290079 0
293 1 0.361784 0.296358 0
292 1 0.344085 0.315194 0
264 1 0.378576 0.279118 0
295 1 0.385795 0.303749 0
266 1 0.402401 0.285437 0
297 1 0.408567 0.31007 0
238 1 0.442705 0.272722 0
267 1 0.426033 0.291923 0
268 1 0.448623 0.297643 0
298 1 0.431666 0.316483 0
269 1 0.466766 0.279361 0
270 1 0.472863 0.303972 0
1141 1 0.489705 0.284989 0
300 1 0.496855 0.309275 0
1200 1 0.0174469 0.328097 0
301 1 0.0223899 0.352377 0
272 1 0.0422891 0.336618 0
275 1 0.0590142 0.318392 0
303 1 0.0468135 0.360474 0
274 1 0.0657746 0.342032 0
276 1 0.0833236 0.326067 0
305 1 0.0889682 0.350722 0
277 1 0.106369 0.333743 0
307 1 0.111952 0.35772 0
278 1 0.130259 0.342115 0
280 1 0.147428 0.323878 0
311 1 0.152932 0.348987 0
282 1 0.172437 0.330677 0
312 1 0.178387 0.355083 0
313 1 0.195904 0.338505 0
284 1 0.212788 0.321525 0
315 1 0.219254 0.346397 0
286 1 0.23573 0.32891 0
316 1 0.242529 0.354171 0
288 1 0.27895 0.317573 0
317 1 0.260509 0.336576 0
319 1 0.283907 0.342456 0
318 1 0.266162 0.36094 0
290 1 0.302131 0.32615 0
320 1 0.307395 0.349927 0
321 1 0.326412 0.331412 0
322 1 0.331419 0.356806 0
323 1 0.349971 0.339783 0
294 1 0.366608 0.320886 0
325 1 0.372879 0.344625 0
296 1 0.390737 0.327411 0
326 1 0.39636 0.351486 0
327 1 0.414793 0.334644 0
329 1 0.438418 0.340059 0
328 1 0.419746 0.358853 0
299 1 0.454612 0.32234 0
359 1 0.461256 0.347481 0
330 1 0.477414 0.328579 0
360 1 0.48522 0.352001 0
1230 1 0.00358075 0.369851 0
302 1 0.0278703 0.375523 0
332 1 0.0319242 0.400038 0
331 1 0.0083772 0.393082 0
304 1 0.0700379 0.367228 0
333 1 0.0515746 0.384968 0
335 1 0.0743654 0.39206 0
334 1 0.0552387 0.409411 0
306 1 0.0942534 0.374419 0
308 1 0.117183 0.382296 0
337 1 0.100107 0.398581 0
338 1 0.123052 0.406693 0
309 1 0.135794 0.366236 0
310 1 0.159424 0.373007 0
339 1 0.140405 0.389849 0
341 1 0.164681 0.396899 0
314 1 0.20135 0.363466 0
343 1 0.183014 0.379922 0
342 1 0.188907 0.404631 0
344 1 0.207157 0.386958 0
345 1 0.224968 0.371239 0
346 1 0.229993 0.396133 0
347 1 0.247975 0.377693 0
377 1 0.254206 0.401233 0
348 1 0.271883 0.384971 0
349 1 0.289828 0.367325 0
350 1 0.294435 0.392744 0
351 1 0.313111 0.373072 0
381 1 0.319191 0.399445 0
324 1 0.354443 0.364064 0
353 1 0.336129 0.382225 0
354 1 0.360202 0.387643 0
352 1 0.342275 0.406143 0
355 1 0.377851 0.370036 0
356 1 0.384 0.393853 0
357 1 0.402333 0.375637 0
386 1 0.406737 0.400796 0
358 1 0.443663 0.364147 0
387 1 0.426125 0.382412 0
389 1 0.449809 0.389336 0
388 1 0.431837 0.406972 0
1232 1 0.467592 0.371788 0
1262 1 0.491926 0.377055 0
1261 1 0.473784 0.396788 0
1293 1 0.49971 0.400906 0
361 1 0.0144101 0.418168 0
362 1 0.0201357 0.442055 0
363 1 0.0383157 0.425137 0
364 1 0.0434236 0.448987 0
365 1 0.0625921 0.432876 0
336 1 0.0809293 0.415371 0
366 1 0.0862796 0.440182 0
367 1 0.104655 0.423065 0
368 1 0.110978 0.447649 0
369 1 0.129029 0.431409 0
340 1 0.147318 0.414527 0
370 1 0.15252 0.43813 0
399 1 0.133256 0.455541 0
371 1 0.170963 0.420743 0
401 1 0.175503 0.445608 0
372 1 0.193816 0.429554 0
403 1 0.199553 0.454265 0
373 1 0.211276 0.413061 0
374 1 0.218258 0.43657 0
375 1 0.235593 0.420072 0
405 1 0.241527 0.443948 0
378 1 0.277803 0.409929 0
376 1 0.258806 0.426448 0
409 1 0.283744 0.435446 0
407 1 0.266138 0.451154 0
379 1 0.301882 0.417445 0
380 1 0.307201 0.442195 0
382 1 0.325736 0.424317 0
413 1 0.330913 0.448126 0
383 1 0.349477 0.430783 0
385 1 0.366345 0.411351 0
414 1 0.373195 0.437802 0
384 1 0.39012 0.417852 0
415 1 0.396998 0.441972 0
417 1 0.415246 0.424126 0
418 1 0.437672 0.430391 0
416 1 0.420911 0.447966 0
419 1 0.455643 0.414604 0
390 1 0.463825 0.437601 0
1291 1 0.48121 0.420255 0
1321 1 0.487217 0.443915 0
392 1 0.00105134 0.459111 0
393 1 0.0265319 0.46607 0
422 1 0.00943801 0.483052 0
423 1 0.0313521 0.49266 0
395 1 0.0683206 0.457078 0
394 1 0.0497134 0.473844 0
396 1 0.0732858 0.48088 0
425 1 0.0545133 0.499055 0
397 1 0.0921423 0.464288 0
398 1 0.115166 0.472639 0
427 1 0.097199 0.488828 0
428 1 0.120461 0.496693 0
400 1 0.158126 0.462569 0
429 1 0.139414 0.479513 0
431 1 0.164029 0.486828 0
402 1 0.18174 0.470705 0
432 1 0.186465 0.495126 0
433 1 0.204916 0.477945 0
404 1 0.223146 0.461054 0
435 1 0.228173 0.485772 0
406 1 0.246711 0.468993 0
436 1 0.252079 0.49399 0
408 1 0.270216 0.476066 0
410 1 0.289495 0.460467 0
441 1 0.295939 0.484679 0
411 1 0.312548 0.466012 0
440 1 0.319678 0.49184 0
412 1 0.355124 0.455696 0
442 1 0.336581 0.473029 0
473 1 0.36101 0.480916 0
443 1 0.378994 0.462742 0
444 1 0.38664 0.486108 0
445 1 0.403229 0.466807 0
475 1 0.41079 0.49102 0
447 1 0.446437 0.454688 0
448 1 0.452209 0.479161 0
446 1 0.428673 0.473311 0
477 1 0.435283 0.498553 0
450 1 0.492696 0.468129 0
449 1 0.47557 0.486627 0
420 1 0.469857 0.461702 0
1111 1 0.501417 0.242303 0
471 1 0.343798 0.49867 0
1 1 0.0106303 -0.000516585 0
454 1 0.0194482 0.532233 0
453 1 0.0126575 0.508008 0
424 1 0.0383203 0.517108 0
485 1 0.0436113 0.541188 0
455 1 0.0610612 0.523651 0
426 1 0.0787069 0.50614 0
486 1 0.0671515 0.548431 0
456 1 0.0846577 0.529887 0
457 1 0.102203 0.513801 0
458 1 0.107808 0.53823 0
459 1 0.125928 0.520134 0
460 1 0.149617 0.528118 0
430 1 0.145112 0.503359 0
489 1 0.131451 0.544356 0
461 1 0.168782 0.51188 0
462 1 0.173047 0.535452 0
463 1 0.192056 0.519237 0
493 1 0.196491 0.544069 0
434 1 0.209722 0.502721 0
464 1 0.214698 0.528351 0
466 1 0.237977 0.53576 0
465 1 0.234428 0.511432 0
437 1 0.257322 0.518933 0
467 1 0.280445 0.526689 0
439 1 0.27555 0.500582 0
497 1 0.261258 0.544223 0
438 1 0.298678 0.510497 0
468 1 0.303742 0.535053 0
469 1 0.323587 0.518039 0
470 1 0.352938 0.522728 0
499 1 0.335765 0.540025 0
472 1 0.369251 0.504326 0
1771 1 0.483797 0.963601 0
503 1 0.377156 0.528573 0
474 1 0.393 0.510426 0
505 1 0.40099 0.534282 0
476 1 0.417401 0.515663 0
507 1 0.442999 0.522318 0
506 1 0.425282 0.539449 0
478 1 0.459603 0.50444 0
480 1 0.465656 0.529034 0
479 1 0.482213 0.51035 0
510 1 0.489502 0.534355 0
513 1 0.0259593 0.556423 0
514 1 0.0318708 0.581925 0
482 1 0.00803963 0.573499 0
483 1 0.00110236 0.548254 0
484 1 0.0495712 0.564894 0
515 1 0.0730081 0.572278 0
545 1 0.0555758 0.588275 0
487 1 0.0903994 0.55513 0
488 1 0.113007 0.562472 0
517 1 0.0962246 0.579872 0
519 1 0.119182 0.58604 0
491 1 0.15538 0.551546 0
490 1 0.137445 0.567967 0
521 1 0.159402 0.575804 0
520 1 0.141709 0.592033 0
492 1 0.177994 0.560213 0
523 1 0.182827 0.584036 0
494 1 0.200728 0.567494 0
495 1 0.219565 0.552269 0
525 1 0.223543 0.576358 0
496 1 0.243045 0.56038 0
526 1 0.245998 0.585446 0
527 1 0.26549 0.56934 0
498 1 0.284895 0.55215 0
529 1 0.28779 0.579621 0
500 1 0.307286 0.563343 0
530 1 0.310305 0.589878 0
501 1 0.361394 0.546649 0
531 1 0.345375 0.564772 0
533 1 0.368818 0.571319 0
502 1 0.384704 0.552264 0
534 1 0.392564 0.576139 0
504 1 0.408943 0.557681 0
509 1 0.448817 0.546183 0
508 1 0.432527 0.563487 0
535 1 0.41593 0.582437 0
539 1 0.456478 0.570829 0
540 1 0.472717 0.552389 0
569 1 0.480479 0.576367 0
1441 1 0.496804 0.558219 0
512 1 0.013721 0.598882 0
542 1 0.0195791 0.623444 0
543 1 0.0360713 0.606757 0
544 1 0.0441294 0.631511 0
516 1 0.0778498 0.597039 0
546 1 0.0602962 0.612956 0
547 1 0.0841856 0.621207 0
518 1 0.100941 0.603801 0
577 1 0.107663 0.628368 0
548 1 0.123935 0.609903 0
549 1 0.145763 0.615946 0
522 1 0.164837 0.599926 0
551 1 0.168859 0.624712 0
553 1 0.186989 0.609005 0
524 1 0.205831 0.592568 0
552 1 0.191366 0.634302 0
554 1 0.209407 0.618158 0
555 1 0.228175 0.602097 0
556 1 0.231636 0.627479 0
557 1 0.250037 0.611144 0
528 1 0.269109 0.595844 0
558 1 0.272014 0.620649 0
559 1 0.291364 0.605192 0
587 1 0.253665 0.637318 0
561 1 0.312237 0.616 0
560 1 0.293265 0.631596 0
532 1 0.3529 0.59044 0
562 1 0.361113 0.614184 0
563 1 0.376987 0.596494 0
565 1 0.384493 0.620597 0
536 1 0.400429 0.601859 0
566 1 0.407585 0.626542 0
537 1 0.439538 0.588236 0
567 1 0.423578 0.607499 0
568 1 0.446919 0.612726 0
597 1 0.4309 0.631695 0
538 1 0.463427 0.59426 0
570 1 0.486304 0.600679 0
600 1 0.47042 0.619213 0
1501 1 0.494468 0.624337 0
573 1 0.0264108 0.647876 0
603 1 0.0308576 0.671729 0
572 1 0.00864634 0.66414 0
571 1 0.00189437 0.640587 0
575 1 0.06628 0.63864 0
574 1 0.0489938 0.655671 0
605 1 0.0729604 0.663584 0
604 1 0.0543244 0.680906 0
576 1 0.0901747 0.645164 0
578 1 0.10812 0.665698 0
579 1 0.129137 0.65321 0
609 1 0.13159 0.678385 0
550 1 0.149139 0.639644 0
580 1 0.151573 0.664243 0
581 1 0.171443 0.65008 0
611 1 0.173896 0.675802 0
582 1 0.193372 0.659759 0
583 1 0.213401 0.643083 0
584 1 0.215102 0.667511 0
585 1 0.235556 0.652185 0
615 1 0.237197 0.677084 0
586 1 0.256516 0.662846 0
589 1 0.274185 0.646859 0
588 1 0.278131 0.673311 0
590 1 0.295943 0.658042 0
591 1 0.31632 0.641772 0
621 1 0.319098 0.666956 0
619 1 0.300195 0.682219 0
593 1 0.352002 0.65862 0
564 1 0.368926 0.639784 0
594 1 0.375946 0.66378 0
595 1 0.391401 0.64403 0
625 1 0.398139 0.670203 0
596 1 0.414668 0.651642 0
598 1 0.437871 0.656173 0
627 1 0.42141 0.675726 0
599 1 0.454257 0.637652 0
629 1 0.478605 0.64354 0
628 1 0.461964 0.661487 0
630 1 0.485655 0.66735 0
602 1 0.0129727 0.700261 0
633 1 0.0356372 0.69562 0
634 1 0.0297948 0.720188 0
632 1 0.00648556 0.725472 0
635 1 0.0531586 0.711539 0
606 1 0.0722785 0.696864 0
636 1 0.0711571 0.726594 0
607 1 0.0902237 0.682063 0
637 1 0.0930272 0.709334 0
608 1 0.111185 0.693234 0
638 1 0.114216 0.719326 0
639 1 0.133016 0.703813 0
610 1 0.153612 0.68985 0
641 1 0.156591 0.71408 0
612 1 0.175983 0.69999 0
613 1 0.195704 0.684581 0
643 1 0.19821 0.709726 0
642 1 0.179608 0.724885 0
614 1 0.21773 0.693221 0
645 1 0.220709 0.717617 0
616 1 0.240738 0.703185 0
646 1 0.243374 0.729544 0
617 1 0.259854 0.689066 0
647 1 0.262815 0.71408 0
618 1 0.281812 0.69867 0
649 1 0.285285 0.724422 0
620 1 0.303247 0.708582 0
622 1 0.321574 0.692464 0
651 1 0.325264 0.717581 0
592 1 0.359646 0.683024 0
653 1 0.343577 0.700786 0
624 1 0.364763 0.708201 0
654 1 0.34808 0.726206 0
623 1 0.382284 0.688883 0
655 1 0.38805 0.71338 0
626 1 0.405589 0.695049 0
686 1 0.412042 0.719734 0
657 1 0.444839 0.679451 0
656 1 0.428694 0.69966 0
658 1 0.452283 0.704831 0
659 1 0.469861 0.685715 0
660 1 0.475217 0.710839 0
1531 1 0.492565 0.691623 0
1561 1 0.49806 0.716078 0
662 1 0.0193916 0.769313 0
664 1 0.0234053 0.74476 0
663 1 0.000613309 0.750386 0
695 1 0.0418358 0.760439 0
665 1 0.0475654 0.736448 0
666 1 0.0671064 0.752082 0
697 1 0.0818495 0.77242 0
667 1 0.0952455 0.733862 0
668 1 0.101041 0.758543 0
669 1 0.118876 0.742571 0
699 1 0.122129 0.769153 0
640 1 0.138368 0.728893 0
670 1 0.140465 0.753391 0
671 1 0.160201 0.73939 0
672 1 0.162749 0.764124 0
673 1 0.182818 0.749339 0
644 1 0.201882 0.734255 0
674 1 0.204724 0.758555 0
675 1 0.224467 0.743153 0
677 1 0.246867 0.75329 0
705 1 0.227127 0.767775 0
648 1 0.266591 0.738852 0
678 1 0.269556 0.763154 0
679 1 0.289322 0.749883 0
650 1 0.307052 0.733327 0
681 1 0.312415 0.757906 0
652 1 0.330754 0.742302 0
683 1 0.354253 0.751957 0
685 1 0.371409 0.732216 0
682 1 0.334401 0.768001 0
715 1 0.394047 0.737666 0
684 1 0.378384 0.756922 0
714 1 0.401578 0.763378 0
687 1 0.434558 0.724961 0
717 1 0.418065 0.744051 0
688 1 0.441823 0.749752 0
716 1 0.425495 0.767748 0
689 1 0.458075 0.728856 0
690 1 0.481004 0.735607 0
719 1 0.465375 0.754285 0
1591 1 0.487742 0.759688 0
694 1 0.0368225 0.785518 0
693 1 0.0135377 0.793122 0
723 1 0.0330804 0.809601 0
692 1 0.00822383 0.817351 0
696 1 0.0589968 0.776564 0
725 1 0.0557893 0.801343 0
727 1 0.0809143 0.797733 0
728 1 0.102859 0.810522 0
698 1 0.10202 0.784683 0
700 1 0.123078 0.794669 0
701 1 0.143516 0.779936 0
731 1 0.14508 0.80498 0
702 1 0.165394 0.789604 0
732 1 0.167775 0.814278 0
703 1 0.185126 0.775495 0
733 1 0.18836 0.800542 0
704 1 0.207605 0.783465 0
735 1 0.211013 0.810984 0
706 1 0.228624 0.794204 0
676 1 0.249004 0.779009 0
737 1 0.251342 0.803572 0
707 1 0.271288 0.788682 0
738 1 0.272384 0.814866 0
708 1 0.291506 0.799042 0
709 1 0.291687 0.774758 0
710 1 0.312635 0.808163 0
680 1 0.312896 0.783088 0
741 1 0.334128 0.815442 0
711 1 0.344431 0.793468 0
713 1 0.361852 0.7757 0
712 1 0.368802 0.800114 0
743 1 0.384771 0.780653 0
745 1 0.392676 0.806226 0
746 1 0.408848 0.786954 0
775 1 0.416317 0.811156 0
747 1 0.432999 0.792457 0
718 1 0.448789 0.772963 0
749 1 0.456048 0.798117 0
748 1 0.43976 0.817011 0
720 1 0.471655 0.778542 0
1621 1 0.47899 0.80297 0
1592 1 0.494905 0.783402 0
751 1 0.0267479 0.833705 0
752 1 0.0209774 0.857719 0
1680 1 0.00367872 0.841248 0
726 1 0.0728046 0.820319 0
753 1 0.0441085 0.851341 0
722 1 0.0504955 0.827139 0
724 1 0.0679994 0.844357 0
755 1 0.0856582 0.860595 0
757 1 0.0917877 0.834951 0
756 1 0.108424 0.853115 0
729 1 0.125444 0.819492 0
759 1 0.13022 0.844028 0
730 1 0.148673 0.829539 0
760 1 0.149389 0.859791 0
761 1 0.170981 0.840982 0
763 1 0.189661 0.825578 0
762 1 0.194328 0.849469 0
734 1 0.21596 0.838996 0
736 1 0.232673 0.819333 0
765 1 0.235072 0.857011 0
767 1 0.253407 0.830752 0
766 1 0.259997 0.854957 0
768 1 0.277908 0.840079 0
739 1 0.295189 0.824496 0
769 1 0.298991 0.850805 0
740 1 0.316961 0.833291 0
770 1 0.322602 0.856795 0
742 1 0.355828 0.821248 0
771 1 0.339567 0.840033 0
773 1 0.362868 0.845083 0
801 1 0.345781 0.862915 0
744 1 0.377933 0.825805 0
803 1 0.385558 0.850009 0
774 1 0.401367 0.830472 0
776 1 0.408467 0.855446 0
777 1 0.423708 0.835824 0
779 1 0.446859 0.841368 0
778 1 0.431167 0.860455 0
1651 1 0.486287 0.828068 0
750 1 0.463644 0.822953 0
780 1 0.469368 0.846883 0
1652 1 0.493926 0.852864 0
783 1 0.0379974 0.876233 0
782 1 0.0151498 0.883302 0
813 1 0.0327777 0.90112 0
812 1 0.0104902 0.909642 0
784 1 0.0548233 0.892243 0
754 1 0.0616756 0.867696 0
785 1 0.0783822 0.885234 0
786 1 0.0967714 0.90317 0
787 1 0.102389 0.878873 0
788 1 0.119804 0.896322 0
758 1 0.12599 0.871488 0
789 1 0.142578 0.888561 0
791 1 0.165035 0.881814 0
790 1 0.159872 0.906266 0
823 1 0.183505 0.897988 0
792 1 0.188628 0.873937 0
793 1 0.205682 0.890701 0
764 1 0.212326 0.865456 0
795 1 0.228042 0.883671 0
825 1 0.246412 0.901243 0
796 1 0.250258 0.876678 0
827 1 0.268366 0.892381 0
797 1 0.281822 0.869358 0
798 1 0.291057 0.89589 0
799 1 0.305035 0.875923 0
829 1 0.313283 0.900724 0
800 1 0.32876 0.881162 0
831 1 0.336329 0.906104 0
802 1 0.352726 0.887347 0
772 1 0.368789 0.869493 0
804 1 0.375272 0.893462 0
805 1 0.392038 0.875807 0
806 1 0.398612 0.899306 0
807 1 0.414984 0.879422 0
808 1 0.438433 0.885137 0
837 1 0.422339 0.903368 0
809 1 0.454072 0.865667 0
1681 1 0.477696 0.870624 0
810 1 0.461661 0.890324 0
1711 1 0.484739 0.895346 0
842 1 0.0228318 0.950081 0
843 1 0.0279274 0.925544 0
841 1 0.00456166 0.933241 0
815 1 0.0724732 0.910055 0
844 1 0.0454232 0.943313 0
814 1 0.0504348 0.918167 0
845 1 0.0687173 0.93586 0
846 1 0.085792 0.952726 0
816 1 0.0903678 0.927686 0
817 1 0.114226 0.920831 0
847 1 0.108654 0.944009 0
818 1 0.132215 0.938436 0
819 1 0.13702 0.913652 0
820 1 0.154841 0.93064 0
851 1 0.172737 0.948422 0
821 1 0.177799 0.922545 0
824 1 0.200585 0.916251 0
822 1 0.195951 0.94048 0
794 1 0.223087 0.908246 0
853 1 0.218554 0.932319 0
855 1 0.242327 0.926054 0
854 1 0.235956 0.950837 0
826 1 0.264616 0.918556 0
856 1 0.258816 0.944195 0
857 1 0.281074 0.939514 0
828 1 0.296113 0.920601 0
859 1 0.303965 0.945828 0
830 1 0.31943 0.925732 0
860 1 0.327353 0.950762 0
832 1 0.343275 0.930108 0
833 1 0.359526 0.911442 0
863 1 0.3667 0.935187 0
834 1 0.38247 0.917626 0
865 1 0.389781 0.941629 0
835 1 0.40588 0.922737 0
836 1 0.413255 0.946582 0
839 1 0.446324 0.908989 0
838 1 0.429238 0.927519 0
869 1 0.452041 0.933256 0
867 1 0.437255 0.952439 0
1712 1 0.491618 0.920704 0
1741 1 0.475774 0.939758 0
840 1 0.468791 0.914553 0
872 1 0.0346354 0.992104 0
873 1 0.0399829 0.967667 0
871 1 0.0170424 0.975404 0
870 1 0.460788 0.95795 0
874 1 0.0573021 0.985085 0
875 1 0.0627878 0.959471 0
876 1 0.0805158 0.977824 0
7 1 0.0964936 0.994824 0
877 1 0.102561 0.969502 0
848 1 0.125841 0.961715 0
878 1 0.119665 0.986762 0
849 1 0.148782 0.955147 0
879 1 0.142804 0.980068 0
850 1 0.166003 0.972751 0
881 1 0.160215 0.997083 0
11 1 0.184126 0.990133 0
852 1 0.190358 0.965004 0
882 1 0.207344 0.982796 0
883 1 0.213098 0.958442 0
884 1 0.229861 0.975672 0
886 1 0.245871 0.995573 0
885 1 0.252472 0.970017 0
17 1 0.271036 0.986131 0
887 1 0.286196 0.965869 0
888 1 0.296042 0.988565 0
858 1 0.310953 0.96952 0
889 1 0.319652 0.99297 0
861 1 0.350667 0.95384 0
890 1 0.343536 0.997952 0
891 1 0.335769 0.974258 0
862 1 0.359331 0.979213 0
864 1 0.374099 0.959314 0
893 1 0.383342 0.983665 0
895 1 0.398304 0.965095 0
896 1 0.405793 0.989725 0
897 1 0.429523 0.995808 0
866 1 0.421043 0.9711 0
868 1 0.444169 0.976232 0
1772 1 0.490707 0.988845 0
899 1 0.468147 0.982383 0
902 1 0.522413 0.0189487 0
931 1 0.506697 0.0385179 0
905 1 0.537625 0.000618285 0
933 1 0.529344 0.0445202 0
904 1 0.545434 0.0248697 0
906 1 0.561054 0.00557092 0
935 1 0.568453 0.0307257 0
908 1 0.583401 0.0107887 0
937 1 0.591204 0.0373834 0
939 1 0.607425 0.0174168 0
938 1 0.615639 0.0413014 0
940 1 0.631158 0.0209324 0
942 1 0.705367 0.0239709 0
944 1 0.721234 0.0412323 0
943 1 0.727566 0.0167403 0
945 1 0.744088 0.0345533 0
914 1 0.750644 0.0108777 0
947 1 0.76842 0.0280021 0
918 1 0.79091 0.0219359 0
948 1 0.784693 0.0454997 0
916 1 0.773263 0.0035478 0
949 1 0.807984 0.0392086 0
919 1 0.813275 0.0147255 0
920 1 0.830924 0.0322214 0
1790 1 0.835244 0.00657161 0
951 1 0.853246 0.0234306 0
952 1 0.872198 0.042718 0
922 1 0.876904 0.0171771 0
921 1 0.85915 -0.000968901 0
953 1 0.894854 0.035449 0
955 1 0.917334 0.0284313 0
924 1 0.900289 0.0110104 0
926 1 0.940881 0.0214706 0
957 1 0.957861 0.0382831 0
925 1 0.924647 0.00329488 0
928 1 0.964776 0.015232 0
959 1 0.981539 0.0323786 0
929 1 0.987214 0.00787932 0
932 1 0.514122 0.0627831 0
963 1 0.538231 0.0700258 0
962 1 0.522298 0.0882149 0
934 1 0.553236 0.0495806 0
965 1 0.561677 0.0755954 0
936 1 0.575812 0.0559946 0
966 1 0.585038 0.0825107 0
967 1 0.599423 0.0617768 0
968 1 0.608387 0.0860272 0
969 1 0.622483 0.065853 0
971 1 0.698429 0.047355 0
970 1 0.693436 0.0713172 0
973 1 0.716533 0.0652258 0
1003 1 0.731926 0.0838815 0
975 1 0.739145 0.0591944 0
974 1 0.755692 0.0772871 0
946 1 0.761741 0.0527604 0
976 1 0.780056 0.0702891 0
1007 1 0.796127 0.0883248 0
977 1 0.801875 0.0635275 0
979 1 0.825426 0.0567447 0
978 1 0.818865 0.0810287 0
950 1 0.848039 0.0492141 0
980 1 0.843444 0.0731996 0
981 1 0.866765 0.0664528 0
982 1 0.882516 0.084732 0
983 1 0.889466 0.0599728 0
954 1 0.912347 0.0537103 0
984 1 0.906413 0.078431 0
956 1 0.935064 0.046388 0
985 1 0.928719 0.0714925 0
986 1 0.946269 0.0878791 0
987 1 0.951968 0.0631273 0
960 1 0.999213 0.049535 0
988 1 0.968838 0.0810205 0
958 1 0.973941 0.0565294 0
989 1 0.992613 0.073971 0
991 1 0.50715 0.108714 0
992 1 0.514241 0.133572 0
993 1 0.530194 0.113446 0
964 1 0.545356 0.0946141 0
994 1 0.553773 0.120324 0
995 1 0.569719 0.100818 0
996 1 0.57819 0.125431 0
997 1 0.593967 0.107043 0
1027 1 0.600983 0.132741 0
998 1 0.617975 0.113887 0
1000 1 0.643001 0.123064 0
1030 1 0.667746 0.129623 0
999 1 0.686435 0.0944922 0
1001 1 0.701658 0.112766 0
972 1 0.709837 0.0895609 0
1002 1 0.725444 0.108283 0
1033 1 0.742649 0.124344 0
1031 1 0.716652 0.132792 0
1004 1 0.749037 0.100769 0
1005 1 0.772361 0.0946025 0
1035 1 0.766655 0.118091 0
1006 1 0.790486 0.112539 0
1036 1 0.783256 0.136383 0
1037 1 0.806792 0.130768 0
1008 1 0.813719 0.105823 0
1039 1 0.829259 0.123948 0
1011 1 0.859691 0.0919139 0
1009 1 0.836971 0.0978869 0
1010 1 0.853842 0.116633 0
1041 1 0.871618 0.134205 0
1012 1 0.875956 0.110432 0
1043 1 0.894094 0.127813 0
1013 1 0.899221 0.102613 0
1014 1 0.917118 0.120585 0
1015 1 0.923036 0.0950731 0
1017 1 0.939378 0.11276 0
1047 1 0.956307 0.129738 0
1016 1 0.93378 0.137164 0
1018 1 0.962413 0.105239 0
1019 1 0.98588 0.0986669 0
1049 1 0.978949 0.12301 0
1023 1 0.537465 0.139014 0
1022 1 0.522118 0.157407 0
1051 1 0.50435 0.175409 0
1053 1 0.528095 0.182434 0
1025 1 0.560766 0.14493 0
1024 1 0.544844 0.163613 0
1055 1 0.568737 0.168468 0
1026 1 0.584341 0.150689 0
1028 1 0.608229 0.158609 0
1057 1 0.592127 0.17663 0
1029 1 0.624904 0.140562 0
1058 1 0.632018 0.165278 0
1059 1 0.64894 0.147078 0
1060 1 0.656217 0.170765 0
1032 1 0.691408 0.134599 0
1061 1 0.673855 0.153098 0
1062 1 0.697911 0.158882 0
1091 1 0.68048 0.177981 0
1063 1 0.735542 0.14854 0
1064 1 0.720004 0.168549 0
1095 1 0.743729 0.172417 0
1034 1 0.758792 0.14315 0
1065 1 0.777133 0.159003 0
1067 1 0.800895 0.155147 0
1038 1 0.823621 0.148426 0
1068 1 0.816306 0.174627 0
1040 1 0.847758 0.14119 0
1069 1 0.839648 0.166623 0
1071 1 0.864258 0.158626 0
1072 1 0.88077 0.176701 0
1042 1 0.886742 0.152337 0
1044 1 0.911105 0.144315 0
1073 1 0.904361 0.170219 0
1045 1 0.927436 0.16215 0
1075 1 0.94531 0.178903 0
1046 1 0.951763 0.153786 0
1050 1 0.996399 0.140618 0
1077 1 0.967996 0.172421 0
1048 1 0.973723 0.147496 0
1079 1 0.990395 0.164681 0
1052 1 0.511066 0.199405 0
1083 1 0.534495 0.206575 0
1082 1 0.517921 0.22441 0
1054 1 0.552179 0.187417 0
1085 1 0.55751 0.211766 0
1056 1 0.575886 0.193119 0
1115 1 0.581534 0.219539 0
1087 1 0.616198 0.182604 0
1086 1 0.598754 0.200153 0
1117 1 0.606386 0.22369 0
1088 1 0.623178 0.206207 0
1089 1 0.64049 0.188674 0
1119 1 0.646122 0.213106 0
1090 1 0.664778 0.195098 0
1121 1 0.670935 0.220751 0
1092 1 0.688644 0.203868 0
1093 1 0.703597 0.185924 0
1122 1 0.694566 0.227348 0
1123 1 0.711648 0.209764 0
1094 1 0.727971 0.191627 0
1125 1 0.735393 0.21669 0
1066 1 0.766577 0.179885 0
1096 1 0.751657 0.198844 0
1126 1 0.760746 0.222009 0
1127 1 0.777725 0.202787 0
1097 1 0.791076 0.179586 0
1098 1 0.802109 0.207725 0
1129 1 0.827552 0.217636 0
1099 1 0.833455 0.191778 0
1070 1 0.857861 0.184198 0
1100 1 0.850665 0.209489 0
1101 1 0.874621 0.200948 0
1131 1 0.865987 0.228311 0
1102 1 0.889644 0.220242 0
1103 1 0.897563 0.195273 0
1104 1 0.913411 0.213062 0
1074 1 0.920754 0.188062 0
1105 1 0.939676 0.203799 0
1106 1 0.955907 0.221441 0
1135 1 0.931856 0.227524 0
1076 1 0.962295 0.195841 0
1078 1 0.98444 0.190247 0
1107 1 0.979009 0.214262 0
1113 1 0.524425 0.248669 0
1112 1 0.508029 0.26684 0
1142 1 0.531253 0.272492 0
1349 1 0.958538 0.466779 0
1084 1 0.54125 0.229917 0
1143 1 0.547933 0.254491 0
1114 1 0.564489 0.23703 0
1145 1 0.570886 0.260736 0
1116 1 0.589708 0.2425 0
1147 1 0.612368 0.249431 0
1146 1 0.594576 0.267601 0
1118 1 0.629443 0.231192 0
1149 1 0.636775 0.25508 0
1120 1 0.653999 0.237714 0
1150 1 0.660937 0.261768 0