ITEM: TIMESTEP
445000
ITEM: NUMBER OF ATOMS
1800
ITEM: BOX BOUNDS pp pp pp
-1.6738141472451552e+01 1.8173814147245346e+02
1.1826529217466231e+00 1.6381734707825530e+02
0.0000000000000000e+00 5.5000000000000000e+00
ITEM: ATOMS id type xs ys zs
929 1 0.0344837 0.00654684 0
959 1 0.0296689 0.0309636 0
928 1 0.0157306 0.0128897 0
957 1 0.0105696 0.0382009 0
930 1 0.0493977 0.0228727 0
31 1 0.0651271 0.0408319 0
2 1 0.0692132 0.0161056 0
1 1 0.053994 -0.000613899 0
33 1 0.0840664 0.0336393 0
3 1 0.0891851 0.00854533 0
4 1 0.10386 0.0269771 0
5 1 0.108616 0.00136637 0
6 1 0.121686 0.0193221 0
37 1 0.137391 0.0368377 0
8 1 0.142524 0.0137545 0
35 1 0.117402 0.0444525 0
39 1 0.157075 0.0304075 0
880 1 0.162363 0.00589582 0
9 1 0.176707 0.0227358 0
40 1 0.191553 0.0405744 0
10 1 0.196416 0.0168576 0
41 1 0.211123 0.0338975 0
12 1 0.216458 0.00992865 0
14 1 0.230459 0.0274555 0
13 1 0.23566 0.00437351 0
45 1 0.245302 0.0448621 0
15 1 0.249991 0.0204512 0
46 1 0.269997 0.0181377 0
77 1 0.27347 0.0422729 0
47 1 0.288672 0.025322 0
19 1 0.303085 0.00550402 0
49 1 0.308298 0.029799 0
20 1 0.322862 0.0124977 0
51 1 0.327498 0.0369604 0
21 1 0.341925 0.0196468 0
22 1 0.348155 0.0436644 0
892 1 0.357499 0.000560656 0
23 1 0.361875 0.0252197 0
894 1 0.376793 0.00769644 0
24 1 0.381526 0.0323568 0
25 1 0.396034 0.0140927 0
26 1 0.401669 0.0384571 0
27 1 0.416099 0.0193704 0
28 1 0.421407 0.0432971 0
29 1 0.435642 0.0254264 0
900 1 0.450274 0.006627 0
30 1 0.455256 0.0321496 0
898 1 0.430096 0.000745538 0
902 1 0.489597 0.0203158 0
901 1 0.469314 0.0143915 0
931 1 0.475581 0.0391932 0
988 1 0.0200681 0.0800162 0
958 1 0.0251762 0.0556458 0
987 1 0.00598462 0.0637613 0
986 1 0.00057962 0.0882403 0
989 1 0.0398399 0.0730233 0
960 1 0.0452223 0.0483833 0
61 1 0.0588374 0.0666419 0
62 1 0.073445 0.0838682 0
32 1 0.0784213 0.0587748 0
63 1 0.0932103 0.075847 0
34 1 0.0982366 0.0517402 0
65 1 0.112153 0.0687657 0
66 1 0.127281 0.0856926 0
36 1 0.131999 0.0616958 0
67 1 0.146191 0.0782634 0
38 1 0.152247 0.0539915 0
69 1 0.171664 0.046835 0
68 1 0.166356 0.0708682 0
71 1 0.185848 0.0645404 0
72 1 0.199952 0.0817474 0
42 1 0.206066 0.0582679 0
70 1 0.180798 0.0894531 0
43 1 0.225395 0.0511899 0
73 1 0.220426 0.0751251 0
44 1 0.240046 0.0691159 0
105 1 0.234452 0.092712 0
74 1 0.264027 0.0858538 0
75 1 0.260357 0.0624027 0
76 1 0.280017 0.0677265 0
48 1 0.293822 0.0497659 0
79 1 0.298867 0.0741943 0
50 1 0.313284 0.0553951 0
81 1 0.318293 0.0797498 0
52 1 0.332916 0.0613708 0
82 1 0.337907 0.0861882 0
83 1 0.352777 0.0674404 0
53 1 0.367385 0.0498661 0
54 1 0.372215 0.0742817 0
55 1 0.387197 0.0562583 0
56 1 0.391486 0.0812641 0
57 1 0.406437 0.0630844 0
87 1 0.411673 0.0865111 0
58 1 0.426777 0.0690323 0
59 1 0.440935 0.0498712 0
89 1 0.44592 0.0740474 0
60 1 0.461445 0.0564401 0
933 1 0.494852 0.0450858 0
932 1 0.480711 0.0641671 0
961 1 0.465762 0.0813897 0
962 1 0.485433 0.0877073 0
963 1 0.499866 0.0705653 0
1047 1 0.0109015 0.130099 0
1019 1 0.0346391 0.0974321 0
1049 1 0.0294878 0.123246 0
1018 1 0.0150952 0.103998 0
990 1 0.0543922 0.0907283 0
1020 1 0.0490453 0.115592 0
121 1 0.063911 0.132728 0
91 1 0.0686809 0.108666 0
92 1 0.0834514 0.125556 0
93 1 0.0879918 0.100402 0
94 1 0.103264 0.118028 0
64 1 0.10811 0.0933877 0
95 1 0.122928 0.11008 0
96 1 0.137442 0.126097 0
125 1 0.118076 0.134559 0
97 1 0.142218 0.102727 0
98 1 0.156645 0.119701 0
99 1 0.161399 0.0948227 0
100 1 0.176276 0.113081 0
130 1 0.191963 0.130619 0
101 1 0.195742 0.106347 0
102 1 0.211346 0.121906 0
103 1 0.214993 0.0986212 0
104 1 0.232282 0.119858 0
106 1 0.249951 0.107808 0
78 1 0.283859 0.0916769 0
137 1 0.257164 0.129983 0
107 1 0.270118 0.110062 0
108 1 0.276934 0.134325 0
109 1 0.290107 0.116246 0
80 1 0.303467 0.0982558 0
110 1 0.309753 0.12231 0
111 1 0.323504 0.104084 0
141 1 0.328971 0.128436 0
113 1 0.343802 0.111421 0
143 1 0.349727 0.135044 0
84 1 0.357086 0.0915157 0
112 1 0.363939 0.117044 0
85 1 0.377307 0.0988144 0
115 1 0.383027 0.123068 0
86 1 0.397119 0.105066 0
116 1 0.401865 0.129896 0
117 1 0.416758 0.111445 0
118 1 0.421964 0.136302 0
88 1 0.432104 0.0937762 0
119 1 0.436873 0.118123 0
90 1 0.45194 0.0999474 0
120 1 0.457056 0.124438 0
991 1 0.47152 0.106786 0
992 1 0.476407 0.131122 0
993 1 0.490907 0.113169 0
1075 1 0.000457047 0.180098 0
1048 1 0.0253522 0.148186 0
1077 1 0.0205244 0.173393 0
1046 1 0.00616854 0.155888 0
1079 1 0.0397446 0.16533 0
1050 1 0.0451276 0.140336 0
151 1 0.0588228 0.158575 0
152 1 0.074 0.17541 0
122 1 0.078609 0.150043 0
153 1 0.093359 0.167525 0
123 1 0.0983287 0.142703 0
124 1 0.113501 0.159047 0
155 1 0.128684 0.174915 0
126 1 0.133052 0.150628 0
129 1 0.17201 0.137525 0
157 1 0.147242 0.167493 0
127 1 0.15293 0.144097 0
128 1 0.167022 0.162788 0
159 1 0.186062 0.154318 0
132 1 0.193667 0.176938 0
131 1 0.206858 0.158011 0
133 1 0.222734 0.141525 0
134 1 0.22763 0.165324 0
135 1 0.24265 0.146879 0
165 1 0.247366 0.171832 0
136 1 0.261887 0.154242 0
167 1 0.267258 0.177643 0
138 1 0.281719 0.159816 0
139 1 0.296038 0.140594 0
169 1 0.301461 0.165306 0
140 1 0.315261 0.146366 0
171 1 0.32034 0.171892 0
142 1 0.335157 0.152228 0
172 1 0.339436 0.177443 0
173 1 0.354885 0.159172 0
114 1 0.368923 0.140883 0
144 1 0.374024 0.166539 0
145 1 0.388314 0.148781 0
146 1 0.393256 0.172465 0
147 1 0.407378 0.154646 0
177 1 0.41367 0.178753 0
148 1 0.427499 0.160158 0
149 1 0.442096 0.142572 0
150 1 0.447438 0.166753 0
1021 1 0.461677 0.148754 0
1051 1 0.467229 0.173058 0
1022 1 0.4813 0.1552 0
1053 1 0.487238 0.180301 0
1023 1 0.496166 0.13814 0
1076 1 0.015454 0.197427 0
1107 1 0.0311172 0.215515 0
1106 1 0.0108245 0.2215 0
1080 1 0.0549954 0.184704 0
1078 1 0.0353062 0.190619 0
1109 1 0.053972 0.213658 0
181 1 0.0709 0.200086 0
182 1 0.0765468 0.223042 0
183 1 0.0914589 0.204862 0
154 1 0.108335 0.185839 0
185 1 0.110564 0.213935 0
156 1 0.125575 0.199095 0
186 1 0.130764 0.223693 0
158 1 0.145706 0.2045 0
160 1 0.159329 0.186177 0
189 1 0.165204 0.212446 0
161 1 0.178773 0.19457 0
163 1 0.213066 0.183156 0
191 1 0.184295 0.218617 0
162 1 0.198128 0.201007 0
192 1 0.204434 0.225385 0
193 1 0.218393 0.207376 0
164 1 0.232467 0.189314 0
195 1 0.238599 0.213351 0
166 1 0.253304 0.196398 0
196 1 0.258091 0.220308 0
197 1 0.27234 0.201749 0
198 1 0.277886 0.225816 0
168 1 0.286896 0.183266 0
199 1 0.291497 0.207879 0
170 1 0.305834 0.189483 0
200 1 0.310994 0.213918 0
201 1 0.324622 0.196344 0
202 1 0.330007 0.220571 0
203 1 0.344471 0.201506 0
233 1 0.350577 0.226108 0
174 1 0.359019 0.184135 0
204 1 0.364403 0.208062 0
175 1 0.378465 0.19061 0
205 1 0.384513 0.214822 0
176 1 0.398876 0.196253 0
207 1 0.403409 0.22127 0
178 1 0.418163 0.202798 0
179 1 0.433604 0.185489 0
209 1 0.438411 0.209801 0
180 1 0.453267 0.191231 0
1081 1 0.458008 0.215191 0
1052 1 0.472579 0.198118 0
1082 1 0.477698 0.223767 0
1083 1 0.49244 0.204966 0
1108 1 0.0265785 0.252525 0
1137 1 0.0119576 0.269559 0
1136 1 0.00713827 0.245502 0
1110 1 0.0423959 0.235609 0
1140 1 0.0469996 0.259773 0
211 1 0.0612074 0.240474 0
212 1 0.066502 0.266384 0
213 1 0.0808066 0.248312 0
184 1 0.0956697 0.231271 0
214 1 0.100474 0.256614 0
243 1 0.0863655 0.273706 0
215 1 0.115021 0.238764 0
216 1 0.121181 0.263455 0
217 1 0.135591 0.247192 0
218 1 0.141404 0.271347 0
187 1 0.150444 0.229228 0
188 1 0.154824 0.252962 0
190 1 0.170157 0.23573 0
220 1 0.175139 0.259152 0
221 1 0.189422 0.242019 0
222 1 0.195047 0.266233 0
223 1 0.209987 0.249786 0
194 1 0.223927 0.231202 0
224 1 0.2295 0.255542 0
225 1 0.243308 0.237471 0
226 1 0.248861 0.261503 0
227 1 0.263375 0.244239 0
257 1 0.268193 0.268527 0
228 1 0.282353 0.249825 0
229 1 0.296777 0.232133 0
230 1 0.302318 0.256948 0
231 1 0.316319 0.239017 0
261 1 0.322513 0.262579 0
232 1 0.335897 0.243742 0
263 1 0.341522 0.269304 0
234 1 0.355299 0.250291 0
235 1 0.370178 0.232403 0
265 1 0.374879 0.2567 0
206 1 0.390306 0.240119 0
208 1 0.423579 0.227929 0
236 1 0.395053 0.26427 0
237 1 0.409745 0.245936 0
238 1 0.414893 0.270666 0
239 1 0.429398 0.252068 0
210 1 0.444164 0.232899 0
240 1 0.448546 0.257484 0
1111 1 0.463206 0.240772 0
1112 1 0.468241 0.265518 0
1113 1 0.483267 0.248471 0
1084 1 0.497935 0.229001 0
1142 1 0.489094 0.272612 0
1138 1 0.0176738 0.294607 0
1139 1 0.0317885 0.27697 0
1197 1 0.00232897 0.311567 0
1169 1 0.0374065 0.301225 0
241 1 0.0521914 0.283819 0
271 1 0.0574806 0.308263 0
242 1 0.0718044 0.291195 0
273 1 0.077096 0.315742 0
244 1 0.0912792 0.297313 0
245 1 0.105981 0.280005 0
246 1 0.110083 0.305106 0
247 1 0.125281 0.288155 0
248 1 0.130944 0.312242 0
249 1 0.145762 0.294565 0
219 1 0.161122 0.276665 0
250 1 0.164714 0.301084 0
251 1 0.180566 0.283283 0
253 1 0.21453 0.273283 0
281 1 0.184021 0.306951 0
252 1 0.199864 0.290076 0
283 1 0.205058 0.314952 0
254 1 0.22015 0.297099 0
255 1 0.234042 0.279723 0
285 1 0.239056 0.303691 0
256 1 0.253426 0.286098 0
287 1 0.258543 0.310098 0
258 1 0.273542 0.292831 0
288 1 0.278617 0.316983 0
259 1 0.287434 0.274863 0
289 1 0.293948 0.299153 0
260 1 0.307444 0.280569 0
291 1 0.313226 0.305581 0
262 1 0.327626 0.287397 0
292 1 0.333293 0.312119 0
293 1 0.347271 0.293146 0
264 1 0.360708 0.275088 0
295 1 0.367365 0.300143 0
266 1 0.380432 0.281124 0
297 1 0.386336 0.307265 0
267 1 0.400431 0.288472 0
298 1 0.405337 0.312631 0
268 1 0.420083 0.294548 0
269 1 0.434917 0.276445 0
270 1 0.439616 0.3015 0
1141 1 0.454155 0.284375 0
300 1 0.460132 0.308021 0
1171 1 0.474269 0.289618 0
1172 1 0.480074 0.314033 0
1173 1 0.494551 0.296704 0
1168 1 0.0220911 0.319165 0
1199 1 0.0286296 0.343881 0
1198 1 0.00821479 0.336372 0
1228 1 0.0134562 0.361017 0
1170 1 0.0424225 0.32461 0
1229 1 0.0481439 0.349612 0
1200 1 0.0625377 0.332475 0
301 1 0.0675592 0.357443 0
272 1 0.0815163 0.339685 0
275 1 0.0959733 0.322309 0
274 1 0.101594 0.346734 0
276 1 0.115923 0.329123 0
305 1 0.121818 0.353933 0
277 1 0.135598 0.336452 0
307 1 0.141054 0.361776 0
279 1 0.150486 0.319112 0
278 1 0.154981 0.34369 0
280 1 0.169605 0.325651 0
311 1 0.175054 0.35044 0
282 1 0.188851 0.331876 0
312 1 0.195054 0.356103 0
313 1 0.21 0.339752 0
284 1 0.224914 0.322147 0
315 1 0.229359 0.346152 0
286 1 0.243868 0.327967 0
316 1 0.248539 0.351765 0
317 1 0.263888 0.335097 0
318 1 0.267751 0.358953 0
319 1 0.283557 0.341534 0
290 1 0.298675 0.323148 0
320 1 0.303015 0.348491 0
321 1 0.318539 0.329366 0
294 1 0.352903 0.31795 0
322 1 0.323519 0.353365 0
323 1 0.337901 0.335729 0
324 1 0.343292 0.361281 0
325 1 0.357458 0.342461 0
296 1 0.372612 0.325138 0
326 1 0.377143 0.34894 0
327 1 0.391791 0.331447 0
299 1 0.425325 0.318725 0
328 1 0.396793 0.355675 0
329 1 0.411299 0.337845 0
358 1 0.416047 0.362111 0
359 1 0.430643 0.343982 0
330 1 0.445134 0.326065 0
360 1 0.451287 0.350777 0
1202 1 0.485304 0.339348 0
1201 1 0.464633 0.332624 0
1231 1 0.471237 0.357239 0
1233 1 0.491006 0.363007 0
1203 1 0.499597 0.321132 0
1287 1 0.00437534 0.403357 0
1259 1 0.033149 0.368385 0
1258 1 0.0186672 0.385431 0
1260 1 0.0385858 0.392752 0
1230 1 0.052973 0.374694 0
331 1 0.0575816 0.399352 0
302 1 0.0723368 0.38172 0
303 1 0.0866743 0.363903 0
332 1 0.0773537 0.406401 0
333 1 0.0919851 0.388613 0
304 1 0.105628 0.370949 0
335 1 0.111174 0.39503 0
306 1 0.125366 0.378372 0
337 1 0.131334 0.401901 0
308 1 0.145964 0.385709 0
309 1 0.159901 0.368295 0
339 1 0.166606 0.392364 0
310 1 0.180104 0.3738 0
341 1 0.185841 0.399 0
343 1 0.199885 0.381183 0
342 1 0.205896 0.405569 0
314 1 0.214936 0.363014 0
344 1 0.219121 0.387644 0
345 1 0.234224 0.370111 0
346 1 0.23892 0.39461 0
347 1 0.253841 0.376629 0
377 1 0.259211 0.401035 0
348 1 0.273392 0.383313 0
378 1 0.279068 0.407322 0
349 1 0.28805 0.364912 0
350 1 0.293741 0.38925 0
351 1 0.308483 0.371833 0
381 1 0.313235 0.396045 0
353 1 0.327486 0.378485 0
352 1 0.33372 0.401826 0
354 1 0.34802 0.384995 0
355 1 0.3625 0.36749 0
356 1 0.367422 0.391559 0
357 1 0.382055 0.373646 0
386 1 0.386936 0.398222 0
387 1 0.401477 0.379298 0
388 1 0.40681 0.404274 0
389 1 0.421189 0.385216 0
1232 1 0.436208 0.368202 0
1261 1 0.440348 0.39177 0
1262 1 0.455193 0.374995 0
1293 1 0.46122 0.398419 0
1263 1 0.475247 0.380773 0
1294 1 0.480407 0.405178 0
1264 1 0.495212 0.387437 0
1289 1 0.0240579 0.409914 0
1319 1 0.029269 0.436048 0
1288 1 0.00964607 0.427665 0
1318 1 0.0140048 0.453787 0
1290 1 0.0431174 0.418061 0
391 1 0.0486013 0.442924 0
361 1 0.0626114 0.425128 0
362 1 0.0686878 0.448903 0
363 1 0.0830163 0.431525 0
334 1 0.0968878 0.413448 0
365 1 0.103387 0.438501 0
336 1 0.116745 0.419014 0
366 1 0.122413 0.446074 0
367 1 0.136085 0.427708 0
368 1 0.141882 0.451952 0
338 1 0.151275 0.410285 0
369 1 0.155552 0.434209 0
340 1 0.171398 0.416739 0
370 1 0.176398 0.441113 0
371 1 0.191472 0.423162 0
401 1 0.196851 0.448049 0
372 1 0.211492 0.430721 0
373 1 0.225272 0.412615 0
374 1 0.23074 0.437249 0
375 1 0.244601 0.418624 0
403 1 0.216615 0.455519 0
405 1 0.249915 0.443998 0
376 1 0.264521 0.426154 0
407 1 0.269705 0.450546 0
409 1 0.283949 0.431851 0
379 1 0.298781 0.414328 0
380 1 0.303907 0.438359 0
382 1 0.319152 0.419336 0
385 1 0.352185 0.408915 0
413 1 0.324504 0.444707 0
383 1 0.338434 0.426481 0
412 1 0.343678 0.451637 0
414 1 0.357861 0.433959 0
384 1 0.371884 0.416026 0
415 1 0.378192 0.439782 0
417 1 0.392071 0.422198 0
416 1 0.397579 0.445776 0
418 1 0.412466 0.427874 0
419 1 0.426513 0.410098 0
390 1 0.431662 0.434748 0
1291 1 0.446428 0.416088 0
1321 1 0.452006 0.441383 0
1323 1 0.485842 0.429389 0
1292 1 0.466176 0.423625 0
1322 1 0.471824 0.447982 0
1324 1 0.492174 0.453877 0
1320 1 0.0336231 0.460643 0
1349 1 0.0187858 0.478326 0
1379 1 0.0044053 0.495351 0
421 1 0.0385294 0.485054 0
392 1 0.0533505 0.466319 0
422 1 0.0582676 0.490884 0
393 1 0.0740494 0.473277 0
364 1 0.0884577 0.456604 0
394 1 0.0939752 0.481533 0
395 1 0.107831 0.463913 0
423 1 0.0779941 0.499394 0
396 1 0.11399 0.489336 0
397 1 0.1278 0.470166 0
427 1 0.133662 0.494559 0
398 1 0.14735 0.476141 0
399 1 0.162211 0.458314 0
429 1 0.167634 0.484087 0
400 1 0.182353 0.466239 0
431 1 0.18772 0.491036 0
402 1 0.202208 0.472687 0
432 1 0.207219 0.498502 0
433 1 0.221806 0.480331 0
404 1 0.236189 0.461713 0
435 1 0.240628 0.487166 0
406 1 0.255384 0.469223 0
436 1 0.260476 0.493151 0
408 1 0.275263 0.47451 0
439 1 0.280526 0.498271 0
410 1 0.289903 0.456277 0
441 1 0.295537 0.479498 0
411 1 0.310058 0.462557 0
440 1 0.314394 0.487635 0
442 1 0.329754 0.469458 0
471 1 0.333795 0.495068 0
473 1 0.348861 0.477047 0
472 1 0.354456 0.500668 0
443 1 0.363581 0.458605 0
444 1 0.369425 0.482611 0
445 1 0.383377 0.464363 0
475 1 0.38809 0.487922 0
447 1 0.417407 0.45169 0
446 1 0.402577 0.470216 0
477 1 0.408883 0.494871 0
448 1 0.421743 0.476188 0
420 1 0.436526 0.459344 0
1351 1 0.461983 0.489683 0
450 1 0.456522 0.465728 0
449 1 0.442151 0.483061 0
1354 1 0.497011 0.478757 0
1352 1 0.481729 0.497404 0
1353 1 0.476886 0.472352 0
1380 1 0.0302658 0.52845 0
1350 1 0.0245584 0.503537 0
1409 1 0.0158525 0.546449 0
451 1 0.0443345 0.510298 0
452 1 0.0499816 0.534478 0
453 1 0.0636254 0.516849 0
454 1 0.0691942 0.541682 0
424 1 0.0842273 0.523398 0
425 1 0.0989702 0.506142 0
455 1 0.104347 0.529763 0
426 1 0.118969 0.513542 0
456 1 0.124582 0.537307 0
457 1 0.13874 0.519537 0
458 1 0.143502 0.544735 0
459 1 0.158728 0.527069 0
430 1 0.172463 0.508326 0
460 1 0.178392 0.534318 0
428 1 0.153121 0.501496 0
461 1 0.192108 0.515566 0
462 1 0.197014 0.540347 0
463 1 0.212057 0.522825 0
434 1 0.226865 0.506048 0
464 1 0.232076 0.530042 0
465 1 0.246584 0.510948 0
466 1 0.252178 0.534802 0
437 1 0.266547 0.516439 0
497 1 0.27163 0.541352 0
467 1 0.286228 0.522651 0
438 1 0.299951 0.504203 0
468 1 0.304843 0.529665 0
469 1 0.319797 0.512873 0
499 1 0.324815 0.536674 0
470 1 0.339512 0.519707 0
501 1 0.34496 0.543248 0
503 1 0.360171 0.52595 0
474 1 0.374823 0.507372 0
505 1 0.380489 0.531666 0
476 1 0.395018 0.512635 0
506 1 0.40047 0.537373 0
507 1 0.414805 0.518737 0
509 1 0.419976 0.543206 0
478 1 0.427855 0.50045 0
480 1 0.434011 0.52581 0
479 1 0.448371 0.507362 0
510 1 0.45344 0.531987 0
1382 1 0.487435 0.5222 0
1381 1 0.467709 0.514607 0
1411 1 0.47289 0.538851 0
481 1 0.0352766 0.552665 0
1408 1 0.0208992 0.570767 0
1410 1 0.0410752 0.576589 0
483 1 0.0553359 0.55926 0
482 1 0.0602135 0.583678 0
485 1 0.0890794 0.548076 0
513 1 0.0750929 0.565986 0
484 1 0.0946673 0.572199 0
486 1 0.110015 0.554262 0
515 1 0.114009 0.579826 0
487 1 0.129018 0.562974 0
517 1 0.133772 0.586544 0
488 1 0.148721 0.569662 0
489 1 0.162894 0.551708 0
490 1 0.168197 0.575472 0
491 1 0.182582 0.558922 0
521 1 0.187632 0.582455 0
492 1 0.20235 0.564539 0
523 1 0.207268 0.588474 0
493 1 0.216979 0.546971 0
494 1 0.22142 0.570295 0
495 1 0.236937 0.553182 0
525 1 0.242498 0.576628 0
496 1 0.256962 0.558938 0
526 1 0.261961 0.583348 0
527 1 0.277177 0.566198 0
498 1 0.291375 0.547148 0
529 1 0.296263 0.572851 0
500 1 0.310587 0.555258 0
530 1 0.316112 0.578957 0
531 1 0.330003 0.560475 0
532 1 0.335108 0.585452 0
533 1 0.349799 0.568013 0
502 1 0.364726 0.550232 0
534 1 0.369668 0.574437 0
504 1 0.384386 0.555664 0
535 1 0.389826 0.579966 0
508 1 0.404514 0.561289 0
537 1 0.410449 0.584881 0
539 1 0.424539 0.567776 0
540 1 0.439367 0.549831 0
569 1 0.445103 0.575065 0
1441 1 0.458576 0.556352 0
1442 1 0.464468 0.581887 0
1413 1 0.493405 0.546151 0
1443 1 0.483943 0.586917 0
1412 1 0.478409 0.562725 0
1414 1 0.498732 0.569751 0
1439 1 0.0257415 0.595599 0
1440 1 0.0289076 0.620012 0
1438 1 0.00925256 0.607943 0
1469 1 0.0028306 0.632619 0
511 1 0.0451005 0.601961 0
541 1 0.0501056 0.62517 0
512 1 0.0646643 0.608237 0
542 1 0.0699331 0.63136 0
514 1 0.0800363 0.59136 0
543 1 0.0850554 0.614972 0
545 1 0.099529 0.596885 0
546 1 0.104754 0.621477 0
516 1 0.119416 0.603275 0
547 1 0.124152 0.627708 0
518 1 0.139154 0.610336 0
519 1 0.153213 0.593163 0
548 1 0.159087 0.617124 0
520 1 0.172948 0.600377 0
549 1 0.178518 0.624475 0
522 1 0.192654 0.606638 0
551 1 0.197608 0.631245 0
553 1 0.211766 0.612383 0
524 1 0.226991 0.594079 0
554 1 0.232352 0.619187 0
555 1 0.24668 0.60207 0
528 1 0.281193 0.59058 0
556 1 0.252729 0.626057 0
557 1 0.266918 0.607864 0
587 1 0.271918 0.632447 0
558 1 0.287359 0.615143 0
559 1 0.301516 0.59717 0
560 1 0.306976 0.621688 0
561 1 0.320515 0.603887 0
563 1 0.355413 0.592686 0
591 1 0.326579 0.627846 0
562 1 0.341197 0.609991 0
564 1 0.34582 0.634025 0
565 1 0.360887 0.616433 0
536 1 0.3762 0.598487 0
566 1 0.380333 0.622477 0
567 1 0.396135 0.604299 0
597 1 0.400397 0.629316 0
568 1 0.414797 0.61163 0
599 1 0.420765 0.634807 0
538 1 0.429911 0.593703 0
600 1 0.434481 0.617586 0
570 1 0.45029 0.600038 0
1501 1 0.455377 0.623366 0
1471 1 0.469816 0.606146 0
1472 1 0.475709 0.629774 0
1473 1 0.489237 0.611277 0
1529 1 0.0120026 0.674813 0
1500 1 0.0339283 0.667388 0
1499 1 0.0174691 0.650942 0
1470 1 0.0361292 0.643046 0
571 1 0.0549313 0.65041 0
572 1 0.0626785 0.672944 0
573 1 0.076011 0.655123 0
544 1 0.0905921 0.638907 0
574 1 0.0954163 0.664266 0
575 1 0.110706 0.645899 0
605 1 0.115699 0.669946 0
576 1 0.130098 0.652607 0
607 1 0.135902 0.677744 0
577 1 0.144521 0.635055 0
578 1 0.149833 0.660056 0
579 1 0.164234 0.642618 0
609 1 0.169588 0.667536 0
550 1 0.183653 0.649745 0
580 1 0.189223 0.673821 0
581 1 0.20352 0.655801 0
611 1 0.209607 0.679588 0
552 1 0.218011 0.637884 0
582 1 0.224057 0.66145 0
583 1 0.238346 0.64345 0
584 1 0.24437 0.669135 0
585 1 0.257793 0.649747 0
615 1 0.263889 0.67443 0
586 1 0.278009 0.65677 0
589 1 0.292218 0.638643 0
588 1 0.29821 0.663907 0
590 1 0.311835 0.645214 0
621 1 0.318199 0.670223 0
593 1 0.331993 0.652536 0
592 1 0.338166 0.67648 0
594 1 0.351725 0.658066 0
595 1 0.365865 0.640887 0
625 1 0.371256 0.664469 0
596 1 0.386559 0.647261 0
627 1 0.391816 0.672207 0
598 1 0.406385 0.653024 0
657 1 0.411883 0.677066 0
628 1 0.426081 0.660221 0
629 1 0.440114 0.641822 0
630 1 0.44568 0.665895 0
1502 1 0.460529 0.648134 0
1474 1 0.495401 0.635431 0
1503 1 0.480426 0.654223 0
1533 1 0.464809 0.6733 0
1504 1 0.484658 0.679045 0
1558 1 0.00218891 0.723697 0
1559 1 0.00726127 0.699807 0
1530 1 0.0272416 0.692269 0
1560 1 0.0230261 0.716131 0
631 1 0.0421856 0.710008 0
601 1 0.0468152 0.686073 0
602 1 0.0638354 0.699942 0
632 1 0.0576135 0.725297 0
603 1 0.0812949 0.680971 0
633 1 0.0839929 0.706923 0
604 1 0.100283 0.689186 0
635 1 0.104154 0.714392 0
606 1 0.119446 0.696156 0
636 1 0.124765 0.719841 0
637 1 0.140314 0.70219 0
608 1 0.155764 0.685133 0
638 1 0.160663 0.709753 0
639 1 0.175229 0.692472 0
667 1 0.145904 0.726621 0
641 1 0.180557 0.715638 0
610 1 0.195508 0.697863 0
642 1 0.200551 0.723164 0
612 1 0.215374 0.705863 0
613 1 0.229266 0.686668 0
643 1 0.23561 0.710915 0
614 1 0.250448 0.693154 0
617 1 0.283917 0.680977 0
645 1 0.255315 0.717728 0
616 1 0.27029 0.699032 0
647 1 0.274641 0.724467 0
618 1 0.289936 0.706723 0
619 1 0.304087 0.688784 0
620 1 0.310047 0.712752 0
622 1 0.324517 0.695199 0
651 1 0.329533 0.719781 0
653 1 0.343672 0.702114 0
654 1 0.348477 0.7275 0
623 1 0.357732 0.682498 0
624 1 0.363103 0.708531 0
626 1 0.376628 0.689591 0
655 1 0.382224 0.714711 0
656 1 0.396281 0.696635 0
686 1 0.402146 0.720631 0
658 1 0.416324 0.702285 0
659 1 0.431286 0.684482 0
660 1 0.435963 0.708323 0
1531 1 0.4509 0.690221 0
1561 1 0.456159 0.714381 0
1532 1 0.47081 0.697566 0
1563 1 0.47564 0.722162 0
1534 1 0.490624 0.703955 0
1619 1 0.0117691 0.765512 0
1589 1 0.0169578 0.74038 0
1590 1 0.0313352 0.758541 0
661 1 0.0367643 0.734279 0
663 1 0.0517697 0.750581 0
662 1 0.0661447 0.76776 0
664 1 0.0714932 0.743372 0
695 1 0.0875127 0.760449 0
634 1 0.0895692 0.733797 0
665 1 0.109895 0.738365 0
697 1 0.116036 0.762863 0
666 1 0.130482 0.74396 0
668 1 0.1376 0.767109 0
669 1 0.151429 0.750726 0
640 1 0.166314 0.733572 0
670 1 0.171122 0.758174 0
671 1 0.186377 0.740788 0
672 1 0.19286 0.76443 0
673 1 0.207201 0.747944 0
703 1 0.21245 0.77245 0
644 1 0.220528 0.729884 0
674 1 0.226701 0.754206 0
675 1 0.240521 0.736237 0
705 1 0.246487 0.761354 0
646 1 0.26134 0.743332 0
677 1 0.266298 0.767505 0
648 1 0.281615 0.748841 0
649 1 0.294679 0.730565 0
679 1 0.300589 0.755769 0
650 1 0.314906 0.737446 0
681 1 0.320115 0.762431 0
652 1 0.333709 0.744889 0
682 1 0.340119 0.768875 0
683 1 0.35468 0.751428 0
685 1 0.368711 0.732993 0
684 1 0.37363 0.757867 0
715 1 0.38811 0.739028 0
687 1 0.421778 0.726866 0
714 1 0.393405 0.763763 0
717 1 0.407605 0.745788 0
716 1 0.413625 0.769248 0
688 1 0.428159 0.751504 0
689 1 0.442145 0.732253 0
719 1 0.447972 0.757392 0
690 1 0.461755 0.740089 0
1565 1 0.49559 0.728539 0
1591 1 0.467655 0.764059 0
1562 1 0.481067 0.74569 0
1593 1 0.487185 0.770297 0
1620 1 0.0265721 0.782864 0
1649 1 0.021444 0.807141 0
1618 1 0.00654313 0.790365 0
1648 1 0.00128127 0.815018 0
691 1 0.0464169 0.775532 0
721 1 0.0405955 0.800273 0
693 1 0.060374 0.793171 0
692 1 0.0546539 0.817325 0
723 1 0.0744699 0.810867 0
694 1 0.0805618 0.786266 0
725 1 0.0943527 0.80505 0
696 1 0.101319 0.780999 0
727 1 0.115373 0.798639 0
728 1 0.128928 0.81675 0
698 1 0.136512 0.790952 0
699 1 0.156728 0.77534 0
700 1 0.148249 0.811328 0
731 1 0.16423 0.799211 0
701 1 0.177479 0.782224 0
702 1 0.198027 0.790034 0
763 1 0.202543 0.814882 0
732 1 0.182752 0.808068 0
733 1 0.217568 0.797205 0
704 1 0.232391 0.779662 0
706 1 0.237238 0.803297 0
676 1 0.251769 0.785589 0
737 1 0.257193 0.809754 0
707 1 0.271255 0.792341 0
738 1 0.276983 0.816143 0
678 1 0.286098 0.77484 0
708 1 0.291471 0.798323 0
709 1 0.306243 0.780524 0
710 1 0.310876 0.80485 0
680 1 0.326527 0.786812 0
741 1 0.330417 0.811501 0
711 1 0.34564 0.793691 0
742 1 0.35081 0.81829 0
713 1 0.360123 0.776147 0
712 1 0.365548 0.799905 0
743 1 0.380014 0.781528 0
745 1 0.38586 0.805308 0
746 1 0.400703 0.787669 0
775 1 0.405328 0.811062 0
747 1 0.419789 0.794721 0
718 1 0.43281 0.776367 0
749 1 0.439192 0.800827 0
720 1 0.452723 0.781636 0
1621 1 0.459262 0.80643 0
1623 1 0.49301 0.794293 0
1592 1 0.473293 0.788497 0
1622 1 0.47841 0.813671 0
1709 1 0.0301861 0.849245 0
1679 1 0.0159058 0.832054 0
1678 1 0.0103614 0.856936 0
1650 1 0.0356824 0.824968 0
1680 1 0.0503585 0.841917 0
752 1 0.0645569 0.859404 0
751 1 0.0699379 0.835884 0
753 1 0.085088 0.853413 0
722 1 0.0894995 0.828948 0
724 1 0.104571 0.845834 0
726 1 0.109703 0.822315 0
757 1 0.12497 0.840692 0
756 1 0.139915 0.858239 0
729 1 0.145102 0.834792 0
759 1 0.162593 0.848505 0
730 1 0.16485 0.824032 0
761 1 0.185675 0.832206 0
792 1 0.193169 0.856739 0
762 1 0.207445 0.839694 0
764 1 0.212611 0.86396 0
735 1 0.222118 0.821962 0
734 1 0.227988 0.846715 0
736 1 0.242158 0.827803 0
765 1 0.248272 0.852372 0
767 1 0.262362 0.834763 0
766 1 0.267343 0.859728 0
768 1 0.282358 0.84088 0
739 1 0.297245 0.823254 0
769 1 0.302068 0.84731 0
740 1 0.317094 0.829534 0
770 1 0.322398 0.854109 0
771 1 0.336426 0.83588 0
801 1 0.341518 0.860289 0
773 1 0.356292 0.842403 0
744 1 0.371359 0.823402 0
803 1 0.376238 0.849056 0
774 1 0.3915 0.82999 0
748 1 0.425368 0.818763 0
776 1 0.397096 0.854273 0
777 1 0.411243 0.836404 0
778 1 0.416707 0.861399 0
779 1 0.431334 0.843589 0
750 1 0.445301 0.824369 0
780 1 0.450456 0.850075 0
1651 1 0.464391 0.832514 0
1624 1 0.498074 0.818781 0
1652 1 0.470287 0.856838 0
1653 1 0.485385 0.838284 0
1683 1 0.490601 0.862578 0
1710 1 0.024964 0.873473 0
1739 1 0.0203428 0.896876 0
1708 1 0.00546448 0.88063 0
1737 1 0.000450492 0.904758 0
781 1 0.044843 0.866839 0
811 1 0.0393886 0.891295 0
782 1 0.0590975 0.884337 0
812 1 0.0546654 0.908851 0
813 1 0.0739062 0.901915 0
783 1 0.0795313 0.8776 0
784 1 0.0940864 0.894564 0
754 1 0.100249 0.871039 0
755 1 0.119235 0.864384 0
785 1 0.114031 0.888326 0
786 1 0.129391 0.904579 0
787 1 0.134358 0.881539 0
788 1 0.149757 0.897616 0
758 1 0.155626 0.873105 0
760 1 0.175068 0.867708 0
789 1 0.169587 0.891807 0
791 1 0.190545 0.884038 0
823 1 0.204614 0.903736 0
790 1 0.184956 0.909128 0
793 1 0.219022 0.887698 0
795 1 0.233435 0.870848 0
794 1 0.238703 0.895325 0
796 1 0.253275 0.877044 0
825 1 0.258518 0.902546 0
827 1 0.272687 0.884415 0
826 1 0.279269 0.908851 0
797 1 0.287124 0.866277 0
798 1 0.292629 0.890446 0
799 1 0.307038 0.87227 0
829 1 0.313636 0.896038 0
800 1 0.327554 0.877782 0
831 1 0.333204 0.902678 0
802 1 0.346586 0.884108 0
833 1 0.352975 0.909453 0
772 1 0.361551 0.866656 0
804 1 0.367378 0.89087 0
805 1 0.382286 0.871927 0
806 1 0.387292 0.897078 0
807 1 0.401518 0.878772 0
837 1 0.406815 0.903872 0
808 1 0.421437 0.88586 0
809 1 0.436761 0.867701 0
810 1 0.441583 0.892113 0
1681 1 0.456484 0.87425 0
1711 1 0.462031 0.898964 0
1684 1 0.495649 0.887062 0
1682 1 0.476291 0.880795 0
1713 1 0.481394 0.905088 0
1769 1 0.0297422 0.939705 0
1738 1 0.0159891 0.921612 0
1768 1 0.0103398 0.945365 0
1740 1 0.0354833 0.915827 0
841 1 0.0500473 0.933157 0
842 1 0.0645386 0.949958 0
843 1 0.0699766 0.925815 0
844 1 0.0841739 0.943382 0
814 1 0.0893269 0.91864 0
845 1 0.104889 0.936955 0
815 1 0.10871 0.912211 0
816 1 0.124405 0.929286 0
847 1 0.138231 0.947404 0
846 1 0.118867 0.953402 0
817 1 0.144176 0.922773 0
818 1 0.158538 0.940108 0
819 1 0.164137 0.915675 0
820 1 0.178511 0.933257 0
851 1 0.192517 0.951404 0
821 1 0.199377 0.927279 0
822 1 0.211963 0.946262 0
824 1 0.223482 0.914442 0
853 1 0.231672 0.938213 0
855 1 0.244268 0.919087 0
854 1 0.251015 0.945228 0
856 1 0.265438 0.926362 0
885 1 0.270892 0.950929 0
857 1 0.285196 0.931936 0
828 1 0.299407 0.913691 0
859 1 0.304587 0.939786 0
830 1 0.318812 0.921102 0
860 1 0.324211 0.945649 0
832 1 0.338223 0.92764 0
861 1 0.345148 0.951604 0
863 1 0.358936 0.933208 0
834 1 0.372975 0.915505 0
865 1 0.378935 0.939773 0
839 1 0.427133 0.910647 0
835 1 0.392904 0.921527 0
836 1 0.398548 0.94542 0
838 1 0.413022 0.927719 0
867 1 0.418487 0.951437 0
869 1 0.433961 0.934685 0
840 1 0.447828 0.915948 0
1741 1 0.453462 0.941127 0
1743 1 0.486504 0.929499 0
1712 1 0.466615 0.923285 0
1742 1 0.473379 0.948392 0
1744 1 0.493334 0.953646 0
1799 1 0.0250628 0.964254 0
1798 1 0.0206522 0.988643 0
1797 1 0.00526681 0.971098 0
927 1 0.000562134 0.996528 0
1800 1 0.0394556 0.981778 0
1770 1 0.0454104 0.958199 0
871 1 0.0593189 0.976147 0
872 1 0.0738092 0.992171 0
873 1 0.0790413 0.967461 0
874 1 0.093662 0.984206 0
875 1 0.099315 0.960954 0
876 1 0.113726 0.977876 0
7 1 0.12821 0.996071 0
877 1 0.133602 0.971527 0
878 1 0.148135 0.989378 0
848 1 0.152972 0.96438 0
849 1 0.172067 0.957265 0
879 1 0.16747 0.981887 0
850 1 0.186122 0.974762 0
11 1 0.201295 0.99316 0
852 1 0.206821 0.969437 0
881 1 0.181745 0.999212 0
883 1 0.226774 0.962134 0
882 1 0.221776 0.985966 0
884 1 0.24114 0.981075 0
886 1 0.257545 0.969323 0
16 1 0.258668 0.995309 0
17 1 0.276328 0.976168 0
18 1 0.283132 1.00017 0
887 1 0.290592 0.958054 0
888 1 0.296624 0.982325 0
858 1 0.310604 0.964053 0
889 1 0.317574 0.986922 0
891 1 0.331344 0.969322 0
890 1 0.336924 0.993748 0
862 1 0.351155 0.975999 0
864 1 0.365044 0.956938 0
893 1 0.370742 0.982198 0
895 1 0.385383 0.965176 0
896 1 0.389878 0.989875 0
866 1 0.404689 0.970718 0
897 1 0.409792 0.995024 0
868 1 0.423797 0.977026 0
870 1 0.437661 0.959068 0
1771 1 0.4586 0.965473 0
1772 1 0.464214 0.989104 0
899 1 0.443679 0.98332 0
903 1 0.484278 0.996023 0
1773 1 0.478717 0.972146 0
1774 1 0.498674 0.979131 0
904 1 0.509596 0.0280947 0
905 1 0.503304 0.00277091 0
906 1 0.523555 0.00982552 0
935 1 0.530079 0.0343245 0
908 1 0.543197 0.0150911 0
937 1 0.549055 0.0404516 0
939 1 0.563311 0.0210917 0
940 1 0.583323 0.0262436 0
941 1 0.577982 0.00188777 0
942 1 0.794533 0.0236253 0
944 1 0.809275 0.0413903 0
943 1 0.814137 0.017582 0
945 1 0.829359 0.0339761 0
914 1 0.833967 0.00995632 0
947 1 0.84912 0.0269964 0
916 1 0.853898 0.00312696 0
918 1 0.868508 0.0208055 0
949 1 0.883039 0.0378244 0
919 1 0.887828 0.0126333 0
948 1 0.863512 0.0446302 0
920 1 0.902767 0.0309991 0
1790 1 0.907391 0.00614135 0
951 1 0.92173 0.0245345 0
952 1 0.937554 0.0426215 0
922 1 0.941637 0.0166666 0
953 1 0.956484 0.0340168 0
924 1 0.961847 0.0111108 0
955 1 0.975972 0.0286598 0
925 1 0.980968 0.00403553 0
926 1 0.99579 0.0214377 0
956 1 0.991708 0.0459187 0