ITEM: TIMESTEP
178000
ITEM: NUMBER OF ATOMS
1800
ITEM: BOX BOUNDS pp pp pp
-5.9856648359326465e+00 1.7098566483593456e+02
1.1826529217466231e+00 1.6381734707825530e+02
0.0000000000000000e+00 5.5000000000000000e+00
ITEM: ATOMS id type xs ys zs
2 1 0.0389937 0.0204019 0
930 1 0.0166589 0.0289958 0
1 1 0.0220619 0.00291967 0
33 1 0.0566081 0.0374897 0
3 1 0.0606465 0.0116839 0
4 1 0.0777732 0.0282574 0
5 1 0.0826479 0.00441856 0
6 1 0.0989392 0.021127 0
8 1 0.121383 0.0136816 0
37 1 0.116355 0.03734 0
39 1 0.138578 0.0305434 0
880 1 0.143348 0.00607563 0
9 1 0.160082 0.022156 0
40 1 0.177312 0.0401607 0
10 1 0.18204 0.0150274 0
41 1 0.19906 0.0335259 0
12 1 0.203806 0.00688196 0
14 1 0.219858 0.0246361 0
15 1 0.241592 0.0166426 0
45 1 0.236878 0.041488 0
16 1 0.262916 0.00865463 0
46 1 0.258072 0.0329086 0
47 1 0.289277 0.0286141 0
18 1 0.284382 0.00376039 0
49 1 0.312207 0.0327502 0
19 1 0.305351 0.00903864 0
20 1 0.327335 0.0136684 0
51 1 0.334283 0.0378429 0
21 1 0.349166 0.0192807 0
23 1 0.370807 0.0262969 0
22 1 0.355815 0.0456123 0
892 1 0.364329 0.00109025 0
894 1 0.386602 0.00644257 0
24 1 0.393581 0.0316745 0
25 1 0.40921 0.0122125 0
26 1 0.415587 0.037141 0
27 1 0.431171 0.0181873 0
29 1 0.452707 0.0235511 0
28 1 0.438061 0.0426068 0
900 1 0.468952 0.00500041 0
30 1 0.475489 0.0282427 0
901 1 0.491854 0.00956642 0
931 1 0.499075 0.035075 0
31 1 0.0344347 0.0455367 0
989 1 0.00695089 0.0779367 0
61 1 0.029351 0.0700163 0
960 1 0.0128337 0.0535691 0
62 1 0.0460744 0.0868364 0
32 1 0.0512079 0.0615492 0
63 1 0.0685277 0.0782798 0
34 1 0.0731923 0.0532244 0
35 1 0.0946803 0.0461327 0
65 1 0.0905716 0.0714663 0
36 1 0.111879 0.061816 0
66 1 0.107057 0.0880761 0
69 1 0.155427 0.0468546 0
67 1 0.128262 0.0795211 0
38 1 0.133343 0.0547098 0
68 1 0.149955 0.0720814 0
70 1 0.16631 0.0888679 0
71 1 0.171775 0.065174 0
72 1 0.188871 0.0817681 0
42 1 0.19358 0.0580084 0
73 1 0.210504 0.0742804 0
43 1 0.215119 0.0491904 0
44 1 0.232218 0.0661858 0
105 1 0.227892 0.0911994 0
74 1 0.250357 0.0832628 0
75 1 0.253664 0.0583712 0
76 1 0.273615 0.0733611 0
77 1 0.275123 0.0488345 0
48 1 0.296506 0.0524342 0
79 1 0.302386 0.0756391 0
50 1 0.319008 0.0559374 0
81 1 0.324549 0.0810299 0
52 1 0.340236 0.0624611 0
83 1 0.36274 0.0687824 0
82 1 0.346345 0.0864951 0
53 1 0.378184 0.0498667 0
54 1 0.384589 0.0737642 0
55 1 0.400553 0.0553087 0
56 1 0.40721 0.0793703 0
57 1 0.422856 0.0604019 0
58 1 0.445605 0.0667727 0
87 1 0.429437 0.0849817 0
59 1 0.460778 0.0478168 0
89 1 0.468833 0.0713072 0
60 1 0.483826 0.0532749 0
961 1 0.490654 0.0782175 0
990 1 0.0244874 0.0943815 0
1020 1 0.018893 0.119193 0
1019 1 0.00230601 0.101543 0
91 1 0.0404766 0.111679 0
92 1 0.0582411 0.127867 0
93 1 0.0628884 0.104043 0
94 1 0.0795525 0.119903 0
64 1 0.0843048 0.0957866 0
95 1 0.101443 0.112542 0
96 1 0.118586 0.129237 0
97 1 0.122908 0.104683 0
98 1 0.139817 0.120889 0
99 1 0.14488 0.0968192 0
100 1 0.161916 0.113907 0
130 1 0.178539 0.130493 0
101 1 0.183098 0.10613 0
102 1 0.200115 0.123226 0
103 1 0.205102 0.0987602 0
104 1 0.223267 0.11697 0
106 1 0.245215 0.107661 0
137 1 0.253153 0.130658 0
107 1 0.269256 0.110285 0
78 1 0.286297 0.0940113 0
109 1 0.29218 0.117964 0
80 1 0.308577 0.100565 0
110 1 0.314238 0.124432 0
111 1 0.330224 0.104972 0
141 1 0.336383 0.130547 0
113 1 0.352559 0.111115 0
84 1 0.368715 0.0921519 0
112 1 0.373946 0.116751 0
143 1 0.358226 0.135264 0
85 1 0.390802 0.0985413 0
115 1 0.39761 0.121523 0
86 1 0.412905 0.103344 0
88 1 0.452187 0.0898785 0
116 1 0.420097 0.128804 0
117 1 0.435026 0.109247 0
119 1 0.457578 0.114841 0
118 1 0.441954 0.133956 0
90 1 0.474493 0.0966847 0
120 1 0.480637 0.120612 0
991 1 0.496977 0.102506 0
121 1 0.0358881 0.136408 0
1079 1 0.00876969 0.168577 0
151 1 0.0321661 0.161148 0
1050 1 0.0147619 0.143965 0
152 1 0.0494076 0.177817 0
122 1 0.0539307 0.153646 0
153 1 0.0706334 0.170747 0
123 1 0.0752355 0.144531 0
125 1 0.0966953 0.137333 0
124 1 0.0917108 0.162373 0
126 1 0.11295 0.152642 0
155 1 0.108899 0.178267 0
157 1 0.130257 0.169541 0
127 1 0.135541 0.145863 0
129 1 0.1574 0.138988 0
128 1 0.152253 0.163138 0
159 1 0.174532 0.154826 0
131 1 0.19763 0.158931 0
132 1 0.182019 0.177825 0
135 1 0.236944 0.147614 0
133 1 0.214321 0.141765 0
134 1 0.220392 0.166096 0
165 1 0.242297 0.171965 0
108 1 0.275945 0.136678 0
136 1 0.259467 0.154445 0
138 1 0.281138 0.160833 0
167 1 0.264015 0.178962 0
139 1 0.297906 0.143123 0
169 1 0.303411 0.167692 0
140 1 0.320434 0.1491 0
171 1 0.3262 0.172688 0
142 1 0.34216 0.154443 0
173 1 0.365411 0.158982 0
172 1 0.34797 0.17806 0
114 1 0.381172 0.140531 0
144 1 0.386994 0.164465 0
145 1 0.403965 0.146304 0
146 1 0.409658 0.171364 0
147 1 0.425311 0.152718 0
148 1 0.447574 0.158978 0
177 1 0.431875 0.177267 0
1051 1 0.491571 0.169747 0
149 1 0.464701 0.139194 0
150 1 0.470078 0.163734 0
1021 1 0.487225 0.145587 0
1080 1 0.0263917 0.184923 0
1109 1 0.0222882 0.212471 0
1078 1 0.00450322 0.19272 0
181 1 0.0441955 0.201642 0
183 1 0.0663852 0.195763 0
182 1 0.0501427 0.22546 0
185 1 0.0865391 0.214251 0
154 1 0.0881897 0.188003 0
186 1 0.112196 0.224864 0
156 1 0.106786 0.202205 0
158 1 0.128875 0.2058 0
160 1 0.144826 0.18832 0
189 1 0.150585 0.213223 0
161 1 0.166916 0.195744 0
191 1 0.173113 0.219924 0
163 1 0.20469 0.18403 0
162 1 0.189093 0.202628 0
192 1 0.194854 0.226353 0
193 1 0.210819 0.207778 0
164 1 0.226749 0.191013 0
195 1 0.232379 0.214821 0
166 1 0.24813 0.197208 0
196 1 0.255241 0.220963 0
197 1 0.271112 0.203236 0
168 1 0.287119 0.185018 0
198 1 0.277868 0.22731 0
199 1 0.294086 0.20864 0
170 1 0.310171 0.190896 0
200 1 0.316912 0.215942 0
201 1 0.332547 0.19648 0
202 1 0.339153 0.221539 0
203 1 0.354225 0.20286 0
174 1 0.371444 0.18449 0
233 1 0.360367 0.227014 0
204 1 0.376895 0.208993 0
175 1 0.393228 0.190252 0
205 1 0.399111 0.214333 0
176 1 0.415439 0.194942 0
179 1 0.453586 0.182651 0
207 1 0.421525 0.220443 0
178 1 0.437361 0.201484 0
209 1 0.459578 0.206612 0
180 1 0.475655 0.188292 0
1081 1 0.482687 0.213742 0
1052 1 0.498659 0.195069 0
211 1 0.0352912 0.242955 0
1140 1 0.0191723 0.260998 0
212 1 0.0405849 0.267979 0
1110 1 0.0136493 0.236412 0
213 1 0.0567106 0.24991 0
184 1 0.0733373 0.233985 0
214 1 0.0791722 0.258488 0
215 1 0.0953907 0.240544 0
216 1 0.101039 0.2648 0
217 1 0.118146 0.249008 0
218 1 0.123844 0.271766 0
187 1 0.133556 0.230553 0
188 1 0.140607 0.254349 0
190 1 0.156696 0.237008 0
220 1 0.161723 0.261344 0
221 1 0.17899 0.243278 0
222 1 0.184694 0.26844 0
223 1 0.200302 0.250684 0
194 1 0.216311 0.232121 0
224 1 0.223071 0.256491 0
225 1 0.238359 0.238721 0
226 1 0.244769 0.263323 0
227 1 0.26136 0.245271 0
228 1 0.285317 0.251075 0
257 1 0.268728 0.269029 0
229 1 0.300434 0.233052 0
230 1 0.307846 0.258363 0
231 1 0.322105 0.240017 0
261 1 0.330245 0.264234 0
232 1 0.3449 0.245976 0
234 1 0.367285 0.252574 0
263 1 0.352143 0.271453 0
235 1 0.38204 0.233255 0
265 1 0.389396 0.25708 0
206 1 0.404955 0.23865 0
236 1 0.412067 0.262782 0
208 1 0.443857 0.22478 0
237 1 0.427495 0.244558 0
239 1 0.449953 0.249878 0
238 1 0.433582 0.268048 0
210 1 0.465925 0.230926 0
240 1 0.472215 0.256087 0
1111 1 0.487807 0.238298 0
1112 1 0.494703 0.262019 0
1139 1 0.00351696 0.278813 0
1169 1 0.00939355 0.30265 0
241 1 0.0254187 0.286045 0
271 1 0.0310502 0.310302 0
242 1 0.0464367 0.292626 0
243 1 0.0618804 0.275368 0
244 1 0.0679641 0.299792 0
273 1 0.0524674 0.318118 0
245 1 0.0843771 0.282488 0
246 1 0.0901564 0.306321 0
247 1 0.107265 0.289171 0
248 1 0.112869 0.31297 0
249 1 0.129119 0.296335 0
219 1 0.145872 0.278935 0
250 1 0.150987 0.302229 0
251 1 0.167896 0.286389 0
253 1 0.206553 0.273833 0
281 1 0.174616 0.310084 0
252 1 0.19046 0.292348 0
283 1 0.196697 0.316074 0
254 1 0.212584 0.29857 0
255 1 0.228728 0.280624 0
285 1 0.235172 0.305011 0
256 1 0.251579 0.286596 0
287 1 0.257189 0.311106 0
258 1 0.273721 0.294058 0
259 1 0.290633 0.275698 0
289 1 0.295843 0.299889 0
260 1 0.313067 0.282568 0
291 1 0.318143 0.306424 0
262 1 0.335861 0.288742 0
293 1 0.358044 0.295228 0
292 1 0.340749 0.31278 0
264 1 0.374841 0.275728 0
295 1 0.380247 0.300193 0
266 1 0.396743 0.281326 0
297 1 0.401882 0.306282 0
267 1 0.418302 0.287331 0
268 1 0.440381 0.292855 0
298 1 0.423558 0.312989 0
269 1 0.455284 0.274876 0
270 1 0.462719 0.29847 0
1141 1 0.478536 0.280166 0
300 1 0.484205 0.306392 0
1200 1 0.0368177 0.33545 0
301 1 0.0424396 0.359706 0
1229 1 0.0199533 0.351508 0
1170 1 0.0143017 0.327363 0
272 1 0.0582434 0.34236 0
275 1 0.0744731 0.324893 0
274 1 0.0808098 0.348387 0
276 1 0.0964962 0.331551 0
305 1 0.102507 0.355288 0
277 1 0.118617 0.337789 0
307 1 0.125264 0.361547 0
279 1 0.13486 0.320786 0
278 1 0.141269 0.34516 0
280 1 0.157122 0.326635 0
311 1 0.163222 0.351008 0
282 1 0.179719 0.334103 0
312 1 0.186311 0.358283 0
313 1 0.203815 0.340516 0
284 1 0.219196 0.322186 0
315 1 0.225987 0.347288 0
286 1 0.241946 0.329603 0
316 1 0.247976 0.353987 0
288 1 0.279386 0.318588 0
317 1 0.263968 0.335546 0
319 1 0.28672 0.343083 0
318 1 0.270051 0.360841 0
290 1 0.302161 0.324952 0
320 1 0.308782 0.349526 0
321 1 0.325022 0.330804 0
322 1 0.33062 0.354677 0
323 1 0.348056 0.336809 0
294 1 0.363714 0.318894 0
325 1 0.369217 0.343918 0
324 1 0.35331 0.361711 0
296 1 0.385598 0.324532 0
326 1 0.391218 0.349314 0
327 1 0.407466 0.330359 0
328 1 0.413529 0.354758 0
299 1 0.447039 0.316839 0
329 1 0.429818 0.33613 0
359 1 0.453261 0.342216 0
358 1 0.436667 0.360484 0
330 1 0.469253 0.324198 0
360 1 0.475426 0.349052 0
1201 1 0.49163 0.330816 0
1231 1 0.496988 0.355375 0
1230 1 0.0256074 0.376846 0
331 1 0.0314679 0.401065 0
1260 1 0.00925556 0.393994 0
1259 1 0.00384741 0.369061 0
302 1 0.0478758 0.383716 0
303 1 0.0640303 0.365862 0
333 1 0.0702117 0.389859 0
332 1 0.0529773 0.407866 0
304 1 0.0867817 0.372435 0
335 1 0.0924412 0.397939 0
306 1 0.109404 0.379505 0
337 1 0.114187 0.404181 0
308 1 0.13035 0.387703 0
309 1 0.147294 0.368931 0
339 1 0.153247 0.393752 0
310 1 0.169802 0.375792 0
341 1 0.176755 0.400671 0
343 1 0.192365 0.382595 0
342 1 0.199413 0.406462 0
314 1 0.208913 0.364618 0
344 1 0.216099 0.387902 0
345 1 0.232185 0.371964 0
346 1 0.238604 0.396267 0
347 1 0.254314 0.377686 0
377 1 0.261058 0.402715 0
348 1 0.276754 0.384358 0
349 1 0.292693 0.366971 0
350 1 0.299208 0.391248 0
351 1 0.315738 0.373647 0
381 1 0.320754 0.397552 0
353 1 0.337953 0.37936 0
354 1 0.359194 0.386421 0
352 1 0.342647 0.403804 0
355 1 0.375358 0.368633 0
356 1 0.381695 0.392817 0
357 1 0.398035 0.373572 0
386 1 0.404251 0.398286 0
387 1 0.420397 0.379059 0
389 1 0.441765 0.385442 0
388 1 0.425876 0.403785 0
1232 1 0.45897 0.367627 0
1262 1 0.481321 0.373075 0
1261 1 0.463595 0.392397 0
1293 1 0.486795 0.396845 0
361 1 0.0381648 0.425668 0
391 1 0.0214236 0.442016 0
1290 1 0.0161621 0.418563 0
362 1 0.0436001 0.450423 0
363 1 0.0599712 0.432633 0
334 1 0.0757811 0.41486 0
365 1 0.0822765 0.439265 0
336 1 0.0982201 0.422152 0
366 1 0.103918 0.446744 0
367 1 0.120108 0.427747 0
368 1 0.126737 0.451805 0
338 1 0.136293 0.411011 0
369 1 0.143075 0.434763 0
340 1 0.159925 0.417666 0
370 1 0.16608 0.441665 0
371 1 0.183248 0.424094 0
401 1 0.188228 0.449128 0
372 1 0.205437 0.431187 0
373 1 0.222408 0.413007 0
374 1 0.226928 0.438655 0
375 1 0.244738 0.420646 0
405 1 0.250345 0.445512 0
378 1 0.283602 0.409284 0
376 1 0.266656 0.427401 0
409 1 0.288555 0.43324 0
407 1 0.271923 0.45178 0
379 1 0.305404 0.415973 0
380 1 0.310472 0.440432 0
382 1 0.327445 0.423137 0
413 1 0.331818 0.447424 0
383 1 0.34923 0.429152 0
385 1 0.365418 0.410754 0
414 1 0.370757 0.435 0
412 1 0.354716 0.452576 0
384 1 0.387997 0.416789 0
415 1 0.39359 0.440931 0
417 1 0.410087 0.423222 0
416 1 0.415779 0.446757 0
419 1 0.447904 0.409301 0
418 1 0.432084 0.428278 0
390 1 0.454218 0.433449 0
447 1 0.438049 0.453285 0
1292 1 0.492613 0.422498 0
1291 1 0.470154 0.41619 0
1321 1 0.476386 0.439783 0
421 1 0.011165 0.484707 0
392 1 0.0272412 0.467326 0
422 1 0.0329101 0.49145 0
1320 1 0.00573578 0.459454 0
393 1 0.0495673 0.474833 0
364 1 0.065236 0.456629 0
394 1 0.0714581 0.481702 0
395 1 0.0874825 0.463056 0
396 1 0.0937049 0.48873 0
397 1 0.109914 0.470945 0
427 1 0.114922 0.495309 0
398 1 0.132397 0.475253 0
399 1 0.149435 0.458304 0
429 1 0.153678 0.481901 0
400 1 0.17051 0.46599 0
431 1 0.177159 0.489712 0
402 1 0.19454 0.473487 0
432 1 0.199891 0.497431 0
403 1 0.210608 0.4564 0
433 1 0.216796 0.480835 0
404 1 0.234523 0.462388 0
435 1 0.23827 0.488497 0
406 1 0.255147 0.47123 0
436 1 0.261194 0.495177 0
408 1 0.27788 0.476224 0
410 1 0.293922 0.457899 0
441 1 0.299728 0.48463 0
411 1 0.315511 0.466289 0
440 1 0.321697 0.49199 0
442 1 0.338406 0.471629 0
473 1 0.360601 0.47806 0
471 1 0.342883 0.496528 0
443 1 0.37834 0.460407 0
444 1 0.383063 0.484696 0
445 1 0.399837 0.464638 0
475 1 0.40491 0.490004 0
448 1 0.443114 0.477544 0
446 1 0.421459 0.470955 0
477 1 0.426767 0.495737 0
1351 1 0.488913 0.488906 0
450 1 0.483124 0.463878 0
449 1 0.465745 0.483363 0
420 1 0.460387 0.45792 0
929 1 0.000671206 0.0117106 0
1322 1 0.499554 0.44636 0
453 1 0.0380044 0.516483 0
452 1 0.0206844 0.533218 0
451 1 0.0165656 0.508479 0
454 1 0.0427165 0.540674 0
424 1 0.0599067 0.524137 0
455 1 0.0812747 0.532193 0
425 1 0.0774721 0.506881 0
423 1 0.0556058 0.499019 0
426 1 0.0992659 0.514031 0
456 1 0.102914 0.539091 0
457 1 0.121013 0.521054 0
459 1 0.142948 0.522383 0
460 1 0.16496 0.529683 0
430 1 0.15971 0.50539 0
428 1 0.137294 0.499635 0
461 1 0.18203 0.51457 0
462 1 0.187494 0.538987 0
463 1 0.205112 0.522898 0
434 1 0.221946 0.506073 0
464 1 0.229326 0.53012 0
465 1 0.244771 0.512869 0
466 1 0.250579 0.53766 0
437 1 0.266998 0.520463 0
467 1 0.289496 0.528971 0
439 1 0.283574 0.502968 0
497 1 0.272484 0.545977 0
438 1 0.305408 0.509431 0
468 1 0.311405 0.535218 0
469 1 0.327223 0.516224 0
499 1 0.334652 0.539929 0
470 1 0.350168 0.521469 0
472 1 0.365114 0.502648 0
503 1 0.371494 0.528981 0
474 1 0.387696 0.510472 0
505 1 0.394189 0.533553 0
476 1 0.410518 0.514472 0
507 1 0.432931 0.521676 0
506 1 0.416713 0.540729 0
478 1 0.449315 0.502045 0
509 1 0.439891 0.545578 0
480 1 0.455633 0.525938 0
479 1 0.472355 0.507196 0
510 1 0.477882 0.531997 0
1381 1 0.495632 0.513496 0
482 1 0.0297852 0.581727 0
483 1 0.0251544 0.55716 0
1410 1 0.00814083 0.573541 0
481 1 0.00282024 0.548619 0
513 1 0.0472794 0.565918 0
485 1 0.0640226 0.549118 0
484 1 0.0690554 0.574037 0
458 1 0.124518 0.547046 0
486 1 0.0865257 0.557482 0
515 1 0.0910337 0.582301 0
487 1 0.109083 0.565858 0
489 1 0.148553 0.545828 0
488 1 0.130118 0.577292 0
490 1 0.15173 0.568972 0
491 1 0.169753 0.553944 0
521 1 0.17386 0.576906 0
492 1 0.193667 0.562531 0
523 1 0.193973 0.586991 0
493 1 0.210822 0.546113 0
494 1 0.21557 0.570585 0
495 1 0.233081 0.554437 0
525 1 0.236692 0.579792 0
496 1 0.254878 0.562574 0
526 1 0.258751 0.587942 0
527 1 0.276015 0.571473 0
498 1 0.293999 0.552772 0
529 1 0.298586 0.578357 0
500 1 0.316295 0.559259 0
530 1 0.321639 0.58386 0
501 1 0.356196 0.547244 0
531 1 0.338966 0.565034 0
533 1 0.362768 0.571255 0
532 1 0.34667 0.589226 0
502 1 0.378574 0.552888 0
534 1 0.385363 0.576729 0
504 1 0.401375 0.558702 0
535 1 0.407792 0.583608 0
508 1 0.424142 0.565068 0
537 1 0.430583 0.58911 0
539 1 0.446434 0.570666 0
1442 1 0.493676 0.580596 0
540 1 0.463206 0.551034 0
569 1 0.470115 0.575569 0
1441 1 0.487026 0.556511 0
512 1 0.034 0.607085 0
542 1 0.0374259 0.630922 0
541 1 0.0149134 0.622202 0
511 1 0.012077 0.597334 0
514 1 0.0515461 0.591344 0
543 1 0.0555548 0.615804 0
545 1 0.0729063 0.598945 0
546 1 0.0761086 0.624774 0
517 1 0.112619 0.592732 0
516 1 0.0941822 0.608701 0
547 1 0.0967795 0.633859 0
518 1 0.114766 0.619016 0
519 1 0.133834 0.604919 0
548 1 0.136899 0.631024 0
520 1 0.154059 0.593025 0
549 1 0.155677 0.616976 0
522 1 0.175656 0.602108 0
551 1 0.177544 0.626221 0
553 1 0.197005 0.610975 0
552 1 0.198782 0.635652 0
524 1 0.216064 0.595289 0
554 1 0.218209 0.620107 0
555 1 0.237337 0.604299 0
556 1 0.238978 0.629648 0
557 1 0.259433 0.613281 0
528 1 0.281268 0.596551 0
558 1 0.280919 0.623476 0
559 1 0.305142 0.601757 0
561 1 0.329008 0.606806 0
560 1 0.301137 0.633565 0
562 1 0.352613 0.613853 0
563 1 0.368839 0.595077 0
565 1 0.376294 0.619024 0
536 1 0.391936 0.601272 0
566 1 0.400202 0.625085 0
567 1 0.415105 0.607195 0
568 1 0.438763 0.612902 0
597 1 0.423471 0.631472 0
538 1 0.453916 0.593813 0
599 1 0.445814 0.636792 0
1471 1 0.499757 0.605069 0
570 1 0.477103 0.59872 0
600 1 0.461754 0.617038 0
1501 1 0.483599 0.623083 0
573 1 0.0389766 0.655455 0
572 1 0.0198662 0.670799 0
571 1 0.0178724 0.646204 0
603 1 0.0417041 0.679509 0
544 1 0.0580518 0.640881 0
575 1 0.0789166 0.650271 0
574 1 0.0597829 0.664899 0
605 1 0.081507 0.6744 0
577 1 0.117068 0.643901 0
576 1 0.0999033 0.660097 0
578 1 0.120956 0.670483 0
579 1 0.13962 0.656901 0
550 1 0.158529 0.641069 0
580 1 0.16107 0.666918 0
609 1 0.141361 0.681638 0
581 1 0.17946 0.651421 0
611 1 0.181589 0.676761 0
582 1 0.200687 0.661346 0
583 1 0.219562 0.644333 0
584 1 0.222467 0.671324 0
585 1 0.240406 0.655776 0
615 1 0.242624 0.681006 0
587 1 0.261033 0.638607 0
586 1 0.261821 0.663838 0
589 1 0.282455 0.648245 0
588 1 0.281039 0.6746 0
590 1 0.302565 0.659384 0
591 1 0.323167 0.644492 0
621 1 0.324964 0.66974 0
593 1 0.344755 0.656834 0
564 1 0.360515 0.637921 0
594 1 0.367885 0.661941 0
595 1 0.38298 0.643241 0
625 1 0.389888 0.667354 0
596 1 0.406761 0.64962 0
627 1 0.413836 0.674091 0
598 1 0.430508 0.655012 0
628 1 0.453808 0.660438 0
657 1 0.437934 0.679014 0
629 1 0.468596 0.641594 0
630 1 0.47589 0.667311 0
1502 1 0.490177 0.64758 0
1533 1 0.498119 0.671066 0
631 1 0.00111906 0.715033 0
602 1 0.0211412 0.704044 0
601 1 0.00337895 0.688368 0
633 1 0.0431816 0.703694 0
604 1 0.0624477 0.689716 0
635 1 0.064536 0.714648 0
606 1 0.0831855 0.699746 0
636 1 0.0844632 0.725241 0
607 1 0.101745 0.685402 0
637 1 0.104144 0.710654 0
608 1 0.122532 0.696436 0
638 1 0.124493 0.721157 0
639 1 0.143925 0.706891 0
610 1 0.162857 0.691333 0
641 1 0.165056 0.716533 0
612 1 0.184163 0.701963 0
613 1 0.203446 0.68652 0
643 1 0.205748 0.712483 0
642 1 0.185811 0.726386 0
614 1 0.224397 0.69687 0
645 1 0.225444 0.72212 0
616 1 0.244651 0.705472 0
617 1 0.263352 0.689713 0
647 1 0.264945 0.714993 0
618 1 0.283961 0.700136 0
649 1 0.285536 0.725279 0
619 1 0.301895 0.684919 0
620 1 0.304238 0.710594 0
622 1 0.321862 0.694024 0
651 1 0.325201 0.719984 0
592 1 0.352223 0.680994 0
653 1 0.341892 0.703751 0
624 1 0.363912 0.709131 0
654 1 0.347425 0.727592 0
623 1 0.374586 0.687709 0
655 1 0.385817 0.714262 0
626 1 0.398817 0.69393 0
686 1 0.408178 0.717538 0
656 1 0.421581 0.697292 0
658 1 0.445175 0.703017 0
687 1 0.430431 0.722648 0
659 1 0.460739 0.685217 0
660 1 0.467071 0.709758 0
1531 1 0.482648 0.690863 0
1561 1 0.489943 0.715302 0
632 1 0.0191428 0.729642 0
664 1 0.0346254 0.748542 0
663 1 0.0117619 0.755569 0
634 1 0.0452261 0.727428 0
695 1 0.0521566 0.764315 0
665 1 0.0650261 0.740456 0
666 1 0.0867264 0.749245 0
667 1 0.105547 0.735978 0
668 1 0.107768 0.761767 0
669 1 0.126569 0.747445 0
640 1 0.14602 0.731144 0
670 1 0.147018 0.757676 0
699 1 0.128246 0.773389 0
671 1 0.166628 0.741356 0
672 1 0.167594 0.767126 0
673 1 0.187337 0.751494 0
644 1 0.207031 0.73645 0
674 1 0.208086 0.761388 0
646 1 0.246947 0.730431 0
675 1 0.227914 0.746998 0
677 1 0.248929 0.75548 0
705 1 0.228557 0.771721 0
648 1 0.267763 0.74101 0
678 1 0.270909 0.76687 0
679 1 0.289129 0.750672 0
650 1 0.307175 0.73686 0
681 1 0.312354 0.760939 0
652 1 0.331164 0.744713 0
683 1 0.353359 0.751777 0
685 1 0.369855 0.732829 0
682 1 0.33725 0.7701 0
715 1 0.392373 0.737107 0
684 1 0.37625 0.756288 0
714 1 0.398944 0.761396 0
717 1 0.416096 0.741386 0
689 1 0.45192 0.728058 0
688 1 0.438312 0.746919 0
716 1 0.421937 0.765344 0
718 1 0.444402 0.771583 0
719 1 0.460144 0.752718 0
690 1 0.474253 0.73343 0
1591 1 0.482486 0.758391 0
1562 1 0.497011 0.739807 0
662 1 0.028772 0.772411 0
693 1 0.0239523 0.796495 0
691 1 0.00640498 0.780637 0
721 1 0.00285849 0.805111 0
723 1 0.0405958 0.812994 0
694 1 0.0451911 0.78919 0
696 1 0.0678046 0.782535 0
725 1 0.0624128 0.805799 0
697 1 0.0888908 0.773705 0
727 1 0.0855206 0.798296 0
728 1 0.105333 0.814365 0
698 1 0.108123 0.787561 0
700 1 0.128399 0.799332 0
701 1 0.149234 0.782835 0
731 1 0.151065 0.80763 0
702 1 0.170072 0.792197 0
703 1 0.188014 0.776836 0
733 1 0.191047 0.801559 0
704 1 0.209314 0.785898 0
735 1 0.212904 0.812196 0
706 1 0.230702 0.796875 0
676 1 0.250341 0.781088 0
737 1 0.252254 0.805344 0
707 1 0.271012 0.791144 0
738 1 0.273684 0.815709 0
708 1 0.291947 0.799838 0
709 1 0.292807 0.775779 0
710 1 0.312054 0.808677 0
680 1 0.316704 0.784439 0
741 1 0.332775 0.814213 0
713 1 0.361499 0.774438 0
711 1 0.346344 0.79388 0
712 1 0.368396 0.798891 0
743 1 0.384348 0.781511 0
745 1 0.391767 0.804411 0
746 1 0.407077 0.784718 0
775 1 0.414084 0.808527 0
747 1 0.429321 0.790314 0
749 1 0.451173 0.796351 0
748 1 0.435951 0.814223 0
1622 1 0.496104 0.807553 0
720 1 0.466637 0.776968 0
1621 1 0.473537 0.801858 0
1592 1 0.488081 0.782777 0
692 1 0.0196894 0.822667 0
751 1 0.0371676 0.838526 0
1680 1 0.0156789 0.846724 0
753 1 0.0534752 0.855216 0
722 1 0.0586418 0.830115 0
724 1 0.0757312 0.847564 0
726 1 0.0807387 0.822107 0
757 1 0.0976323 0.83872 0
756 1 0.114115 0.856942 0
729 1 0.133611 0.824068 0
759 1 0.135942 0.849521 0
730 1 0.155534 0.8351 0
732 1 0.173007 0.818232 0
761 1 0.172458 0.855252 0
763 1 0.194955 0.826317 0
762 1 0.195235 0.850565 0
734 1 0.217237 0.838077 0
736 1 0.23335 0.821662 0
765 1 0.23765 0.847119 0
767 1 0.25465 0.830269 0
766 1 0.259879 0.853406 0
768 1 0.278421 0.840104 0
739 1 0.294933 0.824827 0
769 1 0.299871 0.850199 0
740 1 0.31767 0.831891 0
770 1 0.322557 0.856682 0
742 1 0.354706 0.818872 0
771 1 0.339331 0.837691 0
773 1 0.361455 0.843308 0
801 1 0.345357 0.861947 0
744 1 0.376692 0.823003 0
803 1 0.384112 0.847831 0
774 1 0.398578 0.828479 0
776 1 0.406264 0.853156 0
777 1 0.421284 0.833232 0
779 1 0.442918 0.839759 0
778 1 0.427706 0.859048 0
750 1 0.458699 0.820239 0
809 1 0.449495 0.863933 0
1651 1 0.480947 0.827275 0
780 1 0.465569 0.845407 0
1652 1 0.487966 0.851619 0
752 1 0.0320086 0.863431 0
781 1 0.00988048 0.870761 0
782 1 0.0257343 0.887913 0
811 1 0.00436215 0.894641 0
813 1 0.0431047 0.904518 0
783 1 0.0480186 0.880422 0
784 1 0.0649563 0.896716 0
754 1 0.0701464 0.871673 0
755 1 0.0917609 0.864994 0
785 1 0.0869904 0.889229 0
787 1 0.109198 0.881274 0
786 1 0.104317 0.905913 0
788 1 0.125481 0.898063 0
760 1 0.152708 0.866356 0
758 1 0.131382 0.874133 0
789 1 0.147786 0.890599 0
790 1 0.16459 0.906576 0
791 1 0.169505 0.881959 0
823 1 0.186382 0.899033 0
792 1 0.191274 0.873954 0
793 1 0.208421 0.890457 0
764 1 0.214257 0.864136 0
795 1 0.229925 0.882929 0
825 1 0.247415 0.899942 0
796 1 0.251402 0.875612 0
827 1 0.269138 0.891918 0
797 1 0.2807 0.866982 0
798 1 0.291522 0.892647 0
799 1 0.306276 0.874335 0
829 1 0.313952 0.898666 0
800 1 0.328745 0.880254 0
831 1 0.336353 0.904465 0
802 1 0.351572 0.885406 0
772 1 0.367465 0.866577 0
804 1 0.374356 0.891154 0
805 1 0.389943 0.872938 0
806 1 0.397558 0.896703 0
807 1 0.412691 0.877916 0
808 1 0.435233 0.883346 0
837 1 0.420128 0.902033 0
810 1 0.457207 0.89031 0
839 1 0.442146 0.907793 0
1681 1 0.470879 0.870113 0
1711 1 0.47943 0.894919 0
1682 1 0.494214 0.875131 0
812 1 0.0209839 0.912851 0
843 1 0.0385053 0.929646 0
841 1 0.0155151 0.936914 0
842 1 0.0321138 0.953271 0
815 1 0.0821425 0.913544 0
844 1 0.0541522 0.945832 0
814 1 0.0597222 0.921095 0
845 1 0.0767602 0.938598 0
816 1 0.0985903 0.931254 0
817 1 0.120227 0.922856 0
847 1 0.115171 0.947221 0
818 1 0.137192 0.939011 0
819 1 0.142963 0.914042 0
820 1 0.159457 0.931147 0
851 1 0.175835 0.947866 0
821 1 0.18135 0.923468 0
824 1 0.203605 0.916194 0
822 1 0.198004 0.940726 0
794 1 0.225428 0.907632 0
853 1 0.219697 0.932459 0
855 1 0.242235 0.924589 0
854 1 0.236719 0.949901 0
826 1 0.265177 0.916434 0
856 1 0.259117 0.942047 0
857 1 0.281932 0.935008 0
828 1 0.297766 0.917311 0
859 1 0.303891 0.941726 0
830 1 0.32017 0.923413 0
860 1 0.327601 0.947342 0
833 1 0.358056 0.910076 0
832 1 0.34277 0.92822 0
863 1 0.365681 0.932931 0
861 1 0.350175 0.953211 0
834 1 0.381394 0.914448 0
865 1 0.387659 0.939555 0
835 1 0.40364 0.920336 0
836 1 0.410532 0.94482 0
838 1 0.425965 0.925968 0
869 1 0.447591 0.931865 0
867 1 0.432927 0.950908 0
1712 1 0.486447 0.917706 0
1741 1 0.470136 0.937928 0
840 1 0.464322 0.914106 0
1742 1 0.492689 0.941601 0
871 1 0.0267734 0.978205 0
1770 1 0.00905172 0.961316 0
1800 1 0.00562055 0.986395 0
872 1 0.043481 0.995631 0
873 1 0.0494837 0.971294 0
874 1 0.0662748 0.987919 0
875 1 0.0707086 0.962688 0
846 1 0.0933924 0.955295 0
876 1 0.0880969 0.979898 0
877 1 0.110142 0.97222 0
7 1 0.104967 0.99643 0
849 1 0.153958 0.955913 0
878 1 0.127085 0.989758 0
848 1 0.131713 0.963722 0
879 1 0.148786 0.97997 0
881 1 0.164699 0.996896 0
850 1 0.17094 0.972279 0
11 1 0.186781 0.98954 0
852 1 0.192332 0.965169 0
882 1 0.209317 0.981585 0
883 1 0.214819 0.958027 0
884 1 0.231111 0.973715 0
886 1 0.247285 0.991182 0
13 1 0.225021 0.999695 0
885 1 0.25368 0.966089 0
17 1 0.269506 0.984791 0
887 1 0.277075 0.96098 0
888 1 0.294251 0.982735 0
858 1 0.3111 0.96465 0
889 1 0.317856 0.988828 0
891 1 0.33396 0.97104 0
890 1 0.340473 0.994622 0
862 1 0.356746 0.976756 0
864 1 0.372499 0.958396 0
893 1 0.38012 0.98213 0
895 1 0.395231 0.963556 0
896 1 0.401972 0.987952 0
866 1 0.41702 0.968648 0
898 1 0.446237 0.999491 0
870 1 0.454404 0.956984 0
897 1 0.42428 0.992914 0
868 1 0.440051 0.975833 0
899 1 0.461591 0.98162 0
1772 1 0.484378 0.985043 0
1771 1 0.476651 0.961381 0
1380 1 -0.00153417 0.524364 0
1773 1 0.500251 0.966202 0
902 1 0.514751 0.0158841 0
933 1 0.521159 0.0410621 0
904 1 0.536413 0.0215943 0
906 1 0.551475 0.00193112 0
935 1 0.558655 0.0258915 0
908 1 0.57361 0.00605831 0
937 1 0.580624 0.0317629 0
939 1 0.595828 0.0118694 0
938 1 0.60334 0.0358069 0
940 1 0.618293 0.0153164 0
942 1 0.726992 0.0398456 0
912 1 0.733209 0.0145869 0
943 1 0.749769 0.0313164 0
913 1 0.754131 0.00606265 0
914 1 0.771782 0.0225107 0
947 1 0.788465 0.0397768 0
1379 1 0.972442 0.493393 0
916 1 0.793858 0.0153486 0
918 1 0.810366 0.0319916 0
917 1 0.815479 0.0078639 0
919 1 0.832125 0.0250592 0
920 1 0.849908 0.0412845 0
1790 1 0.854641 0.0168053 0
951 1 0.872243 0.0335709 0
1788 1 0.837184 0.000987321 0
921 1 0.877925 0.00988743 0
922 1 0.89558 0.0270592 0
953 1 0.91251 0.0433468 0
923 1 0.899805 0.00276098 0
924 1 0.917259 0.0183271 0
955 1 0.933927 0.0359311 0
926 1 0.956476 0.0276008 0
925 1 0.939581 0.0109956 0
957 1 0.973914 0.0448572 0
928 1 0.978937 0.0192277 0
959 1 0.995178 0.0372711 0
927 1 0.961364 0.00265253 0
1348 1 0.966336 0.46981 0
932 1 0.506027 0.0598398 0
963 1 0.528476 0.0652463 0
962 1 0.512918 0.083956 0
964 1 0.535922 0.0891899 0
934 1 0.544344 0.0463947 0
965 1 0.551541 0.0711484 0
936 1 0.566365 0.0515123 0
966 1 0.573345 0.0758936 0
967 1 0.588901 0.0560129 0
968 1 0.59692 0.0807362 0
969 1 0.610565 0.0599791 0
971 1 0.722514 0.0646986 0
944 1 0.744783 0.055763 0
973 1 0.739502 0.081126 0
970 1 0.717789 0.0901457 0
945 1 0.766301 0.047615 0
975 1 0.761256 0.0734309 0
946 1 0.782779 0.0651027 0
974 1 0.777604 0.0907239 0
949 1 0.827268 0.0484623 0
976 1 0.799954 0.080689 0
948 1 0.805362 0.0567222 0
977 1 0.821863 0.073595 0
979 1 0.844021 0.0660585 0
950 1 0.86794 0.057928 0
980 1 0.862042 0.0815773 0
978 1 0.839307 0.089753 0
952 1 0.890245 0.0508863 0
981 1 0.884938 0.0756172 0
983 1 0.907171 0.068416 0
984 1 0.923285 0.0863556 0
954 1 0.928097 0.0602697 0
956 1 0.950496 0.0529807 0
985 1 0.945013 0.076852 0
987 1 0.967375 0.0691383 0
988 1 0.98463 0.0849723 0
958 1 0.990737 0.0612136 0
992 1 0.50287 0.127032 0
993 1 0.518788 0.108316 0
1023 1 0.52511 0.132204 0
994 1 0.541323 0.113795 0
995 1 0.557474 0.0957557 0
996 1 0.564455 0.119445 0
997 1 0.579483 0.101809 0
1027 1 0.58609 0.127124 0
998 1 0.602453 0.107342 0
1029 1 0.608805 0.132401 0
1000 1 0.62458 0.114372 0
1030 1 0.646455 0.118888 0
999 1 0.662906 0.101537 0
1001 1 0.685852 0.10778 0
1032 1 0.669053 0.125946 0
1031 1 0.691385 0.131963 0
1002 1 0.709961 0.11294 0
972 1 0.733391 0.107929 0
1033 1 0.750428 0.124263 0
1003 1 0.75533 0.0977609 0
1004 1 0.772426 0.114936 0
1035 1 0.790111 0.131689 0
1005 1 0.795103 0.107071 0
1007 1 0.817158 0.0987391 0
1006 1 0.812355 0.123773 0
1008 1 0.834794 0.115351 0
1039 1 0.851892 0.131376 0
1009 1 0.857267 0.106015 0
1010 1 0.873493 0.124433 0
982 1 0.901781 0.0931803 0
1011 1 0.879215 0.0990752 0
1012 1 0.895609 0.116436 0
1043 1 0.913319 0.134128 0
1013 1 0.917908 0.1099 0
1014 1 0.935983 0.125857 0
1015 1 0.940473 0.101377 0
1017 1 0.957723 0.118322 0
986 1 0.963072 0.0935885 0
1018 1 0.980113 0.109941 0
1049 1 0.997127 0.127112 0
1047 1 0.975048 0.133668 0
1022 1 0.509205 0.15143 0
1053 1 0.515494 0.175248 0
1024 1 0.531638 0.156805 0
1025 1 0.548196 0.137937 0
1055 1 0.552942 0.163002 0
1026 1 0.569436 0.144285 0
1057 1 0.575185 0.168444 0
1028 1 0.592741 0.150437 0
1087 1 0.59746 0.174854 0
1058 1 0.614482 0.157133 0
1089 1 0.62002 0.180844 0
1059 1 0.631165 0.139208 0
1060 1 0.6366 0.163155 0
1061 1 0.652911 0.144165 0
1091 1 0.658986 0.168755 0
1062 1 0.674382 0.150208 0
1093 1 0.680648 0.175216 0
1064 1 0.697239 0.15546 0
1094 1 0.703427 0.179284 0
1063 1 0.713677 0.137649 0
1095 1 0.719904 0.161642 0
1034 1 0.736309 0.143826 0
1066 1 0.742588 0.168275 0
1065 1 0.767175 0.139647 0
1097 1 0.764443 0.175833 0
1037 1 0.830247 0.140287 0
1036 1 0.808117 0.148789 0
1067 1 0.825917 0.164634 0
1038 1 0.847487 0.156997 0
1040 1 0.87015 0.148996 0
1069 1 0.864579 0.173376 0
1068 1 0.843463 0.181829 0
1041 1 0.891898 0.14145 0
1071 1 0.886797 0.165636 0
1042 1 0.908886 0.158348 0
1073 1 0.926116 0.175461 0
1044 1 0.930526 0.1497 0
1016 1 0.952897 0.143227 0
1045 1 0.94704 0.167828 0
1046 1 0.969795 0.159331 0
1077 1 0.98665 0.176203 0
1048 1 0.991599 0.151443 0
1054 1 0.537259 0.181287 0
1083 1 0.521642 0.200273 0
1082 1 0.504465 0.219185 0