ITEM: TIMESTEP
435000
ITEM: NUMBER OF ATOMS
1800
ITEM: BOX BOUNDS pp pp pp
-1.6335426991683054e+01 1.8133542699168498e+02
1.1826529217466231e+00 1.6381734707825530e+02
0.0000000000000000e+00 5.5000000000000000e+00
ITEM: ATOMS id type xs ys zs
929 1 0.0339987 0.00712598 0
959 1 0.0292038 0.0313923 0
928 1 0.0148251 0.013014 0
957 1 0.00959791 0.0383305 0
930 1 0.0486208 0.0241387 0
31 1 0.0631936 0.041139 0
2 1 0.0682612 0.017834 0
33 1 0.0832185 0.0350948 0
3 1 0.0883328 0.0109696 0
4 1 0.103285 0.0275841 0
5 1 0.108058 0.00394229 0
6 1 0.122592 0.0213407 0
37 1 0.137372 0.0376985 0
8 1 0.142051 0.0141863 0
35 1 0.117628 0.045457 0
39 1 0.157209 0.0302973 0
880 1 0.162054 0.00659203 0
9 1 0.176702 0.0226584 0
40 1 0.19074 0.0409011 0
10 1 0.196807 0.0158382 0
41 1 0.210158 0.0335258 0
12 1 0.217195 0.00950791 0
14 1 0.230948 0.0271258 0
13 1 0.23618 0.00292436 0
45 1 0.245814 0.0438168 0
15 1 0.250237 0.0197637 0
46 1 0.269656 0.0166967 0
77 1 0.272638 0.0408089 0
47 1 0.288792 0.0236252 0
19 1 0.302418 0.00437255 0
49 1 0.307965 0.0300494 0
20 1 0.322134 0.0115876 0
51 1 0.32743 0.0373477 0
21 1 0.34235 0.0190545 0
22 1 0.346811 0.0432437 0
892 1 0.355771 0.000923578 0
23 1 0.361682 0.0244206 0
894 1 0.375689 0.00645786 0
24 1 0.380575 0.0310441 0
25 1 0.395419 0.0125761 0
26 1 0.400695 0.0378787 0
27 1 0.415476 0.0196237 0
28 1 0.42091 0.0450215 0
29 1 0.435725 0.0269521 0
900 1 0.450651 0.00964167 0
30 1 0.455027 0.0341313 0
898 1 0.429575 0.00204041 0
902 1 0.489576 0.0224165 0
901 1 0.46973 0.0162455 0
931 1 0.474805 0.0404958 0
988 1 0.0196014 0.081024 0
958 1 0.0248397 0.0554857 0
987 1 0.00464549 0.0637326 0
989 1 0.0388083 0.0731782 0
960 1 0.0441083 0.0492533 0
61 1 0.0584619 0.0670416 0
62 1 0.0722788 0.083686 0
32 1 0.0772718 0.059099 0
63 1 0.0919687 0.0759374 0
34 1 0.0977262 0.0522173 0
65 1 0.111901 0.0700803 0
66 1 0.127569 0.0869908 0
36 1 0.131893 0.0622806 0
67 1 0.14728 0.0787094 0
38 1 0.152651 0.0540594 0
69 1 0.171668 0.0473405 0
68 1 0.166753 0.0710302 0
71 1 0.186051 0.0645828 0
72 1 0.200677 0.0819978 0
42 1 0.205383 0.0578145 0
70 1 0.181393 0.0886717 0
43 1 0.225247 0.050673 0
73 1 0.219879 0.0745131 0
44 1 0.23984 0.0674134 0
74 1 0.264517 0.0865962 0
75 1 0.259168 0.0612615 0
76 1 0.278365 0.0693541 0
48 1 0.292313 0.0501128 0
79 1 0.298626 0.074262 0
50 1 0.312197 0.0548062 0
81 1 0.318583 0.0784093 0
52 1 0.332766 0.0617333 0
82 1 0.338799 0.0859611 0
83 1 0.35238 0.0675933 0
53 1 0.366785 0.0492826 0
54 1 0.372541 0.0744151 0
55 1 0.386656 0.0555146 0
56 1 0.392912 0.08073 0
57 1 0.40697 0.0627432 0
87 1 0.412626 0.0875925 0
58 1 0.426379 0.0698253 0
59 1 0.44034 0.0520223 0
89 1 0.446168 0.0762785 0
60 1 0.460107 0.0587611 0
933 1 0.494944 0.0462558 0
932 1 0.480495 0.0638377 0
961 1 0.466357 0.0824763 0
962 1 0.486721 0.088449 0
1047 1 0.00886148 0.129961 0
1019 1 0.0343416 0.0987962 0
1049 1 0.029223 0.123408 0
1018 1 0.0146963 0.106094 0
990 1 0.0524716 0.091358 0
1020 1 0.0487974 0.116362 0
121 1 0.0639572 0.132762 0
91 1 0.0681943 0.108036 0
92 1 0.0828272 0.125891 0
93 1 0.0876172 0.100083 0
94 1 0.102258 0.11689 0
64 1 0.108084 0.0938319 0
95 1 0.12242 0.111231 0
96 1 0.138195 0.127164 0
97 1 0.14257 0.103272 0
125 1 0.118556 0.135011 0
98 1 0.157268 0.120206 0
99 1 0.162225 0.0958368 0
100 1 0.176762 0.113786 0
130 1 0.191566 0.130615 0
101 1 0.195934 0.105614 0
102 1 0.210552 0.121809 0
103 1 0.216217 0.0988082 0
105 1 0.235173 0.091679 0
104 1 0.233525 0.117956 0
78 1 0.284467 0.0926156 0
106 1 0.25127 0.105096 0
137 1 0.256425 0.130109 0
107 1 0.270269 0.111905 0
108 1 0.275805 0.135989 0
109 1 0.289452 0.116957 0
80 1 0.304753 0.0978346 0
110 1 0.309763 0.121723 0
111 1 0.324323 0.103076 0
141 1 0.329753 0.128508 0
113 1 0.34375 0.110609 0
143 1 0.348837 0.134732 0
84 1 0.358366 0.0930116 0
112 1 0.363975 0.11718 0
85 1 0.37793 0.0982249 0
115 1 0.383384 0.12317 0
86 1 0.397706 0.105141 0
116 1 0.403624 0.129409 0
117 1 0.418486 0.112549 0
118 1 0.422965 0.137288 0
88 1 0.432052 0.0948378 0
119 1 0.437821 0.119485 0
90 1 0.451824 0.101032 0
120 1 0.457663 0.125444 0
991 1 0.471719 0.106355 0
992 1 0.477315 0.131139 0
993 1 0.491649 0.113179 0
1048 1 0.0249534 0.148192 0
1077 1 0.020087 0.172724 0
1046 1 0.0050904 0.154659 0
1075 1 -0.000295903 0.179002 0
1079 1 0.0394879 0.164959 0
1050 1 0.0447604 0.141414 0
151 1 0.0597295 0.157512 0
152 1 0.0738031 0.174727 0
122 1 0.0791979 0.150257 0
153 1 0.0937167 0.167474 0
123 1 0.0988672 0.141918 0
124 1 0.113665 0.158306 0
155 1 0.128439 0.176341 0
126 1 0.133365 0.151323 0
157 1 0.147609 0.168628 0
127 1 0.153027 0.144282 0
129 1 0.172005 0.138276 0
128 1 0.169129 0.164653 0
159 1 0.187366 0.154415 0
132 1 0.193592 0.177381 0
131 1 0.207295 0.158996 0
133 1 0.222955 0.140181 0
134 1 0.227417 0.165058 0
135 1 0.241869 0.14751 0
165 1 0.24732 0.172128 0
136 1 0.262137 0.153837 0
167 1 0.266754 0.177205 0
138 1 0.281525 0.159718 0
139 1 0.295189 0.141376 0
169 1 0.301206 0.166359 0
140 1 0.314804 0.146591 0
171 1 0.320756 0.171721 0
142 1 0.334849 0.152205 0
172 1 0.340218 0.178034 0
173 1 0.354181 0.159208 0
114 1 0.369238 0.141595 0
144 1 0.374333 0.166739 0
145 1 0.38888 0.148695 0
146 1 0.393993 0.172746 0
147 1 0.408418 0.154365 0
177 1 0.414254 0.179232 0
148 1 0.427976 0.162188 0
149 1 0.44304 0.144043 0
150 1 0.448237 0.167352 0
1021 1 0.462775 0.149472 0
1051 1 0.467506 0.174263 0
1022 1 0.48288 0.1561 0
1053 1 0.487192 0.180641 0
1023 1 0.497742 0.137809 0
1076 1 0.0141998 0.197544 0
1107 1 0.0288214 0.21523 0
1078 1 0.0350145 0.191205 0
1106 1 0.00905199 0.222308 0
1080 1 0.0542126 0.182056 0
1109 1 0.0496371 0.212686 0
181 1 0.0690892 0.198635 0
182 1 0.0734484 0.223141 0
183 1 0.0889574 0.193246 0
185 1 0.107909 0.212731 0
154 1 0.108444 0.184654 0
156 1 0.12404 0.199252 0
186 1 0.129668 0.222061 0
158 1 0.143829 0.204578 0
160 1 0.159652 0.187895 0
189 1 0.16351 0.212366 0
161 1 0.178965 0.193905 0
163 1 0.212955 0.182982 0
191 1 0.18446 0.218668 0
162 1 0.198618 0.200707 0
192 1 0.203579 0.225415 0
193 1 0.217777 0.207141 0
164 1 0.232567 0.189411 0
195 1 0.237753 0.213146 0
166 1 0.253206 0.196079 0
196 1 0.257614 0.220788 0
197 1 0.272557 0.201871 0
198 1 0.277494 0.225963 0
168 1 0.287273 0.184043 0
199 1 0.291382 0.207568 0
170 1 0.30703 0.189962 0
200 1 0.311822 0.214083 0
201 1 0.326358 0.195854 0
202 1 0.331649 0.222033 0
203 1 0.345301 0.202644 0
233 1 0.351048 0.227309 0
174 1 0.35994 0.184188 0
204 1 0.365642 0.209872 0
175 1 0.38004 0.190661 0
205 1 0.386433 0.215663 0
176 1 0.400202 0.197263 0
207 1 0.405615 0.222385 0
178 1 0.419638 0.203666 0
179 1 0.433437 0.18513 0
209 1 0.438882 0.209917 0
180 1 0.453591 0.191755 0
1081 1 0.458873 0.216403 0
1052 1 0.473272 0.198683 0
1082 1 0.479013 0.22294 0
1083 1 0.49435 0.20497 0
1108 1 0.024452 0.251178 0
1137 1 0.0104255 0.270759 0
1136 1 0.00451324 0.246203 0
1110 1 0.0409421 0.235273 0
1140 1 0.0445511 0.259408 0
211 1 0.0601514 0.242189 0
212 1 0.0654357 0.266217 0
213 1 0.0798339 0.248371 0
184 1 0.0936299 0.230378 0
214 1 0.0996997 0.254724 0
215 1 0.114494 0.236981 0
216 1 0.119183 0.263599 0
217 1 0.13396 0.246603 0
218 1 0.139421 0.270127 0
187 1 0.149647 0.229731 0
188 1 0.154402 0.253659 0
190 1 0.169223 0.235827 0
220 1 0.174708 0.260016 0
221 1 0.188608 0.242304 0
222 1 0.193748 0.26723 0
223 1 0.20752 0.24907 0
194 1 0.223337 0.231328 0
224 1 0.22829 0.254887 0
225 1 0.242832 0.237753 0
226 1 0.247967 0.261792 0
227 1 0.262646 0.244469 0
257 1 0.267306 0.268431 0
228 1 0.282284 0.251516 0
229 1 0.296696 0.233319 0
230 1 0.301783 0.257518 0
231 1 0.316492 0.239154 0
261 1 0.321866 0.262842 0
232 1 0.336621 0.246062 0
263 1 0.341753 0.270093 0
234 1 0.356927 0.252628 0
235 1 0.371419 0.233754 0
265 1 0.37646 0.258462 0
206 1 0.390813 0.240033 0
208 1 0.425141 0.228639 0
236 1 0.395761 0.26431 0
237 1 0.410421 0.246637 0
238 1 0.415925 0.270285 0
239 1 0.43018 0.253332 0
210 1 0.444571 0.234537 0
240 1 0.449214 0.259081 0
1084 1 0.498483 0.22983 0
1111 1 0.464089 0.239939 0
1112 1 0.468901 0.264355 0
1113 1 0.483873 0.247216 0
1142 1 0.488416 0.271145 0
1138 1 0.0158137 0.294248 0
1139 1 0.0299156 0.277025 0
1169 1 0.03524 0.300901 0
1197 1 0.000820503 0.311799 0
241 1 0.0499138 0.283493 0
271 1 0.0554045 0.307351 0
242 1 0.0704684 0.289708 0
243 1 0.0852576 0.272168 0
273 1 0.0747615 0.315542 0
244 1 0.0893657 0.298234 0
245 1 0.104521 0.279513 0
246 1 0.108894 0.304308 0
247 1 0.124227 0.287935 0
248 1 0.128936 0.311723 0
249 1 0.144064 0.294171 0
219 1 0.159771 0.276498 0
250 1 0.164212 0.301571 0
251 1 0.178645 0.284306 0
281 1 0.184111 0.308622 0
252 1 0.19896 0.291247 0
283 1 0.204503 0.314717 0
253 1 0.21316 0.272945 0
254 1 0.219406 0.297573 0
255 1 0.233235 0.279285 0
285 1 0.238561 0.304283 0
256 1 0.253479 0.286174 0
287 1 0.258913 0.310685 0
258 1 0.273495 0.29302 0
288 1 0.278473 0.316855 0
259 1 0.287733 0.275322 0
289 1 0.29291 0.299042 0
260 1 0.307536 0.281626 0
291 1 0.312888 0.305868 0
262 1 0.327003 0.287653 0
292 1 0.332685 0.312718 0
293 1 0.346616 0.294262 0
264 1 0.361558 0.277038 0
295 1 0.366902 0.301033 0
266 1 0.38135 0.283317 0
297 1 0.386663 0.306934 0
267 1 0.401381 0.28892 0
298 1 0.406213 0.31308 0
268 1 0.421606 0.295339 0
269 1 0.435863 0.277439 0
270 1 0.440842 0.302051 0
1141 1 0.455811 0.283442 0
300 1 0.460278 0.307864 0
1171 1 0.474898 0.289905 0
1172 1 0.480504 0.314196 0
1173 1 0.494816 0.2968 0
1168 1 0.0202566 0.318475 0
1199 1 0.0256936 0.342746 0
1198 1 0.00579678 0.336245 0
1228 1 0.0114895 0.361299 0
1170 1 0.0406855 0.326731 0
1229 1 0.0448348 0.349827 0
1200 1 0.0606642 0.332605 0
301 1 0.0652042 0.357428 0
272 1 0.0805218 0.340353 0
275 1 0.0941668 0.322448 0
274 1 0.100044 0.346245 0
276 1 0.114334 0.328825 0
305 1 0.119633 0.353896 0
277 1 0.134271 0.33625 0
307 1 0.140062 0.36132 0
279 1 0.149803 0.319133 0
278 1 0.154243 0.344033 0
280 1 0.169756 0.325667 0
311 1 0.174045 0.349839 0
282 1 0.189623 0.331996 0
312 1 0.193824 0.35612 0
313 1 0.208904 0.339511 0
284 1 0.224844 0.322919 0
315 1 0.229271 0.34681 0
286 1 0.244205 0.328586 0
316 1 0.24927 0.352859 0
317 1 0.264334 0.335111 0
318 1 0.268776 0.359496 0
319 1 0.283718 0.342692 0
290 1 0.298107 0.324337 0
320 1 0.30336 0.348081 0
321 1 0.31765 0.32995 0
294 1 0.352283 0.318299 0
322 1 0.32286 0.354787 0
323 1 0.337456 0.337465 0
324 1 0.343385 0.361138 0
325 1 0.357567 0.343324 0
296 1 0.37179 0.32551 0
326 1 0.377631 0.349434 0
299 1 0.426141 0.320321 0
327 1 0.392027 0.330485 0
328 1 0.397311 0.355362 0
329 1 0.411922 0.337972 0
358 1 0.417508 0.361971 0
359 1 0.431817 0.344728 0
330 1 0.445929 0.327001 0
360 1 0.451238 0.351719 0
1202 1 0.485432 0.338743 0
1201 1 0.465395 0.332626 0
1231 1 0.470988 0.35621 0
1233 1 0.490563 0.363995 0
1287 1 0.00184893 0.403091 0
1259 1 0.0309858 0.367891 0
1258 1 0.0167624 0.38616 0
1260 1 0.0360668 0.392957 0
1230 1 0.0509143 0.375972 0
331 1 0.0564406 0.400005 0
302 1 0.0704456 0.38201 0
303 1 0.0859671 0.363884 0
332 1 0.0766898 0.407097 0
333 1 0.0910288 0.388899 0
304 1 0.105345 0.371002 0
335 1 0.110598 0.395924 0
306 1 0.125136 0.378355 0
337 1 0.129846 0.402519 0
308 1 0.144437 0.384915 0
309 1 0.1596 0.367701 0
339 1 0.164936 0.391858 0
310 1 0.179263 0.375054 0
341 1 0.184388 0.399271 0
343 1 0.19908 0.38097 0
342 1 0.204792 0.404792 0
314 1 0.213773 0.364411 0
344 1 0.220395 0.388326 0
345 1 0.234594 0.371314 0
346 1 0.239966 0.395342 0
347 1 0.253946 0.377286 0
377 1 0.258914 0.40163 0
348 1 0.274158 0.38336 0
349 1 0.288736 0.365537 0
350 1 0.293813 0.38955 0
351 1 0.308234 0.37267 0
381 1 0.313462 0.3968 0
353 1 0.328122 0.379284 0
352 1 0.333653 0.40292 0
354 1 0.348594 0.385755 0
385 1 0.353425 0.409524 0
355 1 0.363663 0.36656 0
356 1 0.368702 0.391318 0
357 1 0.383277 0.373317 0
386 1 0.389151 0.398123 0
387 1 0.404186 0.38006 0
388 1 0.408486 0.404653 0
389 1 0.42326 0.387495 0
1232 1 0.437241 0.369653 0
1261 1 0.442519 0.393802 0
1262 1 0.457508 0.375785 0
1293 1 0.462929 0.399462 0
1263 1 0.477167 0.381444 0
1294 1 0.482599 0.405765 0
1264 1 0.497489 0.386641 0
1289 1 0.0216922 0.410962 0
1319 1 0.0275335 0.43642 0
1288 1 0.00798645 0.428149 0
1318 1 0.0128946 0.452865 0
1290 1 0.0415281 0.418269 0
391 1 0.0471977 0.442771 0
361 1 0.0615743 0.424494 0
362 1 0.0670497 0.449772 0
363 1 0.0812498 0.431306 0
334 1 0.0959048 0.413532 0
365 1 0.100809 0.438846 0
336 1 0.115972 0.420932 0
366 1 0.121058 0.445038 0
367 1 0.135591 0.426987 0
368 1 0.1413 0.452037 0
338 1 0.149753 0.409102 0
369 1 0.154972 0.434243 0
340 1 0.16986 0.41616 0
370 1 0.17496 0.441101 0
371 1 0.18949 0.423968 0
401 1 0.195675 0.447808 0
372 1 0.209826 0.429753 0
373 1 0.22471 0.412719 0
374 1 0.230355 0.436321 0
375 1 0.244731 0.419496 0
378 1 0.278773 0.406798 0
405 1 0.250075 0.44325 0
376 1 0.265006 0.425219 0
407 1 0.27012 0.449514 0
409 1 0.285026 0.431828 0
379 1 0.299357 0.415358 0
380 1 0.305018 0.438301 0
382 1 0.319621 0.420619 0
413 1 0.324659 0.444707 0
383 1 0.339042 0.427289 0
412 1 0.344121 0.450736 0
414 1 0.358891 0.433205 0
384 1 0.3737 0.415457 0
415 1 0.37868 0.440045 0
417 1 0.393558 0.422833 0
416 1 0.398984 0.446141 0
418 1 0.41383 0.428519 0
447 1 0.418879 0.452667 0
419 1 0.428694 0.412108 0
390 1 0.433831 0.435861 0
1291 1 0.448411 0.417379 0
1321 1 0.453355 0.441972 0
1323 1 0.488264 0.429788 0
1292 1 0.467495 0.424106 0
1322 1 0.473079 0.448797 0
1324 1 0.493898 0.454965 0
1320 1 0.0325325 0.460363 0
1349 1 0.018184 0.477141 0
1379 1 0.00286785 0.494743 0
421 1 0.0376817 0.484179 0
392 1 0.0525563 0.467556 0
422 1 0.057036 0.49213 0
393 1 0.0716051 0.474878 0
364 1 0.0866117 0.457868 0
394 1 0.0912648 0.48141 0
423 1 0.0780315 0.498823 0
395 1 0.106439 0.462919 0
396 1 0.111441 0.487714 0
397 1 0.126515 0.469905 0
427 1 0.131232 0.493559 0
398 1 0.145995 0.476502 0
399 1 0.161467 0.459624 0
429 1 0.166031 0.483562 0
400 1 0.181093 0.46555 0
431 1 0.186482 0.490058 0
402 1 0.200988 0.472815 0
432 1 0.205632 0.496759 0
403 1 0.214943 0.454374 0
433 1 0.219932 0.479039 0
404 1 0.234655 0.462513 0
435 1 0.240644 0.486189 0
406 1 0.254818 0.468043 0
436 1 0.260503 0.492002 0
408 1 0.275498 0.47398 0
439 1 0.280636 0.497613 0
410 1 0.28998 0.456955 0
441 1 0.296048 0.48034 0
411 1 0.310401 0.462669 0
440 1 0.315333 0.486756 0
442 1 0.329493 0.46888 0
471 1 0.335334 0.492464 0
473 1 0.349672 0.474906 0
472 1 0.354447 0.501025 0
443 1 0.364027 0.457191 0
444 1 0.368889 0.482084 0
445 1 0.38458 0.464096 0
475 1 0.388453 0.488875 0
446 1 0.403894 0.470625 0
477 1 0.408487 0.495399 0
448 1 0.423655 0.476314 0
1351 1 0.462689 0.490901 0
450 1 0.458129 0.466538 0
449 1 0.443595 0.483461 0
420 1 0.43919 0.459916 0
1354 1 0.49815 0.48018 0
1352 1 0.483376 0.496696 0
1353 1 0.477802 0.472875 0
1380 1 0.0280056 0.526709 0
1350 1 0.0223983 0.501633 0
451 1 0.0421845 0.508678 0
452 1 0.0483242 0.533608 0
453 1 0.0622865 0.51581 0
454 1 0.0677516 0.54012 0
424 1 0.0819509 0.522949 0
425 1 0.0975457 0.505814 0
455 1 0.102747 0.529227 0
426 1 0.117615 0.512455 0
456 1 0.122415 0.537035 0
457 1 0.137427 0.518263 0
458 1 0.142245 0.543963 0
459 1 0.156689 0.525392 0
430 1 0.171251 0.508131 0
460 1 0.176677 0.53187 0
428 1 0.151659 0.500676 0
461 1 0.191366 0.514243 0
462 1 0.196815 0.539293 0
463 1 0.210533 0.521063 0
434 1 0.225578 0.502912 0
464 1 0.230709 0.527661 0
465 1 0.246369 0.510561 0
493 1 0.216878 0.545741 0
466 1 0.251266 0.5349 0
437 1 0.265983 0.516384 0
497 1 0.270913 0.541206 0
467 1 0.285829 0.52357 0
438 1 0.300778 0.504613 0
468 1 0.306334 0.529391 0
469 1 0.320221 0.510938 0
499 1 0.326501 0.537023 0
470 1 0.339678 0.518784 0
501 1 0.345626 0.542715 0
503 1 0.359999 0.5246 0
474 1 0.374145 0.50772 0
505 1 0.379362 0.531948 0
476 1 0.394352 0.512973 0
506 1 0.399487 0.537431 0
507 1 0.414644 0.51999 0
509 1 0.419496 0.544916 0
478 1 0.428679 0.50152 0
480 1 0.434175 0.526628 0
479 1 0.448257 0.508832 0
510 1 0.454156 0.532606 0
1382 1 0.488138 0.520968 0
1381 1 0.467939 0.513936 0
1411 1 0.473425 0.53868 0
1409 1 0.012803 0.544196 0
481 1 0.0335888 0.550271 0
1408 1 0.0193387 0.56803 0
1410 1 0.0392181 0.575977 0
483 1 0.0534738 0.558656 0
482 1 0.0594955 0.582127 0
485 1 0.0882653 0.54615 0
513 1 0.0734545 0.563757 0
484 1 0.0936818 0.571741 0
514 1 0.0792971 0.588983 0
486 1 0.107579 0.554402 0
515 1 0.113329 0.578644 0
487 1 0.127996 0.56131 0
517 1 0.132747 0.586603 0
488 1 0.147581 0.569388 0
489 1 0.162011 0.550144 0
490 1 0.167645 0.575381 0
491 1 0.182232 0.556423 0
521 1 0.187591 0.580965 0
492 1 0.202402 0.563751 0
523 1 0.207043 0.587679 0
494 1 0.222468 0.57094 0
495 1 0.237296 0.551636 0
525 1 0.242147 0.575877 0
496 1 0.257056 0.559061 0
526 1 0.261459 0.583712 0
527 1 0.276469 0.565935 0
528 1 0.281852 0.589182 0
498 1 0.291158 0.548297 0
529 1 0.296495 0.571638 0
500 1 0.311449 0.553333 0
530 1 0.316079 0.578952 0
531 1 0.331165 0.561061 0
532 1 0.336264 0.585569 0
533 1 0.350638 0.567969 0
563 1 0.356742 0.592174 0
502 1 0.364911 0.548727 0
534 1 0.370707 0.573086 0
504 1 0.385247 0.555603 0
535 1 0.390248 0.580152 0
508 1 0.404401 0.562461 0
537 1 0.410706 0.586241 0
539 1 0.425032 0.567918 0
540 1 0.439292 0.550021 0
569 1 0.445131 0.574297 0
1441 1 0.45884 0.556937 0
1413 1 0.49385 0.543987 0
1443 1 0.484665 0.587848 0
1442 1 0.464779 0.581338 0
1412 1 0.479083 0.563114 0
1414 1 0.500133 0.56877 0
1439 1 0.0246849 0.593605 0
1440 1 0.028683 0.618175 0
1438 1 0.00875102 0.610824 0
1469 1 0.00237872 0.634139 0
511 1 0.0442142 0.600982 0
541 1 0.0490518 0.624808 0
512 1 0.0631016 0.607639 0
542 1 0.0704801 0.632267 0
543 1 0.0836472 0.613446 0
545 1 0.0992505 0.596412 0
546 1 0.10503 0.62082 0
516 1 0.118911 0.603132 0
547 1 0.123825 0.627237 0
518 1 0.138314 0.609745 0
519 1 0.153241 0.592319 0
548 1 0.158711 0.61613 0
520 1 0.173493 0.599379 0
577 1 0.143803 0.634946 0
549 1 0.177901 0.624034 0
522 1 0.192514 0.605414 0
551 1 0.198232 0.629191 0
553 1 0.212394 0.612193 0
524 1 0.227768 0.594744 0
554 1 0.232793 0.618195 0
555 1 0.24744 0.600787 0
556 1 0.251493 0.626321 0
557 1 0.266749 0.607728 0
587 1 0.272491 0.631586 0
558 1 0.287032 0.613426 0
559 1 0.301701 0.595912 0
560 1 0.307243 0.620687 0
561 1 0.321677 0.602531 0
591 1 0.327133 0.627785 0
562 1 0.341685 0.6096 0
564 1 0.347394 0.634121 0
565 1 0.361584 0.615922 0
536 1 0.376143 0.598156 0
566 1 0.381588 0.621945 0
567 1 0.395946 0.604083 0
597 1 0.401225 0.627716 0
568 1 0.415728 0.609633 0
599 1 0.420552 0.634601 0
538 1 0.430727 0.592415 0
600 1 0.434827 0.616888 0
570 1 0.450002 0.598897 0
1501 1 0.454827 0.623729 0
1471 1 0.470123 0.606042 0
1472 1 0.475337 0.629967 0
1473 1 0.489616 0.611978 0
1474 1 0.495946 0.636679 0
1529 1 0.0123447 0.676978 0
1470 1 0.0337894 0.641664 0
1500 1 0.033222 0.668109 0
1499 1 0.0159213 0.652827 0
571 1 0.0541232 0.64886 0
572 1 0.0613585 0.671603 0
573 1 0.0758957 0.655514 0
544 1 0.090417 0.638139 0
574 1 0.0938062 0.66442 0
575 1 0.109104 0.646664 0
605 1 0.114012 0.670639 0
576 1 0.128585 0.652208 0
607 1 0.134078 0.676594 0
578 1 0.148739 0.659009 0
579 1 0.163542 0.641247 0
609 1 0.168693 0.665691 0
550 1 0.18277 0.647894 0
580 1 0.188465 0.672715 0
581 1 0.203175 0.654498 0
611 1 0.208688 0.679718 0
552 1 0.217669 0.636781 0
582 1 0.223324 0.66135 0
583 1 0.237855 0.643637 0
584 1 0.243283 0.667725 0
585 1 0.258109 0.649793 0
615 1 0.263869 0.676094 0
586 1 0.277392 0.657677 0
617 1 0.28351 0.681699 0
589 1 0.29135 0.638988 0
588 1 0.297003 0.663326 0
590 1 0.311908 0.644973 0
621 1 0.316938 0.669081 0
593 1 0.332014 0.65163 0
592 1 0.337652 0.67512 0
594 1 0.352901 0.658051 0
595 1 0.367118 0.639762 0
625 1 0.372237 0.664506 0
596 1 0.386893 0.645921 0
627 1 0.392168 0.670233 0
598 1 0.406256 0.651335 0
657 1 0.412003 0.676496 0
628 1 0.426776 0.658273 0
629 1 0.440363 0.640555 0
630 1 0.446206 0.664931 0
1502 1 0.46 0.647631 0
1503 1 0.480867 0.653052 0
1533 1 0.466015 0.671998 0
1504 1 0.487231 0.678914 0
1559 1 0.00691519 0.700803 0
1530 1 0.0269961 0.69378 0
1560 1 0.0213498 0.717141 0
1558 1 0.00094753 0.724267 0
631 1 0.0410248 0.710747 0
601 1 0.0464443 0.687011 0
602 1 0.0640166 0.700447 0
632 1 0.0575086 0.72507 0
603 1 0.0799054 0.68302 0
633 1 0.0833886 0.707678 0
604 1 0.099429 0.689133 0
635 1 0.104095 0.713101 0
606 1 0.119622 0.694991 0
636 1 0.124429 0.719007 0
637 1 0.140089 0.701541 0
608 1 0.154046 0.684071 0
638 1 0.160146 0.707906 0
639 1 0.174833 0.690517 0
667 1 0.144472 0.725734 0
641 1 0.179604 0.714495 0
610 1 0.194685 0.697499 0
642 1 0.200845 0.721653 0
612 1 0.214161 0.703849 0
613 1 0.229129 0.685954 0
643 1 0.235108 0.710247 0
614 1 0.249908 0.693315 0
645 1 0.254781 0.718137 0
616 1 0.269844 0.700665 0
647 1 0.275102 0.723481 0
618 1 0.289734 0.706257 0
619 1 0.304027 0.688378 0
620 1 0.310292 0.711772 0
622 1 0.324105 0.69345 0
651 1 0.329182 0.719067 0
653 1 0.343984 0.700621 0
654 1 0.348558 0.724678 0
623 1 0.357631 0.68245 0
624 1 0.363658 0.706748 0
626 1 0.377184 0.688249 0
655 1 0.383206 0.713192 0
656 1 0.397438 0.69438 0
686 1 0.402531 0.719118 0
658 1 0.4175 0.701023 0
687 1 0.422349 0.726806 0
659 1 0.430908 0.683364 0
660 1 0.436672 0.708302 0
1531 1 0.451249 0.689913 0
1561 1 0.456726 0.71414 0
1532 1 0.470983 0.696196 0
1563 1 0.476528 0.72103 0
1534 1 0.490794 0.703155 0
1565 1 0.498178 0.72771 0
1619 1 0.0109015 0.766188 0
1589 1 0.0158506 0.74167 0
1590 1 0.0310042 0.757838 0
661 1 0.0357467 0.734421 0
663 1 0.05085 0.750375 0
662 1 0.0651632 0.768273 0
664 1 0.0710769 0.744465 0
695 1 0.0861683 0.761253 0
634 1 0.0893223 0.732649 0
665 1 0.10902 0.737254 0
697 1 0.114372 0.760692 0
666 1 0.129301 0.742545 0
668 1 0.134249 0.766502 0
669 1 0.14897 0.749507 0
640 1 0.164738 0.732942 0
670 1 0.169239 0.757697 0
671 1 0.184797 0.738424 0
672 1 0.190649 0.762199 0
673 1 0.206471 0.746338 0
703 1 0.211166 0.770877 0
644 1 0.220937 0.727424 0
674 1 0.225372 0.75382 0
675 1 0.240143 0.736037 0
705 1 0.245576 0.760078 0
646 1 0.260049 0.742655 0
677 1 0.265211 0.766218 0
648 1 0.280004 0.747745 0
649 1 0.29519 0.729547 0
679 1 0.300125 0.754247 0
650 1 0.314983 0.737314 0
681 1 0.320531 0.761221 0
652 1 0.33457 0.742758 0
682 1 0.340144 0.76703 0
683 1 0.354876 0.749645 0
685 1 0.367837 0.730311 0
684 1 0.374799 0.755291 0
715 1 0.388062 0.737031 0
714 1 0.394291 0.762591 0
717 1 0.407854 0.743618 0
716 1 0.414389 0.768532 0
688 1 0.428978 0.750856 0
689 1 0.442953 0.732551 0
719 1 0.449361 0.757467 0
690 1 0.462749 0.739005 0
1591 1 0.468681 0.763666 0
1562 1 0.482888 0.745339 0
1593 1 0.488502 0.770046 0
1620 1 0.0255049 0.782781 0
1649 1 0.0200524 0.808557 0
1618 1 0.004594 0.790653 0
1648 1 0.000130635 0.815584 0
691 1 0.0450322 0.77484 0
721 1 0.0394759 0.799697 0
693 1 0.0597193 0.792358 0
723 1 0.0744666 0.81064 0
694 1 0.0801055 0.785874 0
725 1 0.0939738 0.803977 0
696 1 0.100321 0.780117 0
727 1 0.114479 0.797355 0
728 1 0.127478 0.815575 0
698 1 0.134189 0.790901 0
699 1 0.153043 0.775632 0
700 1 0.14701 0.80983 0
731 1 0.163868 0.797505 0
701 1 0.176903 0.780489 0
702 1 0.197456 0.788624 0
763 1 0.202555 0.815231 0
732 1 0.182707 0.806214 0
733 1 0.217367 0.796296 0
704 1 0.230798 0.777643 0
706 1 0.236747 0.80222 0
678 1 0.285446 0.772514 0
676 1 0.250216 0.783672 0
737 1 0.256112 0.809198 0
707 1 0.270151 0.791305 0
738 1 0.276551 0.815338 0
708 1 0.290667 0.79644 0
709 1 0.305123 0.779083 0
710 1 0.310879 0.803545 0
680 1 0.325534 0.784989 0
741 1 0.331105 0.808731 0
711 1 0.34635 0.791355 0
742 1 0.351501 0.81518 0
713 1 0.359926 0.773425 0
712 1 0.366298 0.798016 0
743 1 0.380114 0.780324 0
745 1 0.385382 0.805054 0
746 1 0.400038 0.787849 0
775 1 0.405505 0.811829 0
747 1 0.419479 0.793735 0
748 1 0.424544 0.817064 0
718 1 0.435461 0.774396 0
749 1 0.439513 0.79896 0
720 1 0.454268 0.78173 0
1621 1 0.4602 0.806086 0
1623 1 0.494456 0.794614 0
1592 1 0.474569 0.788051 0
1622 1 0.479827 0.812611 0
1709 1 0.0301483 0.851008 0
1679 1 0.0154559 0.832181 0
1678 1 0.0109953 0.856627 0
1650 1 0.0343967 0.825777 0
692 1 0.0541101 0.818016 0
1680 1 0.050041 0.842469 0
752 1 0.0644686 0.860692 0
751 1 0.0697913 0.835515 0
753 1 0.0844478 0.853207 0
722 1 0.0890152 0.828724 0
724 1 0.10385 0.845764 0
726 1 0.108417 0.82208 0
757 1 0.123778 0.840159 0
756 1 0.13926 0.856396 0
755 1 0.119349 0.864519 0
729 1 0.143377 0.832775 0
759 1 0.159999 0.847555 0
730 1 0.165375 0.823454 0
761 1 0.186218 0.831399 0
792 1 0.193302 0.856366 0
762 1 0.207418 0.838957 0
735 1 0.222365 0.820872 0
734 1 0.227486 0.844847 0
736 1 0.242291 0.827228 0
765 1 0.247678 0.850807 0
767 1 0.262987 0.833856 0
766 1 0.268061 0.858049 0
768 1 0.282218 0.840421 0
739 1 0.296268 0.822469 0
769 1 0.302577 0.845994 0
740 1 0.316218 0.827387 0
770 1 0.322653 0.852662 0
771 1 0.337272 0.833526 0
801 1 0.342619 0.858025 0
773 1 0.356598 0.840221 0
744 1 0.371495 0.822756 0
803 1 0.376492 0.846672 0
774 1 0.390514 0.829037 0
776 1 0.396336 0.853886 0
777 1 0.410625 0.835992 0
778 1 0.417187 0.86059 0
779 1 0.43056 0.841386 0
750 1 0.445192 0.823194 0
780 1 0.450639 0.848049 0
1624 1 0.499445 0.819596 0
1651 1 0.465064 0.830628 0
1652 1 0.470497 0.855735 0
1653 1 0.484969 0.83683 0
1683 1 0.49056 0.861089 0
1710 1 0.0249117 0.87482 0
1739 1 0.0198522 0.900069 0
1708 1 0.00505079 0.88068 0
1737 1 0.000767413 0.905261 0
811 1 0.0395439 0.892135 0
781 1 0.0452686 0.867853 0
782 1 0.0592334 0.885051 0
813 1 0.0745462 0.901296 0
783 1 0.0799387 0.87784 0
784 1 0.0946339 0.895375 0
754 1 0.0993386 0.870768 0
785 1 0.115016 0.887972 0
786 1 0.130242 0.905782 0
787 1 0.135211 0.880703 0
788 1 0.15003 0.897556 0
758 1 0.154387 0.872768 0
760 1 0.174146 0.865388 0
789 1 0.169132 0.890613 0
764 1 0.213744 0.863987 0
791 1 0.188244 0.883525 0
823 1 0.203046 0.901661 0
790 1 0.183512 0.908474 0
793 1 0.220673 0.888612 0
795 1 0.233113 0.869083 0
794 1 0.239753 0.894854 0
796 1 0.253797 0.876062 0
825 1 0.25971 0.900769 0
827 1 0.274134 0.882173 0
826 1 0.279792 0.90666 0
797 1 0.288446 0.864109 0
798 1 0.293905 0.88924 0
799 1 0.307912 0.870934 0
829 1 0.314212 0.895547 0
800 1 0.328114 0.876211 0
831 1 0.334193 0.900471 0
802 1 0.347938 0.881998 0
833 1 0.354133 0.907204 0
772 1 0.362934 0.864428 0
804 1 0.367715 0.889181 0
805 1 0.382785 0.872271 0
806 1 0.388149 0.896339 0
807 1 0.402557 0.879201 0
837 1 0.408068 0.903406 0
808 1 0.422582 0.884684 0
839 1 0.427952 0.909973 0
809 1 0.437278 0.866304 0
810 1 0.441286 0.891724 0
1681 1 0.456442 0.873785 0
1711 1 0.462017 0.898317 0
1684 1 0.49568 0.886333 0
1682 1 0.47612 0.879881 0
1713 1 0.481792 0.904274 0
1740 1 0.0347486 0.916763 0
1769 1 0.0299916 0.940815 0
1738 1 0.0148988 0.923657 0
1768 1 0.00973517 0.947501 0
812 1 0.0541367 0.909395 0
841 1 0.0494533 0.933464 0
842 1 0.0638808 0.950665 0
843 1 0.069835 0.926035 0
844 1 0.0842788 0.943701 0
814 1 0.0895526 0.919794 0
845 1 0.104266 0.936617 0
815 1 0.109655 0.912507 0
816 1 0.124253 0.929642 0
847 1 0.138981 0.94747 0
846 1 0.118244 0.954847 0
817 1 0.143845 0.923247 0
818 1 0.158536 0.940321 0
819 1 0.163817 0.916284 0
820 1 0.178754 0.932809 0
851 1 0.192844 0.950773 0
821 1 0.198328 0.925377 0
822 1 0.212156 0.943363 0
824 1 0.221924 0.913932 0
853 1 0.231548 0.936506 0
855 1 0.245636 0.918561 0
854 1 0.250896 0.943408 0
856 1 0.265324 0.924959 0
885 1 0.271661 0.948478 0
857 1 0.285209 0.930881 0
828 1 0.299394 0.913132 0
859 1 0.30539 0.937457 0
830 1 0.319967 0.919589 0
860 1 0.325672 0.944352 0
832 1 0.339606 0.925498 0
861 1 0.34517 0.950427 0
863 1 0.358966 0.932108 0
834 1 0.373661 0.915294 0
865 1 0.379109 0.938935 0
835 1 0.393416 0.920617 0
836 1 0.398987 0.944737 0
838 1 0.412721 0.927647 0
867 1 0.419081 0.951615 0
869 1 0.43268 0.934556 0
840 1 0.448133 0.91621 0
1741 1 0.452581 0.94091 0
1743 1 0.486749 0.92871 0
1712 1 0.467817 0.922325 0
1742 1 0.472264 0.947769 0
1744 1 0.491209 0.954364 0
1799 1 0.0247563 0.96489 0
1798 1 0.020541 0.989139 0
1797 1 0.00580824 0.972099 0
1 1 0.054286 0.999403 0
1800 1 0.0397727 0.982538 0
1770 1 0.0445155 0.95804 0
871 1 0.0598524 0.974543 0
872 1 0.0740127 0.992881 0
873 1 0.079063 0.968103 0
874 1 0.0935011 0.985609 0
875 1 0.0989862 0.961002 0
876 1 0.113086 0.979579 0
7 1 0.127927 0.996417 0
877 1 0.13322 0.97167 0
878 1 0.147452 0.98933 0
848 1 0.152439 0.965076 0
849 1 0.17255 0.957233 0
879 1 0.166943 0.981525 0
850 1 0.187121 0.974364 0
11 1 0.201577 0.991835 0
852 1 0.207882 0.9681 0
881 1 0.181137 0.999022 0
883 1 0.227554 0.960641 0
882 1 0.222189 0.984369 0
884 1 0.241708 0.979303 0
886 1 0.257643 0.966671 0
16 1 0.260875 0.993625 0
17 1 0.277316 0.973951 0
18 1 0.283105 0.998088 0
887 1 0.290966 0.955716 0
888 1 0.297221 0.979437 0
858 1 0.311321 0.96147 0
889 1 0.316467 0.986685 0
891 1 0.331442 0.969021 0
890 1 0.336987 0.993776 0
862 1 0.351045 0.975117 0
864 1 0.365048 0.956801 0
893 1 0.370723 0.981528 0
895 1 0.384351 0.962736 0
896 1 0.390066 0.98844 0
866 1 0.403397 0.968387 0
897 1 0.409572 0.994428 0
868 1 0.425183 0.976808 0
899 1 0.444508 0.984848 0
1771 1 0.457983 0.965593 0
870 1 0.43843 0.959024 0
903 1 0.483258 0.99848 0
1772 1 0.463878 0.991036 0
1774 1 0.497403 0.978937 0
1773 1 0.47734 0.972745 0
904 1 0.509785 0.0277944 0
905 1 0.50359 0.00330926 0
906 1 0.523322 0.00921167 0
935 1 0.529863 0.0346456 0
908 1 0.543492 0.0160928 0
937 1 0.549583 0.0414684 0
939 1 0.562517 0.0229468 0
940 1 0.582184 0.028304 0
941 1 0.57687 0.00377773 0
942 1 0.792647 0.0237581 0
944 1 0.806261 0.0412293 0
943 1 0.811648 0.0159046 0
945 1 0.825833 0.0327699 0
914 1 0.830954 0.00826601 0
947 1 0.845321 0.0263784 0
916 1 0.850755 0.00190728 0
918 1 0.865365 0.0200474 0
949 1 0.880259 0.0370816 0
919 1 0.884565 0.0119471 0
948 1 0.860498 0.0440902 0
920 1 0.899737 0.0292333 0
1790 1 0.905477 0.00512454 0
951 1 0.920667 0.0235235 0
952 1 0.935177 0.0415376 0
922 1 0.940448 0.0165572 0
953 1 0.955385 0.0347327 0
924 1 0.960118 0.00927384 0
955 1 0.975045 0.0283401 0
925 1 0.980245 0.00318821 0
926 1 0.994985 0.0208226 0
956 1 0.990105 0.0467409 0
963 1 0.500747 0.0704323 0
934 1 0.515471 0.0526509 0
965 1 0.519828 0.0772211 0
936 1 0.534869 0.0591612 0
938 1 0.568696 0.0463714 0