ITEM: TIMESTEP
397000
ITEM: NUMBER OF ATOMS
1800
ITEM: BOX BOUNDS pp pp pp
-1.4805111964762760e+01 1.7980511196476468e+02
1.1826529217466231e+00 1.6381734707825530e+02
0.0000000000000000e+00 5.5000000000000000e+00
ITEM: ATOMS id type xs ys zs
929 1 0.0294359 0.00568913 0
959 1 0.0245055 0.0293917 0
928 1 0.00918635 0.0114152 0
957 1 0.00455214 0.0364356 0
930 1 0.0450127 0.0228563 0
31 1 0.0598262 0.0400483 0
2 1 0.0651099 0.0156396 0
33 1 0.0796188 0.0328895 0
3 1 0.0850697 0.00860428 0
4 1 0.0993491 0.0256938 0
5 1 0.104754 0.0022231 0
35 1 0.114809 0.0431858 0
6 1 0.119414 0.019793 0
37 1 0.134958 0.0374873 0
8 1 0.139632 0.0133285 0
39 1 0.154788 0.0299668 0
880 1 0.160151 0.00578352 0
9 1 0.174552 0.0239468 0
40 1 0.189659 0.0407507 0
10 1 0.194329 0.0162307 0
41 1 0.209987 0.0335479 0
12 1 0.214764 0.0081619 0
14 1 0.228553 0.0257562 0
13 1 0.234633 0.00102193 0
15 1 0.248646 0.0176831 0
46 1 0.268549 0.0188133 0
45 1 0.244223 0.0427702 0
77 1 0.274117 0.0448378 0
47 1 0.287981 0.0259732 0
19 1 0.301824 0.00720969 0
49 1 0.307699 0.0312984 0
20 1 0.322429 0.0129278 0
51 1 0.328257 0.0372801 0
21 1 0.342399 0.0193636 0
22 1 0.349435 0.0436456 0
23 1 0.362937 0.0257124 0
894 1 0.377151 0.00664115 0
24 1 0.382816 0.0320949 0
892 1 0.356324 0.000880224 0
25 1 0.397962 0.0143061 0
26 1 0.403648 0.0377855 0
27 1 0.418582 0.0201009 0
28 1 0.423629 0.0452894 0
29 1 0.438854 0.0270247 0
900 1 0.453067 0.0078395 0
30 1 0.458811 0.0318037 0
898 1 0.432695 0.00235077 0
902 1 0.492252 0.0198712 0
901 1 0.472666 0.0133741 0
931 1 0.478653 0.0388877 0
988 1 0.0152637 0.0793553 0
989 1 0.0349217 0.0724506 0
958 1 0.0195273 0.0539923 0
960 1 0.0399703 0.0479653 0
61 1 0.0550865 0.0644776 0
62 1 0.0687277 0.0817935 0
32 1 0.074298 0.0574409 0
990 1 0.0490106 0.0900292 0
63 1 0.0896477 0.0743509 0
34 1 0.0947605 0.0505028 0
65 1 0.109421 0.0678684 0
66 1 0.123968 0.0850009 0
36 1 0.129597 0.0615463 0
67 1 0.144626 0.0787231 0
38 1 0.150267 0.0541938 0
69 1 0.170218 0.0477232 0
68 1 0.164426 0.0719362 0
71 1 0.185054 0.065177 0
70 1 0.178943 0.0884342 0
72 1 0.199326 0.0814205 0
42 1 0.20521 0.0573747 0
43 1 0.224227 0.0506085 0
73 1 0.21984 0.0750961 0
44 1 0.23933 0.0679214 0
74 1 0.264055 0.0877402 0
75 1 0.259755 0.062826 0
76 1 0.280013 0.0696768 0
48 1 0.293884 0.0511781 0
79 1 0.300084 0.0746361 0
50 1 0.314485 0.0550736 0
81 1 0.320005 0.0791844 0
52 1 0.334934 0.0606774 0
82 1 0.340027 0.0849823 0
83 1 0.354659 0.0681073 0
53 1 0.36912 0.0499489 0
54 1 0.374981 0.0738976 0
55 1 0.389356 0.0560018 0
56 1 0.394578 0.0812545 0
57 1 0.409308 0.0625362 0
87 1 0.415724 0.0863173 0
58 1 0.429847 0.068642 0
59 1 0.44426 0.0509798 0
89 1 0.44979 0.0751357 0
933 1 0.49882 0.044873 0
932 1 0.484429 0.06231 0
60 1 0.46431 0.0569926 0
961 1 0.47091 0.0816142 0
962 1 0.49128 0.0882557 0
1047 1 0.00482539 0.128131 0
1019 1 0.0290602 0.0968855 0
1049 1 0.025349 0.121386 0
1018 1 0.00902046 0.103869 0
1020 1 0.0454369 0.114002 0
121 1 0.0599115 0.132541 0
91 1 0.0647205 0.106594 0
92 1 0.0791716 0.124909 0
93 1 0.084372 0.0992049 0
64 1 0.103853 0.0926273 0
94 1 0.0986393 0.117488 0
125 1 0.114567 0.134362 0
95 1 0.119053 0.110661 0
96 1 0.134858 0.127241 0
97 1 0.138962 0.102473 0
98 1 0.15457 0.119341 0
99 1 0.159315 0.0955137 0
100 1 0.174523 0.113004 0
130 1 0.189651 0.130506 0
101 1 0.194077 0.105759 0
102 1 0.209081 0.123381 0
103 1 0.21475 0.0994795 0
104 1 0.230633 0.116032 0
105 1 0.234307 0.0919814 0
106 1 0.250808 0.10569 0
137 1 0.255258 0.129246 0
78 1 0.285688 0.0930527 0
107 1 0.271187 0.110734 0
109 1 0.2913 0.116799 0
80 1 0.305397 0.0974806 0
108 1 0.276696 0.134312 0
110 1 0.311126 0.123209 0
111 1 0.32597 0.103521 0
141 1 0.330734 0.12866 0
113 1 0.346202 0.109803 0
84 1 0.360609 0.0917269 0
112 1 0.365646 0.116487 0
85 1 0.380181 0.0988864 0
143 1 0.351017 0.134039 0
115 1 0.386174 0.123405 0
86 1 0.400218 0.105518 0
116 1 0.406571 0.128939 0
117 1 0.419713 0.110902 0
88 1 0.435892 0.0938313 0
119 1 0.440727 0.117524 0
90 1 0.455968 0.0994547 0
118 1 0.426627 0.13574 0
120 1 0.461021 0.12364 0
991 1 0.476054 0.106212 0
992 1 0.482137 0.130941 0
993 1 0.495705 0.113523 0
1079 1 0.0349418 0.163272 0
1048 1 0.0203289 0.144989 0
1077 1 0.0149493 0.170082 0
1050 1 0.0402145 0.139281 0
151 1 0.0549148 0.157669 0
122 1 0.0748965 0.150496 0
152 1 0.0700918 0.174888 0
1080 1 0.0499903 0.18184 0
153 1 0.0897578 0.166322 0
123 1 0.094119 0.141806 0
124 1 0.109468 0.158908 0
155 1 0.125469 0.175085 0
126 1 0.130017 0.151061 0
157 1 0.144474 0.167814 0
127 1 0.149702 0.144722 0
129 1 0.169941 0.137796 0
128 1 0.164888 0.163756 0
159 1 0.185299 0.155366 0
132 1 0.192191 0.17833 0
131 1 0.205923 0.158048 0
133 1 0.22159 0.141833 0
134 1 0.226746 0.165818 0
135 1 0.241305 0.148376 0
165 1 0.246721 0.171772 0
136 1 0.260973 0.15424 0
167 1 0.266183 0.178133 0
138 1 0.281308 0.158984 0
139 1 0.29611 0.140875 0
169 1 0.301631 0.164792 0
140 1 0.316501 0.146973 0
171 1 0.321879 0.171345 0
142 1 0.336519 0.152276 0
172 1 0.34177 0.178524 0
173 1 0.356048 0.158924 0
114 1 0.371938 0.142332 0
144 1 0.376635 0.1659 0
145 1 0.391758 0.148071 0
146 1 0.39633 0.172363 0
147 1 0.412121 0.154053 0
177 1 0.417953 0.178818 0
148 1 0.432439 0.159575 0
149 1 0.446953 0.141324 0
150 1 0.452954 0.164887 0
1051 1 0.472412 0.172945 0
1021 1 0.467056 0.147083 0
1022 1 0.487072 0.155548 0
1053 1 0.493048 0.18015 0
1076 1 0.0102751 0.194372 0
1107 1 0.0250516 0.212267 0
1078 1 0.0296281 0.188263 0
1106 1 0.00597018 0.218774 0
1109 1 0.0454714 0.208516 0
181 1 0.0649297 0.199138 0
182 1 0.0704511 0.223233 0
183 1 0.0852505 0.205429 0
154 1 0.101741 0.187651 0
185 1 0.105969 0.214054 0
156 1 0.121286 0.198768 0
186 1 0.127032 0.222256 0
158 1 0.141877 0.204178 0
160 1 0.156793 0.187602 0
189 1 0.162778 0.211544 0
161 1 0.176835 0.194562 0
191 1 0.182727 0.218878 0
163 1 0.211692 0.184398 0
162 1 0.197187 0.201865 0
192 1 0.202364 0.226035 0
193 1 0.217726 0.208279 0
164 1 0.231953 0.190227 0
195 1 0.237607 0.214607 0
166 1 0.252227 0.195971 0
196 1 0.258058 0.219632 0
168 1 0.287237 0.18396 0
197 1 0.272139 0.201223 0
199 1 0.292349 0.208243 0
198 1 0.277374 0.226442 0
170 1 0.306958 0.190968 0
200 1 0.312626 0.214571 0
201 1 0.327146 0.196213 0
202 1 0.332313 0.220103 0
203 1 0.346845 0.202692 0
174 1 0.361148 0.184885 0
204 1 0.367367 0.20956 0
175 1 0.381427 0.19056 0
233 1 0.352449 0.226685 0
205 1 0.388287 0.214534 0
176 1 0.403132 0.196301 0
207 1 0.408076 0.221488 0
178 1 0.422904 0.202085 0
179 1 0.437644 0.1845 0
209 1 0.442937 0.208612 0
180 1 0.457785 0.190434 0
1081 1 0.462912 0.216432 0
1052 1 0.478221 0.197042 0
1082 1 0.48276 0.222639 0
1083 1 0.497992 0.204895 0
1110 1 0.0365031 0.232012 0
1108 1 0.0211892 0.250417 0
1137 1 0.0058912 0.269143 0
1140 1 0.0407604 0.258683 0
211 1 0.0560694 0.242664 0
212 1 0.0608739 0.266597 0
213 1 0.0765516 0.24751 0
184 1 0.0911545 0.230559 0
214 1 0.0966449 0.255765 0
215 1 0.111992 0.238404 0
216 1 0.11623 0.263097 0
187 1 0.147291 0.228624 0
217 1 0.132362 0.245941 0
218 1 0.137053 0.269719 0
188 1 0.152052 0.253321 0
190 1 0.166965 0.235949 0
220 1 0.171982 0.260897 0
221 1 0.186577 0.242491 0
222 1 0.192878 0.267206 0
223 1 0.20707 0.250337 0
194 1 0.222707 0.23303 0
224 1 0.227045 0.256303 0
225 1 0.242898 0.238185 0
226 1 0.247633 0.26293 0
227 1 0.263088 0.244518 0
257 1 0.268491 0.268871 0
228 1 0.283332 0.249724 0
229 1 0.297558 0.232055 0
230 1 0.304015 0.25618 0
231 1 0.318399 0.238932 0
261 1 0.323724 0.263259 0
232 1 0.337939 0.244104 0
263 1 0.343667 0.269114 0
234 1 0.358665 0.250536 0
235 1 0.373939 0.232587 0
265 1 0.378862 0.256739 0
206 1 0.393625 0.239142 0
236 1 0.398637 0.263697 0
237 1 0.413354 0.246377 0
238 1 0.418178 0.271471 0
208 1 0.428085 0.227612 0
239 1 0.432665 0.252872 0
210 1 0.447855 0.233418 0
240 1 0.453012 0.259666 0
1111 1 0.468157 0.240502 0
1112 1 0.473701 0.265055 0
1113 1 0.488323 0.246838 0
1142 1 0.49361 0.271301 0
1138 1 0.0110661 0.294447 0
1139 1 0.0255202 0.275981 0
1169 1 0.0305082 0.301328 0
1168 1 0.0151959 0.319786 0
241 1 0.0456947 0.284431 0
271 1 0.0511032 0.30814 0
242 1 0.0662132 0.290891 0
273 1 0.0716251 0.315442 0
243 1 0.0814674 0.273185 0
244 1 0.0863155 0.297694 0
245 1 0.10147 0.280234 0
246 1 0.106043 0.30374 0
247 1 0.121973 0.287448 0
248 1 0.126728 0.312062 0
249 1 0.142793 0.294699 0
219 1 0.157085 0.27835 0
250 1 0.163077 0.301957 0
251 1 0.177348 0.284319 0
281 1 0.182919 0.308584 0
253 1 0.212911 0.273979 0
252 1 0.197732 0.291189 0
283 1 0.202991 0.315255 0
254 1 0.218386 0.29809 0
255 1 0.232328 0.279933 0
285 1 0.238247 0.303771 0
256 1 0.253184 0.286325 0
287 1 0.257808 0.310453 0
259 1 0.288769 0.274722 0
258 1 0.273601 0.292674 0
289 1 0.293433 0.299104 0
288 1 0.278163 0.317089 0
260 1 0.308732 0.281165 0
291 1 0.313039 0.305515 0
262 1 0.328512 0.287196 0
292 1 0.333456 0.311388 0
293 1 0.348146 0.294019 0
264 1 0.364063 0.274682 0
295 1 0.368635 0.299591 0
266 1 0.383794 0.281337 0
297 1 0.388162 0.305868 0
267 1 0.403525 0.288827 0
298 1 0.408806 0.312608 0
268 1 0.423401 0.295112 0
269 1 0.437908 0.276613 0
270 1 0.443255 0.30095 0
1141 1 0.458445 0.282916 0
1324 1 0.495601 0.454334 0
300 1 0.463714 0.30789 0
1171 1 0.478627 0.289462 0
1172 1 0.484224 0.314636 0
1170 1 0.0352985 0.325327 0
1199 1 0.021961 0.344724 0
1228 1 0.0064322 0.360541 0
1198 1 0.00031222 0.336505 0
1229 1 0.0417599 0.34944 0
1200 1 0.0575254 0.333188 0
301 1 0.062032 0.357213 0
272 1 0.0771552 0.34023 0
275 1 0.0920036 0.322472 0
274 1 0.0968556 0.346652 0
276 1 0.111698 0.327865 0
279 1 0.14747 0.318201 0
305 1 0.116783 0.352866 0
277 1 0.131797 0.336043 0
278 1 0.152094 0.34276 0
307 1 0.137333 0.361025 0
280 1 0.168272 0.326423 0
311 1 0.17273 0.350581 0
282 1 0.188158 0.333986 0
312 1 0.19302 0.357889 0
313 1 0.207598 0.33965 0
284 1 0.223487 0.322513 0
315 1 0.22813 0.346214 0
286 1 0.243447 0.328589 0
316 1 0.24784 0.352591 0
317 1 0.263568 0.335668 0
318 1 0.269103 0.358417 0
319 1 0.283725 0.340795 0
290 1 0.298224 0.322862 0
320 1 0.303862 0.347638 0
321 1 0.31846 0.329938 0
322 1 0.32461 0.35426 0
323 1 0.338844 0.336279 0
324 1 0.344257 0.361348 0
294 1 0.353495 0.318161 0
325 1 0.359555 0.343077 0
296 1 0.373916 0.324316 0
326 1 0.379493 0.349679 0
327 1 0.393951 0.330323 0
328 1 0.399789 0.353986 0
329 1 0.4142 0.336056 0
358 1 0.420201 0.361446 0
299 1 0.429651 0.318839 0
359 1 0.434428 0.343413 0
330 1 0.449238 0.325805 0
360 1 0.45503 0.349706 0
1202 1 0.490248 0.338612 0
1201 1 0.470021 0.33229 0
1231 1 0.475095 0.356465 0
1233 1 0.494902 0.362907 0
1259 1 0.027224 0.368569 0
1260 1 0.0314826 0.392601 0
1258 1 0.0113516 0.385135 0
1230 1 0.04687 0.375009 0
331 1 0.0520212 0.399652 0
302 1 0.0678078 0.381604 0
332 1 0.0723672 0.406111 0
303 1 0.0821805 0.364744 0
333 1 0.0878875 0.388743 0
304 1 0.102917 0.372108 0
335 1 0.107473 0.395764 0
306 1 0.122451 0.378392 0
337 1 0.128261 0.404365 0
308 1 0.142483 0.385068 0
309 1 0.157555 0.368027 0
339 1 0.163173 0.392554 0
310 1 0.177575 0.37472 0
341 1 0.183545 0.398956 0
314 1 0.21357 0.364218 0
343 1 0.199167 0.381384 0
342 1 0.20377 0.405667 0
344 1 0.219148 0.387476 0
345 1 0.233983 0.370891 0
346 1 0.238937 0.395282 0
347 1 0.253726 0.376083 0
377 1 0.258578 0.401061 0
349 1 0.289076 0.36527 0
348 1 0.27419 0.383548 0
350 1 0.295332 0.389716 0
378 1 0.278917 0.408081 0
351 1 0.309451 0.371639 0
381 1 0.314648 0.396946 0
353 1 0.329442 0.378644 0
352 1 0.334993 0.403473 0
354 1 0.350888 0.385676 0
355 1 0.364813 0.367403 0
356 1 0.370585 0.392304 0
357 1 0.384458 0.373708 0
386 1 0.39095 0.397617 0
387 1 0.405099 0.379136 0
388 1 0.410266 0.404634 0
389 1 0.424876 0.385502 0
1232 1 0.439967 0.367393 0
1261 1 0.445417 0.392276 0
1262 1 0.460505 0.373949 0
1293 1 0.465346 0.39806 0
1263 1 0.48078 0.380416 0
1294 1 0.486088 0.405271 0
1289 1 0.0170893 0.410791 0
1319 1 0.0222773 0.435395 0
1290 1 0.0370919 0.416919 0
1318 1 0.0072097 0.452131 0
1288 1 0.00255645 0.428143 0
391 1 0.0423377 0.441208 0
361 1 0.0574946 0.424824 0
362 1 0.0631409 0.449373 0
363 1 0.0779177 0.431737 0
334 1 0.0929738 0.412661 0
365 1 0.0978869 0.437925 0
336 1 0.112874 0.419981 0
338 1 0.148924 0.410066 0
366 1 0.117868 0.445263 0
367 1 0.133205 0.428782 0
368 1 0.139272 0.452358 0
369 1 0.15352 0.434809 0
340 1 0.1691 0.416666 0
370 1 0.174994 0.441584 0
371 1 0.18878 0.423356 0
401 1 0.195012 0.447123 0
372 1 0.209282 0.429244 0
373 1 0.224365 0.412397 0
374 1 0.229138 0.436795 0
375 1 0.244226 0.419885 0
405 1 0.249609 0.443516 0
376 1 0.264457 0.425158 0
407 1 0.269889 0.450124 0
409 1 0.284762 0.431143 0
379 1 0.299581 0.414139 0
380 1 0.304988 0.438185 0
382 1 0.319685 0.421293 0
413 1 0.325415 0.445169 0
383 1 0.34005 0.428579 0
412 1 0.345631 0.452529 0
385 1 0.355002 0.410334 0
414 1 0.360532 0.43427 0
384 1 0.375216 0.416358 0
415 1 0.380178 0.439935 0
417 1 0.395843 0.42257 0
416 1 0.399535 0.44729 0
418 1 0.414873 0.428751 0
447 1 0.419888 0.453324 0
419 1 0.430293 0.409961 0
390 1 0.435473 0.434294 0
1291 1 0.45107 0.416172 0
1321 1 0.455005 0.441586 0
1323 1 0.49063 0.429353 0
1292 1 0.470731 0.42311 0
1322 1 0.475338 0.448948 0
1320 1 0.0274938 0.459475 0
421 1 0.0328095 0.48376 0
1349 1 0.0128258 0.476049 0
392 1 0.0479924 0.468041 0
422 1 0.0535993 0.493173 0
393 1 0.0678991 0.475201 0
423 1 0.0741331 0.499235 0
364 1 0.0821295 0.456634 0
394 1 0.0884669 0.47959 0
395 1 0.103764 0.462367 0
396 1 0.108803 0.486273 0
397 1 0.123608 0.469951 0
427 1 0.129368 0.494695 0
398 1 0.143878 0.475776 0
399 1 0.159307 0.458923 0
429 1 0.163889 0.482908 0
400 1 0.179922 0.465327 0
431 1 0.183747 0.48963 0
403 1 0.214317 0.455317 0
402 1 0.199746 0.473109 0
432 1 0.206085 0.497108 0
433 1 0.220682 0.478876 0
404 1 0.235525 0.461048 0
435 1 0.240626 0.485427 0
406 1 0.255789 0.468146 0
436 1 0.261068 0.491678 0
408 1 0.275934 0.474064 0
410 1 0.290711 0.45665 0
441 1 0.295766 0.481189 0
411 1 0.310352 0.462927 0
440 1 0.315494 0.487897 0
442 1 0.330355 0.470004 0
471 1 0.334826 0.494135 0
473 1 0.350519 0.476716 0
443 1 0.36548 0.458698 0
444 1 0.3706 0.482918 0
1136 1 0.00047294 0.243756 0
445 1 0.38518 0.464388 0
475 1 0.390904 0.487661 0
446 1 0.405577 0.470573 0
477 1 0.411551 0.494748 0
450 1 0.460701 0.46652 0
448 1 0.425361 0.47762 0
420 1 0.440393 0.459099 0
449 1 0.445821 0.484459 0
1351 1 0.465862 0.490474 0
1352 1 0.487013 0.496877 0
1353 1 0.481184 0.473494 0
1046 1 -0.000253067 0.152785 0
439 1 0.280754 0.499541 0
18 1 0.28203 0.000304507 0
1380 1 0.0226879 0.526583 0
1350 1 0.0175177 0.500766 0
1409 1 0.00762768 0.543976 0
451 1 0.0378387 0.508969 0
452 1 0.0431754 0.533056 0
453 1 0.0591921 0.517203 0
454 1 0.0637559 0.541163 0
424 1 0.0791483 0.52316 0
425 1 0.0945251 0.504154 0
455 1 0.0996196 0.52898 0
426 1 0.114475 0.511353 0
456 1 0.119874 0.538292 0
457 1 0.134123 0.519441 0
458 1 0.139796 0.544088 0
428 1 0.149468 0.500948 0
459 1 0.155554 0.525686 0
430 1 0.169799 0.507432 0
460 1 0.176022 0.532473 0
461 1 0.190597 0.513414 0
462 1 0.195761 0.53872 0
463 1 0.210099 0.521429 0
434 1 0.225977 0.503359 0
464 1 0.231109 0.527177 0
465 1 0.246365 0.509734 0
466 1 0.251477 0.534419 0
437 1 0.266918 0.516889 0
497 1 0.271442 0.541515 0
467 1 0.286771 0.523946 0
438 1 0.301069 0.505828 0
468 1 0.307339 0.531217 0
1797 1 4.08902e-05 0.968841 0
469 1 0.321083 0.512644 0
499 1 0.327121 0.537396 0
470 1 0.341594 0.518335 0
501 1 0.347373 0.543158 0
503 1 0.361531 0.524396 0
474 1 0.37617 0.506502 0
505 1 0.381847 0.532112 0
476 1 0.395772 0.512342 0
506 1 0.401732 0.538558 0
507 1 0.416118 0.519371 0
509 1 0.422319 0.544473 0
480 1 0.436493 0.526622 0
479 1 0.451672 0.508608 0
510 1 0.457767 0.532486 0
478 1 0.43152 0.501766 0
1382 1 0.492372 0.521568 0
1381 1 0.471591 0.51374 0
1411 1 0.477248 0.538676 0
481 1 0.0287365 0.550038 0
1410 1 0.0343092 0.575846 0
1408 1 0.014142 0.568278 0
483 1 0.0485606 0.557658 0
482 1 0.0541874 0.582134 0
513 1 0.0690389 0.564767 0
514 1 0.0741801 0.589101 0
485 1 0.0846584 0.547905 0
484 1 0.0903346 0.572549 0
486 1 0.104223 0.55491 0
515 1 0.109912 0.578673 0
487 1 0.125423 0.561381 0
517 1 0.131018 0.585419 0
488 1 0.146891 0.567064 0
489 1 0.160842 0.549933 0
490 1 0.166616 0.57516 0
491 1 0.180642 0.55696 0
521 1 0.186673 0.58218 0
493 1 0.216277 0.545321 0
492 1 0.202054 0.562806 0
523 1 0.206365 0.588168 0
494 1 0.221478 0.569324 0
495 1 0.236549 0.551564 0
525 1 0.240739 0.576143 0
496 1 0.256346 0.558641 0
526 1 0.260967 0.582733 0
527 1 0.27626 0.566239 0
498 1 0.291959 0.548929 0
529 1 0.296495 0.572811 0
528 1 0.281648 0.590049 0
500 1 0.312155 0.555195 0
530 1 0.31681 0.580073 0
531 1 0.33165 0.561355 0
532 1 0.337692 0.585412 0
533 1 0.351884 0.567426 0
502 1 0.366826 0.54947 0
534 1 0.37187 0.573759 0
504 1 0.387225 0.556807 0
535 1 0.393056 0.580668 0
508 1 0.407774 0.562362 0
537 1 0.412946 0.586713 0
539 1 0.428089 0.567733 0
540 1 0.443007 0.550586 0
569 1 0.448746 0.574512 0
1441 1 0.462324 0.55733 0
1413 1 0.498667 0.545824 0
1443 1 0.488767 0.587134 0
1442 1 0.468208 0.582143 0
1412 1 0.48317 0.562539 0
1439 1 0.0200901 0.593081 0
1438 1 0.00169389 0.605778 0
1440 1 0.0195819 0.618728 0
511 1 0.0401544 0.600112 0
541 1 0.0435683 0.623119 0
512 1 0.0601606 0.607311 0
542 1 0.0649303 0.631272 0
543 1 0.0806726 0.613028 0
545 1 0.0949177 0.596297 0
546 1 0.0998694 0.621169 0
516 1 0.115457 0.602918 0
519 1 0.151621 0.592993 0
547 1 0.11987 0.627518 0
518 1 0.136263 0.610523 0
577 1 0.141012 0.635327 0
548 1 0.156309 0.617518 0
520 1 0.171955 0.600691 0
549 1 0.176618 0.624056 0
522 1 0.191768 0.605419 0
551 1 0.196528 0.631057 0
553 1 0.211675 0.613116 0
524 1 0.226616 0.59425 0
554 1 0.232674 0.618425 0
555 1 0.246795 0.600191 0
556 1 0.252367 0.625439 0
557 1 0.267532 0.608606 0
558 1 0.288307 0.614676 0
587 1 0.272554 0.632892 0
559 1 0.301474 0.596494 0
560 1 0.307774 0.622981 0
561 1 0.322941 0.603827 0
591 1 0.328484 0.62824 0
562 1 0.343212 0.609069 0
563 1 0.357771 0.591739 0
565 1 0.362868 0.61657 0
536 1 0.378385 0.597972 0
564 1 0.348423 0.63366 0
566 1 0.382759 0.623096 0
567 1 0.397991 0.605605 0
597 1 0.40389 0.630044 0
568 1 0.41792 0.611474 0
599 1 0.423354 0.637369 0
538 1 0.432956 0.592963 0
600 1 0.438186 0.618368 0
570 1 0.453268 0.600588 0
1501 1 0.458026 0.624599 0
1471 1 0.473452 0.605793 0
1472 1 0.478087 0.631013 0
1473 1 0.493566 0.612415 0
1529 1 0.00662411 0.67408 0
1470 1 0.0295434 0.64183 0
1500 1 0.0265328 0.667174 0
1499 1 0.0104445 0.649287 0
571 1 0.0496581 0.64761 0
572 1 0.0564187 0.671693 0
573 1 0.0709703 0.65479 0
544 1 0.0855066 0.638065 0
574 1 0.0901667 0.663069 0
575 1 0.105566 0.645757 0
605 1 0.109748 0.670591 0
576 1 0.125606 0.652736 0
607 1 0.130525 0.678747 0
578 1 0.146291 0.659393 0
579 1 0.161473 0.641394 0
609 1 0.166453 0.666553 0
550 1 0.181759 0.648004 0
580 1 0.186645 0.672806 0
552 1 0.217431 0.636976 0
581 1 0.201604 0.655182 0
582 1 0.222616 0.661063 0
611 1 0.206776 0.679038 0
583 1 0.237792 0.643364 0
584 1 0.242448 0.668734 0
585 1 0.258004 0.651667 0
615 1 0.263393 0.676036 0
586 1 0.278616 0.657422 0
589 1 0.292914 0.639425 0
588 1 0.298511 0.664041 0
590 1 0.313461 0.646261 0
621 1 0.318621 0.671244 0
593 1 0.333847 0.652432 0
592 1 0.338172 0.677083 0
594 1 0.353258 0.659552 0
595 1 0.367909 0.640678 0
625 1 0.373683 0.665029 0
596 1 0.388235 0.6465 0
627 1 0.393625 0.672369 0
598 1 0.408551 0.654144 0
657 1 0.413395 0.677436 0
628 1 0.429295 0.660659 0
629 1 0.443621 0.642991 0
630 1 0.449339 0.667082 0
1503 1 0.484992 0.655175 0
1502 1 0.463828 0.64907 0
1533 1 0.469937 0.673121 0
1504 1 0.489284 0.679187 0
1474 1 0.498762 0.636512 0
1530 1 0.0207646 0.691328 0
1560 1 0.0155037 0.714926 0
631 1 0.0362746 0.709195 0
603 1 0.075635 0.682122 0
601 1 0.0402312 0.685708 0
602 1 0.0596797 0.698605 0
632 1 0.0529293 0.724019 0
633 1 0.0793022 0.706706 0
604 1 0.0956855 0.688312 0
635 1 0.0997801 0.714515 0
606 1 0.115679 0.696455 0
608 1 0.151753 0.683624 0
636 1 0.121327 0.7193 0
637 1 0.136367 0.701797 0
667 1 0.142268 0.725695 0
638 1 0.156965 0.707587 0
639 1 0.171746 0.690672 0
641 1 0.177762 0.714919 0
610 1 0.192529 0.697441 0
642 1 0.197725 0.722126 0
612 1 0.212989 0.70301 0
613 1 0.22811 0.686111 0
643 1 0.233578 0.710646 0
614 1 0.248203 0.693095 0
645 1 0.253497 0.718393 0
616 1 0.268217 0.699816 0
617 1 0.28375 0.682209 0
647 1 0.274235 0.724652 0
618 1 0.288346 0.70658 0
619 1 0.304304 0.6891 0
620 1 0.308481 0.71318 0
622 1 0.324223 0.695125 0
651 1 0.328855 0.719412 0
653 1 0.344404 0.701674 0
623 1 0.358268 0.683233 0
624 1 0.364152 0.707969 0
626 1 0.378315 0.690325 0
654 1 0.348323 0.725654 0
655 1 0.38394 0.714648 0
656 1 0.399651 0.695984 0
686 1 0.404476 0.720931 0
658 1 0.419014 0.702139 0
659 1 0.433511 0.684621 0
660 1 0.439502 0.70797 0
1531 1 0.454321 0.690443 0
1561 1 0.459445 0.714731 0
687 1 0.424761 0.726651 0
1532 1 0.474319 0.697361 0
1563 1 0.479567 0.721361 0
1534 1 0.495051 0.703093 0
1619 1 0.00607422 0.763886 0
1589 1 0.0101863 0.73919 0
661 1 0.0310949 0.733365 0
1590 1 0.025841 0.756642 0
663 1 0.0465879 0.749172 0
662 1 0.0608651 0.766293 0
664 1 0.0668967 0.742048 0
695 1 0.0827368 0.758331 0
634 1 0.0859546 0.732854 0
665 1 0.106708 0.738965 0
697 1 0.112782 0.763521 0
666 1 0.126783 0.743832 0
668 1 0.134005 0.766387 0
669 1 0.147741 0.749155 0
640 1 0.163186 0.732928 0
670 1 0.1671 0.757741 0
671 1 0.183237 0.740526 0
672 1 0.189637 0.764805 0
644 1 0.218025 0.729012 0
673 1 0.204156 0.746921 0
674 1 0.224145 0.754302 0
703 1 0.20869 0.771759 0
675 1 0.238027 0.735265 0
705 1 0.24434 0.759786 0
646 1 0.25899 0.74234 0
677 1 0.264476 0.767427 0
648 1 0.278875 0.748808 0
649 1 0.294155 0.731563 0
679 1 0.299284 0.755911 0
650 1 0.314205 0.738252 0
681 1 0.319446 0.762257 0
652 1 0.333797 0.744883 0
682 1 0.339578 0.768929 0
683 1 0.354469 0.750725 0
685 1 0.369489 0.732935 0
684 1 0.375328 0.756132 0
715 1 0.389644 0.738568 0
714 1 0.395503 0.762784 0
717 1 0.409989 0.74501 0
716 1 0.415406 0.768537 0
688 1 0.430206 0.751084 0
689 1 0.445416 0.733548 0
719 1 0.450272 0.757807 0
690 1 0.465693 0.73954 0
1591 1 0.471247 0.764206 0
1562 1 0.485378 0.746021 0
1593 1 0.491168 0.769765 0
721 1 0.0352394 0.798487 0
1620 1 0.0200143 0.781663 0
1649 1 0.0148739 0.805581 0
1618 1 0.000544489 0.787433 0
691 1 0.0408248 0.772498 0
693 1 0.0551304 0.791312 0
723 1 0.0700124 0.809319 0
692 1 0.0497316 0.815422 0
694 1 0.0750012 0.784456 0
725 1 0.0902657 0.802557 0
696 1 0.0950503 0.77811 0
727 1 0.109475 0.796189 0
699 1 0.152348 0.776905 0
728 1 0.123787 0.813614 0
698 1 0.129346 0.789512 0
700 1 0.143578 0.806652 0
731 1 0.162082 0.799268 0
701 1 0.174259 0.780687 0
702 1 0.193279 0.791164 0
763 1 0.199079 0.814851 0
733 1 0.214393 0.796058 0
704 1 0.230318 0.778193 0
706 1 0.234797 0.803811 0
676 1 0.250034 0.785841 0
737 1 0.255595 0.809357 0
678 1 0.28434 0.773791 0
707 1 0.270048 0.792398 0
738 1 0.275949 0.816732 0
708 1 0.290447 0.799184 0
709 1 0.304826 0.780359 0
710 1 0.310848 0.80478 0
680 1 0.325374 0.787029 0
741 1 0.331558 0.811261 0
711 1 0.346421 0.792906 0
713 1 0.360463 0.775069 0
712 1 0.366425 0.799335 0
743 1 0.380792 0.780463 0
742 1 0.35154 0.817189 0
745 1 0.387431 0.804993 0
746 1 0.401145 0.786988 0
775 1 0.407165 0.811615 0
747 1 0.421584 0.793197 0
718 1 0.435406 0.775967 0
749 1 0.441961 0.799546 0
720 1 0.456246 0.780793 0
1623 1 0.496518 0.794691 0
1621 1 0.462755 0.805905 0
1592 1 0.476411 0.787744 0
1622 1 0.482299 0.814659 0
1650 1 0.0303255 0.822348 0
1709 1 0.0242307 0.846903 0
1679 1 0.0095792 0.829357 0
1678 1 0.00372997 0.854237 0
1680 1 0.0444428 0.84109 0
752 1 0.0599067 0.857644 0
751 1 0.0641942 0.833317 0
753 1 0.0792267 0.851024 0
722 1 0.0848192 0.827539 0
726 1 0.104865 0.821174 0
724 1 0.0991907 0.844817 0
757 1 0.119754 0.838176 0
756 1 0.134924 0.855681 0
729 1 0.140188 0.831133 0
755 1 0.114201 0.862554 0
732 1 0.178144 0.812633 0
759 1 0.154872 0.848749 0
730 1 0.159407 0.823418 0
761 1 0.175986 0.840017 0
792 1 0.191356 0.858513 0
735 1 0.219478 0.820208 0
762 1 0.205307 0.838705 0
734 1 0.226037 0.844848 0
736 1 0.240368 0.827463 0
765 1 0.246133 0.850805 0
767 1 0.260536 0.833542 0
766 1 0.26631 0.858883 0
768 1 0.281174 0.840861 0
739 1 0.296047 0.823395 0
769 1 0.301465 0.847553 0
740 1 0.316659 0.828592 0
770 1 0.321994 0.852241 0
771 1 0.336986 0.83572 0
801 1 0.342104 0.859874 0
773 1 0.356852 0.841399 0
744 1 0.372667 0.822747 0
803 1 0.377319 0.847832 0
774 1 0.393073 0.829844 0
776 1 0.398435 0.854362 0
777 1 0.413422 0.83628 0
778 1 0.418808 0.86139 0
748 1 0.427287 0.816825 0
779 1 0.433938 0.843471 0
750 1 0.446627 0.824546 0
780 1 0.453562 0.850308 0
1651 1 0.467322 0.83105 0
1652 1 0.473235 0.856677 0
1653 1 0.487795 0.839226 0
1683 1 0.493739 0.862851 0
1710 1 0.0193204 0.872109 0
811 1 0.0346696 0.889099 0
1739 1 0.0147615 0.896541 0
781 1 0.0402891 0.865025 0
782 1 0.0556664 0.88163 0
813 1 0.0710197 0.899837 0
783 1 0.0751788 0.875978 0
812 1 0.0499721 0.905612 0
784 1 0.0909301 0.893834 0
754 1 0.0947521 0.868829 0
785 1 0.110602 0.887158 0
786 1 0.125929 0.90416 0
787 1 0.130742 0.879806 0
788 1 0.146327 0.897575 0
758 1 0.15146 0.873263 0
760 1 0.170909 0.865544 0
789 1 0.166403 0.890383 0
791 1 0.18687 0.884087 0
790 1 0.181231 0.908601 0
764 1 0.210993 0.863883 0
823 1 0.201769 0.902748 0
793 1 0.217842 0.888303 0
795 1 0.232134 0.869264 0
794 1 0.237489 0.894337 0
796 1 0.252316 0.87702 0
825 1 0.257458 0.900949 0
797 1 0.287228 0.865014 0
827 1 0.272977 0.882798 0
798 1 0.293321 0.889055 0
826 1 0.278862 0.906913 0
799 1 0.308175 0.871882 0
829 1 0.314186 0.895457 0
800 1 0.328433 0.877844 0
831 1 0.333893 0.902475 0
802 1 0.348085 0.884257 0
772 1 0.362676 0.865566 0
804 1 0.369383 0.890098 0
805 1 0.383532 0.871677 0
833 1 0.35394 0.90843 0
806 1 0.389066 0.896496 0
807 1 0.403545 0.87966 0
837 1 0.409297 0.904188 0
809 1 0.438403 0.867717 0
808 1 0.423895 0.886078 0
810 1 0.443737 0.893287 0
1681 1 0.457563 0.874696 0
1711 1 0.464239 0.898078 0
1682 1 0.479203 0.880355 0
1713 1 0.484519 0.903887 0
1684 1 0.499603 0.886408 0
1740 1 0.0299343 0.914589 0
1769 1 0.025057 0.93874 0
1738 1 0.0104378 0.919756 0
1768 1 0.00520955 0.945224 0
841 1 0.0454021 0.930392 0
842 1 0.058882 0.948306 0
843 1 0.0654392 0.924122 0
844 1 0.0792369 0.942684 0
814 1 0.0850545 0.917603 0
815 1 0.104887 0.91092 0
845 1 0.0997935 0.935443 0
846 1 0.114753 0.953112 0
816 1 0.120782 0.929287 0
847 1 0.135761 0.947181 0
817 1 0.140641 0.922117 0
818 1 0.155264 0.9397 0
819 1 0.160903 0.914899 0
820 1 0.175451 0.932992 0
851 1 0.190132 0.949828 0
821 1 0.195615 0.925516 0
824 1 0.222919 0.912129 0
822 1 0.209834 0.942449 0
853 1 0.229954 0.935999 0
855 1 0.24378 0.918936 0
854 1 0.249746 0.944646 0
856 1 0.26401 0.925273 0
885 1 0.270429 0.949535 0
857 1 0.283591 0.931646 0
828 1 0.298592 0.913618 0
859 1 0.30505 0.938328 0
830 1 0.31906 0.920533 0
860 1 0.325359 0.945485 0
832 1 0.340106 0.926435 0
861 1 0.346672 0.951401 0
863 1 0.361111 0.933028 0
834 1 0.374717 0.915014 0
865 1 0.380949 0.939856 0
835 1 0.39471 0.921686 0
836 1 0.400779 0.947295 0
838 1 0.414792 0.928515 0
867 1 0.420402 0.953912 0
839 1 0.429265 0.911484 0
869 1 0.435182 0.936242 0
840 1 0.449274 0.917306 0
1741 1 0.45526 0.941324 0
1743 1 0.489812 0.928347 0
1712 1 0.469918 0.921876 0
1742 1 0.475201 0.9463 0
1744 1 0.496216 0.952356 0
1799 1 0.0199191 0.963442 0
1800 1 0.0342188 0.981259 0
1798 1 0.0140917 0.987032 0
1 1 0.0496572 0.999008 0
1770 1 0.039606 0.956503 0
871 1 0.0542337 0.973942 0
872 1 0.0698865 0.990361 0
873 1 0.0737645 0.967053 0
874 1 0.0897068 0.984727 0
875 1 0.0939292 0.960313 0
876 1 0.109375 0.978576 0
7 1 0.124273 0.994708 0
877 1 0.129502 0.970977 0
878 1 0.144601 0.988787 0
848 1 0.150222 0.964051 0
849 1 0.170096 0.956723 0
879 1 0.164866 0.981443 0
850 1 0.184306 0.974491 0
881 1 0.180006 0.99897 0
11 1 0.199508 0.991668 0
852 1 0.204983 0.966828 0
883 1 0.224202 0.959855 0
882 1 0.219745 0.984744 0
884 1 0.239179 0.977214 0
886 1 0.257534 0.967712 0
16 1 0.260123 0.994022 0
887 1 0.290352 0.956958 0
17 1 0.277227 0.975423 0
888 1 0.296731 0.982445 0
1708 1 0.000201516 0.878714 0
858 1 0.310769 0.962895 0
889 1 0.316812 0.988074 0
891 1 0.331312 0.969556 0
890 1 0.336611 0.994687 0
862 1 0.351116 0.977024 0
864 1 0.366394 0.957381 0
893 1 0.370884 0.982217 0
895 1 0.386681 0.965906 0
896 1 0.392324 0.990101 0
866 1 0.406334 0.971626 0
897 1 0.412215 0.995518 0
870 1 0.440884 0.960307 0
868 1 0.42672 0.976796 0
899 1 0.447057 0.984146 0
1771 1 0.461915 0.965037 0
1773 1 0.481463 0.970845 0
903 1 0.486989 0.995141 0
1772 1 0.467448 0.989255 0
1559 1 0.000259902 0.697758 0
472 1 0.355644 0.50054 0
904 1 0.51291 0.0265025 0
905 1 0.5073 0.00205148 0
906 1 0.52771 0.00827308 0
935 1 0.533423 0.032808 0
908 1 0.547669 0.0144556 0
937 1 0.55348 0.0387254 0
939 1 0.56833 0.0216175 0
940 1 0.58823 0.0267873 0
941 1 0.583252 0.00270096 0
942 1 0.782689 0.0237537 0
943 1 0.802952 0.0170609 0
944 1 0.797737 0.0407612 0
945 1 0.818259 0.0332659 0
914 1 0.823611 0.00896594 0
947 1 0.839236 0.0261418 0
916 1 0.844378 0.00194514 0
918 1 0.859589 0.0191185 0
949 1 0.874698 0.03558 0
919 1 0.879395 0.0119095 0
948 1 0.854285 0.0427088 0
920 1 0.894121 0.0289003 0
1790 1 0.899966 0.00455714 0
951 1 0.913923 0.0224665 0
952 1 0.928807 0.040557 0
922 1 0.93447 0.0161975 0
953 1 0.948764 0.0330378 0
924 1 0.954649 0.00861784 0
955 1 0.96942 0.0254633 0
925 1 0.974251 0.000704975 0
926 1 0.989801 0.0186726 0
956 1 0.985375 0.0430974 0
963 1 0.504157 0.0690085 0
934 1 0.518636 0.0516911 0
965 1 0.525774 0.0766366 0
936 1 0.538962 0.0572511 0
938 1 0.573437 0.0457497 0
966 1 0.545307 0.0836896 0
967 1 0.559756 0.0653517 0
968 1 0.566239 0.089853 0
969 1 0.580656 0.0689308 0
971 1 0.777185 0.0485316 0
970 1 0.771455 0.072876 0
973 1 0.792599 0.0652993 0
972 1 0.787111 0.0888595 0
1003 1 0.80765 0.0820002 0
975 1 0.813324 0.0574076 0
974 1 0.828212 0.0750364 0
946 1 0.833801 0.0497332 0
976 1 0.84873 0.0674944 0
977 1 0.868972 0.0597357 0
1007 1 0.863634 0.0852904 0
978 1 0.883868 0.0782016 0
979 1 0.888531 0.0541851 0