ITEM: TIMESTEP
334000
ITEM: NUMBER OF ATOMS
1800
ITEM: BOX BOUNDS pp pp pp
-1.2268010735921221e+01 1.7726801073592313e+02
1.1826529217466231e+00 1.6381734707825530e+02
0.0000000000000000e+00 5.5000000000000000e+00
ITEM: ATOMS id type xs ys zs
929 1 0.0224708 0.00587892 0
959 1 0.0171444 0.030856 0
928 1 0.00192027 0.0131046 0
930 1 0.0375485 0.0240751 0
31 1 0.0531037 0.0411676 0
2 1 0.058288 0.0168838 0
33 1 0.0732454 0.0337897 0
1228 1 0.000438048 0.362926 0
3 1 0.0789787 0.0101832 0
4 1 0.0933405 0.0274845 0
5 1 0.0998789 0.0041947 0
6 1 0.114816 0.0213592 0
35 1 0.1091 0.0448424 0
37 1 0.129927 0.0381295 0
8 1 0.134208 0.0143585 0
39 1 0.149618 0.0315593 0
880 1 0.154597 0.00741828 0
9 1 0.170866 0.0228182 0
40 1 0.18609 0.0407781 0
10 1 0.191661 0.0168086 0
1353 1 0.484626 0.471304 0
41 1 0.207094 0.033475 0
12 1 0.21231 0.0101706 0
14 1 0.227581 0.0275695 0
13 1 0.233009 0.00298743 0
15 1 0.247552 0.0208092 0
46 1 0.267944 0.0167175 0
45 1 0.244185 0.0448656 0
77 1 0.272787 0.0428679 0
47 1 0.287599 0.0229726 0
19 1 0.302052 0.00369085 0
49 1 0.307923 0.028772 0
20 1 0.322436 0.0109829 0
51 1 0.329139 0.0357406 0
21 1 0.343283 0.0170537 0
23 1 0.363932 0.0238515 0
22 1 0.349721 0.0423137 0
894 1 0.379559 0.00678309 0
24 1 0.385495 0.0304506 0
25 1 0.399919 0.0123785 0
26 1 0.406444 0.0367333 0
27 1 0.420979 0.0190268 0
29 1 0.440894 0.0263726 0
900 1 0.456477 0.0082549 0
28 1 0.427359 0.0449057 0
902 1 0.499386 0.0202678 0
30 1 0.46232 0.0324015 0
901 1 0.47721 0.0145803 0
931 1 0.483837 0.0386923 0
988 1 0.00713957 0.0813831 0
960 1 0.0325465 0.050591 0
989 1 0.027418 0.0742851 0
958 1 0.0119325 0.056343 0
61 1 0.0488057 0.0658195 0
62 1 0.0637223 0.0848137 0
32 1 0.0690501 0.0591473 0
63 1 0.0841465 0.0768714 0
34 1 0.088754 0.0521915 0
65 1 0.104685 0.0698704 0
66 1 0.120655 0.0870831 0
36 1 0.124822 0.0623728 0
67 1 0.140409 0.0796307 0
38 1 0.145173 0.0555815 0
69 1 0.165286 0.0471354 0
68 1 0.160706 0.0711267 0
71 1 0.180723 0.064615 0
70 1 0.175781 0.0892957 0
72 1 0.197011 0.0823545 0
42 1 0.202287 0.0577598 0
43 1 0.223389 0.0509338 0
73 1 0.217194 0.0745613 0
44 1 0.23854 0.0692958 0
74 1 0.265025 0.0853054 0
75 1 0.25901 0.0619482 0
76 1 0.280001 0.0671459 0
48 1 0.293674 0.0480834 0
79 1 0.300212 0.0725583 0
78 1 0.285608 0.0912805 0
50 1 0.313795 0.053657 0
81 1 0.320167 0.0797015 0
52 1 0.333985 0.0604535 0
82 1 0.340953 0.0850833 0
83 1 0.355432 0.0672869 0
53 1 0.370741 0.0488556 0
54 1 0.375575 0.0734915 0
55 1 0.390819 0.0549658 0
56 1 0.395972 0.0799213 0
57 1 0.410899 0.0605968 0
87 1 0.417236 0.0860774 0
58 1 0.432284 0.0692986 0
59 1 0.447777 0.0510505 0
89 1 0.453135 0.0753132 0
932 1 0.4894 0.0625417 0
60 1 0.468181 0.0566899 0
961 1 0.474456 0.0808786 0
962 1 0.494973 0.0873749 0
1019 1 0.0232089 0.0984418 0
1049 1 0.0178152 0.123444 0
1018 1 0.00208924 0.106096 0
1020 1 0.0382983 0.116444 0
990 1 0.043349 0.0910016 0
121 1 0.0539591 0.133548 0
91 1 0.0585589 0.109084 0
92 1 0.0741288 0.126169 0
93 1 0.0792638 0.101909 0
64 1 0.10023 0.0939206 0
94 1 0.094718 0.11807 0
95 1 0.115817 0.110915 0
96 1 0.130153 0.128395 0
97 1 0.136017 0.103734 0
98 1 0.15006 0.121228 0
99 1 0.156288 0.0963984 0
100 1 0.171524 0.114838 0
130 1 0.186758 0.131711 0
101 1 0.191232 0.106986 0
102 1 0.207319 0.124346 0
103 1 0.211679 0.100563 0
104 1 0.231485 0.11949 0
105 1 0.231231 0.0923861 0
106 1 0.249599 0.103192 0
137 1 0.254096 0.126851 0
107 1 0.27027 0.109999 0
109 1 0.29014 0.115837 0
108 1 0.274011 0.134156 0
80 1 0.305929 0.0980799 0
110 1 0.310456 0.122248 0
111 1 0.326218 0.103418 0
141 1 0.331053 0.128244 0
113 1 0.346653 0.109637 0
84 1 0.361474 0.091679 0
112 1 0.366504 0.115545 0
85 1 0.381841 0.098327 0
143 1 0.352037 0.135024 0
115 1 0.386918 0.122951 0
86 1 0.40206 0.10491 0
116 1 0.409013 0.12993 0
117 1 0.423439 0.111087 0
88 1 0.438327 0.092796 0
119 1 0.443406 0.117321 0
90 1 0.459248 0.0988173 0
118 1 0.429033 0.135804 0
120 1 0.464574 0.12286 0
991 1 0.479917 0.104193 0
992 1 0.485856 0.129627 0
1050 1 0.0340626 0.141577 0
1079 1 0.0281817 0.166008 0
1048 1 0.0127976 0.148656 0
1077 1 0.00764396 0.173544 0
151 1 0.0484468 0.158305 0
122 1 0.0690666 0.151449 0
152 1 0.0641512 0.177079 0
125 1 0.109401 0.135618 0
153 1 0.0837883 0.168826 0
123 1 0.0894131 0.143131 0
124 1 0.103871 0.160231 0
155 1 0.11976 0.175732 0
126 1 0.124143 0.152254 0
157 1 0.139975 0.169334 0
127 1 0.144818 0.145927 0
129 1 0.165282 0.138933 0
128 1 0.161374 0.163896 0
159 1 0.181374 0.154539 0
132 1 0.189535 0.177309 0
131 1 0.202933 0.158617 0
133 1 0.220202 0.143581 0
134 1 0.224474 0.166738 0
135 1 0.240272 0.14645 0
165 1 0.245069 0.171531 0
136 1 0.260363 0.15265 0
167 1 0.265359 0.177616 0
138 1 0.2799 0.159463 0
139 1 0.294759 0.14087 0
169 1 0.301578 0.164596 0
140 1 0.316362 0.147093 0
171 1 0.322759 0.171302 0
142 1 0.336975 0.152809 0
172 1 0.343392 0.176797 0
173 1 0.358144 0.158757 0
114 1 0.372594 0.141025 0
144 1 0.378863 0.166109 0
145 1 0.392661 0.147949 0
146 1 0.39956 0.172586 0
147 1 0.414733 0.155029 0
177 1 0.419516 0.179958 0
148 1 0.434524 0.161252 0
149 1 0.450099 0.141784 0
150 1 0.455351 0.166843 0
1051 1 0.47577 0.173438 0
1021 1 0.471339 0.148396 0
1022 1 0.491864 0.15614 0
1053 1 0.496945 0.180209 0
1076 1 0.00307759 0.197715 0
1107 1 0.018042 0.214922 0
1078 1 0.0230493 0.191105 0
1109 1 0.0393894 0.213767 0
1080 1 0.0429119 0.184271 0
181 1 0.0576222 0.201725 0
182 1 0.0638367 0.225259 0
183 1 0.0788727 0.195366 0
154 1 0.0986519 0.18596 0
185 1 0.0990023 0.213863 0
156 1 0.116666 0.199946 0
186 1 0.12266 0.223723 0
158 1 0.137449 0.205101 0
160 1 0.152979 0.188249 0
189 1 0.158587 0.211656 0
161 1 0.173252 0.194744 0
191 1 0.17949 0.218909 0
163 1 0.209734 0.184187 0
162 1 0.194283 0.20149 0
192 1 0.199836 0.225904 0
193 1 0.214834 0.207935 0
164 1 0.23022 0.190151 0
195 1 0.236026 0.21309 0
166 1 0.250531 0.196123 0
196 1 0.25586 0.219833 0
168 1 0.286571 0.183823 0
197 1 0.27154 0.201139 0
199 1 0.291694 0.207895 0
170 1 0.307124 0.188946 0
198 1 0.276154 0.225748 0
200 1 0.312448 0.213776 0
201 1 0.327703 0.195831 0
202 1 0.333154 0.220376 0
174 1 0.363614 0.184085 0
203 1 0.34838 0.202449 0
204 1 0.370409 0.208313 0
233 1 0.354887 0.226304 0
175 1 0.38462 0.189794 0
205 1 0.390048 0.216045 0
176 1 0.404293 0.197278 0
207 1 0.41051 0.221595 0
179 1 0.440154 0.186201 0
178 1 0.42489 0.204527 0
209 1 0.445869 0.210151 0
180 1 0.46132 0.191714 0
208 1 0.430708 0.228918 0
1081 1 0.466399 0.216422 0
1052 1 0.482677 0.199137 0
1082 1 0.486786 0.223549 0
1140 1 0.0339299 0.259498 0
1110 1 0.0287715 0.235793 0
1108 1 0.0133652 0.253798 0
211 1 0.0496647 0.243637 0
212 1 0.0548521 0.267875 0
213 1 0.0702888 0.2505 0
184 1 0.0846581 0.233097 0
214 1 0.0907796 0.25628 0
215 1 0.10572 0.238447 0
216 1 0.110989 0.26417 0
187 1 0.143437 0.229917 0
217 1 0.12645 0.24776 0
218 1 0.132602 0.271507 0
188 1 0.147541 0.253699 0
190 1 0.163335 0.235226 0
220 1 0.168819 0.260063 0
221 1 0.184499 0.242865 0
222 1 0.190147 0.266279 0
223 1 0.205542 0.249064 0
194 1 0.22105 0.231058 0
224 1 0.225605 0.256269 0
225 1 0.240144 0.237906 0
226 1 0.246256 0.261262 0
227 1 0.260745 0.244011 0
257 1 0.267029 0.267514 0
228 1 0.281088 0.250743 0
229 1 0.297142 0.232811 0
230 1 0.303407 0.256311 0
231 1 0.318697 0.239263 0
261 1 0.32355 0.263267 0
232 1 0.339208 0.244953 0
263 1 0.344097 0.269482 0
234 1 0.359855 0.251248 0
235 1 0.375152 0.233355 0
265 1 0.380517 0.257996 0
206 1 0.395655 0.240062 0
236 1 0.400594 0.264101 0
237 1 0.415519 0.247021 0
238 1 0.421233 0.270504 0
239 1 0.436426 0.25298 0
210 1 0.451202 0.234828 0
240 1 0.457312 0.259134 0
1111 1 0.471297 0.240546 0
1112 1 0.477656 0.265249 0
1113 1 0.491846 0.247552 0
1142 1 0.497645 0.272719 0
1138 1 0.00332907 0.295434 0
1139 1 0.0186599 0.278075 0
1169 1 0.0239788 0.302174 0
243 1 0.0750938 0.274342 0
241 1 0.0390091 0.284024 0
271 1 0.0453531 0.309721 0
242 1 0.0606816 0.291186 0
273 1 0.0660173 0.31623 0
244 1 0.0809528 0.298756 0
245 1 0.0967884 0.281582 0
246 1 0.101766 0.305798 0
247 1 0.116806 0.288592 0
248 1 0.122414 0.313096 0
249 1 0.137655 0.295784 0
219 1 0.153919 0.277465 0
250 1 0.159283 0.301692 0
251 1 0.174118 0.284025 0
281 1 0.18015 0.307639 0
253 1 0.210964 0.274454 0
252 1 0.19509 0.290324 0
283 1 0.201206 0.315203 0
254 1 0.215917 0.298369 0
255 1 0.231671 0.280727 0
285 1 0.23632 0.304169 0
256 1 0.251589 0.285286 0
287 1 0.25685 0.310411 0
259 1 0.287336 0.27424 0
258 1 0.271759 0.292325 0
289 1 0.292684 0.298465 0
288 1 0.27685 0.315708 0
260 1 0.308188 0.280745 0
291 1 0.312628 0.305396 0
262 1 0.328739 0.286992 0
292 1 0.333562 0.312954 0
293 1 0.348587 0.294729 0
264 1 0.364221 0.27611 0
295 1 0.369383 0.29991 0
294 1 0.35544 0.318899 0
266 1 0.384585 0.282518 0
297 1 0.39054 0.306061 0
267 1 0.405673 0.288333 0
298 1 0.411062 0.312737 0
268 1 0.426722 0.294171 0
269 1 0.442042 0.277093 0
270 1 0.446857 0.301315 0
1141 1 0.462109 0.28354 0
300 1 0.468208 0.307915 0
1171 1 0.482613 0.289859 0
1172 1 0.48835 0.314703 0
1168 1 0.00926908 0.320422 0
1229 1 0.0351282 0.352057 0
1170 1 0.0296724 0.327686 0
1199 1 0.0151005 0.344671 0
1200 1 0.050806 0.333438 0
301 1 0.0549974 0.358099 0
272 1 0.0713956 0.341036 0
275 1 0.0866017 0.323917 0
274 1 0.0923281 0.347699 0
276 1 0.107285 0.330138 0
305 1 0.112668 0.355005 0
279 1 0.144315 0.319107 0
277 1 0.128935 0.336558 0
278 1 0.1492 0.343933 0
307 1 0.133823 0.360444 0
280 1 0.164246 0.326351 0
311 1 0.169799 0.351387 0
282 1 0.184822 0.332633 0
312 1 0.190331 0.357697 0
313 1 0.205688 0.340091 0
284 1 0.221576 0.322576 0
315 1 0.226599 0.345708 0
286 1 0.241287 0.32864 0
316 1 0.24755 0.353065 0
317 1 0.262276 0.333974 0
318 1 0.267804 0.358798 0
319 1 0.282161 0.341024 0
290 1 0.29739 0.322805 0
320 1 0.302558 0.347306 0
321 1 0.317976 0.329941 0
322 1 0.322947 0.355207 0
323 1 0.339863 0.336758 0
324 1 0.34426 0.361297 0
325 1 0.360934 0.342892 0
296 1 0.375931 0.324876 0
326 1 0.381969 0.34965 0
327 1 0.396157 0.331277 0
328 1 0.402647 0.355835 0
329 1 0.416647 0.337185 0
358 1 0.422708 0.360801 0
299 1 0.43193 0.31957 0
359 1 0.438177 0.34317 0
330 1 0.45323 0.325646 0
360 1 0.459072 0.3502 0
1233 1 0.499394 0.362971 0
1202 1 0.494047 0.338055 0
1201 1 0.473698 0.33254 0
1231 1 0.479068 0.35733 0
1259 1 0.0203111 0.368816 0
1260 1 0.0256308 0.394475 0
1258 1 0.00535963 0.387433 0
1230 1 0.0407274 0.376934 0
331 1 0.046544 0.400809 0
302 1 0.061136 0.383151 0
332 1 0.0665947 0.407367 0
303 1 0.0755826 0.364628 0
333 1 0.0816274 0.388606 0
304 1 0.0971991 0.371549 0
335 1 0.102817 0.394952 0
306 1 0.118234 0.378388 0
337 1 0.12405 0.402451 0
308 1 0.138881 0.385442 0
309 1 0.1542 0.368033 0
339 1 0.160446 0.392157 0
310 1 0.175742 0.375363 0
341 1 0.180169 0.399442 0
314 1 0.211281 0.364381 0
343 1 0.19583 0.381523 0
342 1 0.20068 0.405659 0
344 1 0.216543 0.388614 0
345 1 0.231659 0.371596 0
346 1 0.237687 0.39572 0
347 1 0.252386 0.376933 0
377 1 0.2588 0.401755 0
349 1 0.287842 0.365588 0
348 1 0.273083 0.382871 0
350 1 0.293409 0.390676 0
378 1 0.27816 0.408206 0
351 1 0.308343 0.372346 0
381 1 0.31416 0.398228 0
353 1 0.329537 0.379083 0
352 1 0.335359 0.403003 0
354 1 0.350758 0.38532 0
355 1 0.365623 0.366891 0
356 1 0.371736 0.390827 0
357 1 0.387289 0.373295 0
386 1 0.392739 0.397669 0
387 1 0.407859 0.379486 0
388 1 0.413007 0.403951 0
389 1 0.429291 0.386288 0
1232 1 0.444124 0.36851 0
1261 1 0.449926 0.392809 0
1262 1 0.464281 0.374475 0
1293 1 0.469903 0.399725 0
1263 1 0.484032 0.381388 0
1294 1 0.489833 0.405912 0
1289 1 0.00965193 0.411112 0
1319 1 0.0152324 0.435976 0
391 1 0.0365322 0.442753 0
1290 1 0.0304406 0.418548 0
361 1 0.0514977 0.424891 0
362 1 0.0580577 0.4502 0
363 1 0.0718011 0.432197 0
334 1 0.0874037 0.413234 0
365 1 0.0933385 0.438588 0
336 1 0.108414 0.419347 0
366 1 0.114622 0.445334 0
338 1 0.144324 0.410021 0
367 1 0.128335 0.426886 0
369 1 0.149577 0.434275 0
368 1 0.134949 0.450719 0
340 1 0.164906 0.417509 0
370 1 0.170287 0.440921 0
371 1 0.185212 0.423073 0
401 1 0.191258 0.447152 0
372 1 0.206744 0.429825 0
373 1 0.221899 0.412562 0
374 1 0.227447 0.436096 0
375 1 0.243229 0.418835 0
405 1 0.248134 0.444075 0
376 1 0.263324 0.426633 0
407 1 0.268591 0.451431 0
409 1 0.283382 0.433473 0
379 1 0.298957 0.41571 0
380 1 0.305056 0.438476 0
382 1 0.320168 0.420574 0
413 1 0.32633 0.444105 0
383 1 0.341392 0.426847 0
385 1 0.356531 0.408885 0
412 1 0.346959 0.451238 0
414 1 0.361791 0.433534 0
384 1 0.376573 0.415418 0
415 1 0.382128 0.439963 0
417 1 0.39744 0.422025 0
416 1 0.402705 0.446791 0
418 1 0.418769 0.428416 0
447 1 0.423219 0.452673 0
419 1 0.433487 0.410134 0
390 1 0.439158 0.435513 0
1291 1 0.454761 0.417255 0
1321 1 0.459845 0.440185 0
1323 1 0.496101 0.430222 0
1292 1 0.475922 0.423202 0
1322 1 0.480042 0.447572 0
1318 1 0.000358562 0.453306 0
1320 1 0.0218125 0.460511 0
421 1 0.0273059 0.484466 0
1349 1 0.00624194 0.47743 0
423 1 0.0676392 0.498806 0
392 1 0.0419543 0.467206 0
422 1 0.0480126 0.491409 0
393 1 0.0632249 0.474044 0
364 1 0.0786206 0.456561 0
394 1 0.0839966 0.481244 0
395 1 0.0998395 0.463558 0
396 1 0.105111 0.487471 0
397 1 0.119986 0.468898 0
427 1 0.12546 0.494977 0
398 1 0.140435 0.47685 0
399 1 0.155059 0.458075 0
429 1 0.161055 0.483569 0
400 1 0.176354 0.464321 0
431 1 0.182037 0.489469 0
403 1 0.212125 0.454585 0
402 1 0.197097 0.471768 0
432 1 0.202659 0.495886 0
433 1 0.217621 0.479455 0
404 1 0.232628 0.461778 0
435 1 0.238441 0.486299 0
406 1 0.253279 0.468592 0
436 1 0.259017 0.492858 0
1352 1 0.490432 0.496133 0
408 1 0.273796 0.475532 0
410 1 0.289 0.456834 0
441 1 0.293755 0.481625 0
411 1 0.309271 0.462099 0
440 1 0.314638 0.487057 0
442 1 0.330268 0.468305 0
471 1 0.335421 0.491949 0
473 1 0.351841 0.475967 0
443 1 0.366682 0.458136 0
444 1 0.372091 0.482018 0
445 1 0.386974 0.464908 0
475 1 0.392293 0.488912 0
446 1 0.408104 0.471311 0
477 1 0.41394 0.494837 0
448 1 0.428919 0.476619 0
420 1 0.44349 0.458571 0
449 1 0.449628 0.48296 0
1351 1 0.470073 0.488915 0
450 1 0.464749 0.465026 0
898 1 0.435609 0.00149652 0
451 1 0.032229 0.508252 0
1380 1 0.015717 0.526549 0
1350 1 0.0120254 0.501684 0
452 1 0.0374775 0.532463 0
453 1 0.0530354 0.515939 0
454 1 0.0583345 0.541187 0
424 1 0.0731022 0.523402 0
425 1 0.0891656 0.505289 0
455 1 0.0945011 0.530797 0
426 1 0.110033 0.512749 0
456 1 0.115022 0.536319 0
457 1 0.130376 0.518962 0
459 1 0.150522 0.526216 0
458 1 0.135988 0.543794 0
428 1 0.145466 0.501233 0
430 1 0.166361 0.507274 0
460 1 0.171269 0.533887 0
461 1 0.18668 0.514566 0
462 1 0.191755 0.538903 0
463 1 0.207056 0.52059 0
434 1 0.223123 0.503978 0
464 1 0.22849 0.52745 0
465 1 0.243714 0.509762 0
466 1 0.249277 0.534183 0
437 1 0.264609 0.51705 0
497 1 0.270436 0.541545 0
467 1 0.285231 0.524324 0
438 1 0.300175 0.505652 0
468 1 0.305858 0.529964 0
469 1 0.321545 0.510868 0
499 1 0.326641 0.53688 0
470 1 0.341889 0.518787 0
503 1 0.362843 0.526083 0
501 1 0.347064 0.544482 0
474 1 0.376885 0.506609 0
472 1 0.356791 0.50038 0
505 1 0.382506 0.530856 0
476 1 0.397807 0.513289 0
506 1 0.402692 0.537481 0
507 1 0.418898 0.518957 0
480 1 0.439997 0.526717 0
479 1 0.454873 0.508337 0
478 1 0.434947 0.501118 0
509 1 0.424287 0.543797 0
510 1 0.460707 0.532631 0
1382 1 0.496315 0.519952 0
1381 1 0.475957 0.513543 0
1411 1 0.481692 0.537794 0
1409 1 0.000639451 0.546567 0
481 1 0.0215609 0.550911 0
1410 1 0.0271035 0.576224 0
1408 1 0.00591755 0.571081 0
483 1 0.0419447 0.557803 0
482 1 0.0477646 0.58288 0
513 1 0.0636381 0.565165 0
514 1 0.0690057 0.589291 0
485 1 0.0790661 0.548003 0
484 1 0.0843836 0.571975 0
486 1 0.100149 0.554441 0
515 1 0.104926 0.578168 0
487 1 0.120386 0.560294 0
517 1 0.126684 0.584594 0
488 1 0.142111 0.567719 0
489 1 0.156624 0.551194 0
490 1 0.162752 0.574676 0
491 1 0.177712 0.558444 0
521 1 0.183672 0.582447 0
493 1 0.212385 0.544921 0
492 1 0.198094 0.564096 0
523 1 0.204482 0.590154 0
494 1 0.217959 0.570371 0
495 1 0.233119 0.552329 0
525 1 0.238384 0.577677 0
496 1 0.254402 0.559586 0
526 1 0.260282 0.585145 0
527 1 0.275442 0.565445 0
498 1 0.291388 0.548775 0
529 1 0.296482 0.573523 0
528 1 0.280777 0.59009 0
500 1 0.311739 0.554942 0
530 1 0.31645 0.580061 0
531 1 0.331324 0.561665 0
532 1 0.337919 0.58639 0
533 1 0.351929 0.568471 0
502 1 0.367151 0.55034 0
534 1 0.373156 0.574213 0
504 1 0.388133 0.556208 0
535 1 0.394763 0.580558 0
508 1 0.409459 0.562402 0
537 1 0.415321 0.58611 0
539 1 0.430356 0.568164 0
540 1 0.445565 0.550814 0
569 1 0.451621 0.574479 0
1443 1 0.492811 0.586476 0
1442 1 0.472186 0.579369 0
1441 1 0.466545 0.5558 0
1412 1 0.487427 0.562528 0
511 1 0.033001 0.600973 0
1440 1 0.0181018 0.621289 0
1439 1 0.0126491 0.594753 0
541 1 0.0396131 0.624743 0
512 1 0.0544209 0.607115 0
542 1 0.0604255 0.631222 0
543 1 0.0757209 0.613639 0
545 1 0.0897997 0.595529 0
546 1 0.0961211 0.620515 0
516 1 0.111027 0.602705 0
547 1 0.116931 0.628271 0
519 1 0.147555 0.593228 0
518 1 0.131838 0.609895 0
548 1 0.153238 0.616911 0
577 1 0.137334 0.634901 0
520 1 0.16872 0.59927 0
549 1 0.173264 0.624355 0
522 1 0.18916 0.606188 0
551 1 0.193383 0.631353 0
553 1 0.209123 0.614323 0
524 1 0.224395 0.595473 0
554 1 0.230157 0.619968 0
552 1 0.215022 0.637638 0
555 1 0.245185 0.60294 0
556 1 0.252341 0.627193 0
557 1 0.265763 0.60916 0
558 1 0.285978 0.614629 0
587 1 0.272124 0.633712 0
559 1 0.300961 0.597832 0
560 1 0.306765 0.621994 0
561 1 0.321894 0.603753 0
591 1 0.327435 0.627953 0
562 1 0.343001 0.61032 0
563 1 0.358101 0.592612 0
565 1 0.364538 0.616138 0
536 1 0.379148 0.597544 0
564 1 0.348437 0.634268 0
566 1 0.38521 0.623076 0
567 1 0.400124 0.603536 0
597 1 0.406091 0.629545 0
568 1 0.420509 0.610741 0
538 1 0.435772 0.592138 0
600 1 0.44137 0.615969 0
570 1 0.456642 0.598741 0
599 1 0.426803 0.634446 0
1501 1 0.461771 0.623681 0
1471 1 0.47804 0.604731 0
1472 1 0.482879 0.629393 0
1473 1 0.499107 0.610144 0
1529 1 0.00123082 0.675612 0
1470 1 0.02612 0.643373 0
1500 1 0.0219328 0.66782 0
1499 1 0.00548623 0.651567 0
571 1 0.0460222 0.648266 0
572 1 0.0514523 0.671814 0
573 1 0.0661066 0.65529 0
603 1 0.0710733 0.680627 0
544 1 0.0814643 0.639023 0
574 1 0.0863532 0.662712 0
575 1 0.101823 0.644697 0
605 1 0.106687 0.670143 0
576 1 0.122301 0.652893 0
607 1 0.126925 0.677462 0
578 1 0.142758 0.659764 0
579 1 0.15744 0.641611 0
609 1 0.163749 0.666502 0
550 1 0.178528 0.649195 0
580 1 0.183814 0.673232 0
581 1 0.199137 0.656168 0
611 1 0.205306 0.680369 0
582 1 0.21951 0.661851 0
583 1 0.235343 0.645264 0
584 1 0.241079 0.668997 0
585 1 0.257119 0.651436 0
615 1 0.262235 0.675189 0
586 1 0.277293 0.657548 0
589 1 0.29246 0.640004 0
588 1 0.298253 0.665026 0
590 1 0.312648 0.646834 0
621 1 0.319886 0.670616 0
593 1 0.33373 0.652693 0
592 1 0.339596 0.676732 0
594 1 0.354583 0.658132 0
595 1 0.3697 0.640631 0
625 1 0.375177 0.664809 0
596 1 0.39092 0.646976 0
627 1 0.396679 0.671626 0
598 1 0.411517 0.652952 0
657 1 0.416653 0.678316 0
628 1 0.431847 0.659226 0
629 1 0.447001 0.641245 0
630 1 0.452455 0.665646 0
1503 1 0.489194 0.653594 0
1502 1 0.468266 0.647989 0
1533 1 0.47392 0.671492 0
1504 1 0.494128 0.678047 0
601 1 0.0357297 0.68607 0
631 1 0.0326062 0.711031 0
1530 1 0.0159354 0.693315 0
1560 1 0.0109705 0.717795 0
602 1 0.0526519 0.700353 0
633 1 0.0754875 0.705801 0
604 1 0.0914412 0.688221 0
635 1 0.096034 0.714543 0
606 1 0.111964 0.695198 0
636 1 0.116465 0.720607 0
608 1 0.1473 0.685227 0
637 1 0.132268 0.702744 0
667 1 0.137747 0.726472 0
638 1 0.153525 0.708773 0
639 1 0.168924 0.690376 0
641 1 0.174564 0.714688 0
610 1 0.189862 0.698299 0
642 1 0.195101 0.722432 0
612 1 0.210002 0.705502 0
613 1 0.225845 0.685954 0
643 1 0.231921 0.711243 0
614 1 0.246512 0.693789 0
645 1 0.252218 0.718073 0
616 1 0.26763 0.69979 0
617 1 0.282962 0.681253 0
647 1 0.272496 0.724515 0
618 1 0.288343 0.705367 0
619 1 0.304169 0.688519 0
620 1 0.309086 0.712767 0
622 1 0.324117 0.694799 0
651 1 0.329674 0.718716 0
653 1 0.344897 0.701307 0
623 1 0.360201 0.682238 0
624 1 0.365634 0.707224 0
626 1 0.380979 0.688824 0
654 1 0.35145 0.72564 0
655 1 0.386775 0.713055 0
656 1 0.400918 0.695154 0
686 1 0.407024 0.719736 0
658 1 0.422261 0.702064 0
659 1 0.437575 0.684398 0
660 1 0.443452 0.707768 0
1531 1 0.460024 0.690253 0
687 1 0.428348 0.72528 0
1561 1 0.464503 0.714139 0
1532 1 0.479689 0.695725 0
1563 1 0.485472 0.720871 0
1589 1 0.00466393 0.74178 0
661 1 0.0258234 0.734509 0
1590 1 0.0195378 0.759089 0
632 1 0.0470148 0.728721 0
663 1 0.0405555 0.752583 0
662 1 0.0565425 0.769884 0
664 1 0.0622272 0.745759 0
634 1 0.0789492 0.730917 0
695 1 0.0825098 0.757429 0
665 1 0.100122 0.739033 0
697 1 0.106803 0.762979 0
666 1 0.121261 0.743764 0
668 1 0.128314 0.766081 0
669 1 0.143904 0.750256 0
640 1 0.159131 0.733067 0
670 1 0.16431 0.757079 0
671 1 0.179702 0.7394 0
672 1 0.187459 0.764135 0
644 1 0.216261 0.729094 0
673 1 0.200722 0.745904 0
674 1 0.220734 0.753748 0
675 1 0.236886 0.736912 0
705 1 0.242445 0.761448 0
646 1 0.257588 0.74322 0
677 1 0.263191 0.767546 0
648 1 0.278162 0.748177 0
649 1 0.294563 0.730878 0
679 1 0.29889 0.755336 0
650 1 0.315164 0.736733 0
681 1 0.319928 0.76088 0
652 1 0.335604 0.743093 0
682 1 0.341575 0.767991 0
683 1 0.356834 0.750032 0
685 1 0.37293 0.731991 0
684 1 0.378195 0.75637 0
715 1 0.393038 0.738551 0
714 1 0.398714 0.762897 0
717 1 0.414186 0.743653 0
716 1 0.419185 0.768926 0
688 1 0.435255 0.750691 0
689 1 0.448931 0.732088 0
719 1 0.455433 0.756938 0
690 1 0.470334 0.738362 0
1591 1 0.475584 0.761978 0
1562 1 0.491169 0.745357 0
1593 1 0.497008 0.769578 0
691 1 0.03511 0.775903 0
721 1 0.0290048 0.799976 0
1620 1 0.0140511 0.7827 0
1649 1 0.0085401 0.808866 0
693 1 0.0498901 0.793895 0
723 1 0.0650483 0.810672 0
694 1 0.0711552 0.786761 0
725 1 0.0859418 0.804211 0
696 1 0.0921789 0.780755 0
727 1 0.107663 0.79831 0
699 1 0.148379 0.775695 0
728 1 0.121334 0.816489 0
698 1 0.127492 0.790563 0
700 1 0.140646 0.809023 0
731 1 0.158458 0.797663 0
701 1 0.172156 0.780683 0
732 1 0.1775 0.808478 0
702 1 0.191795 0.789922 0
703 1 0.20683 0.772382 0
763 1 0.198008 0.815185 0
733 1 0.212012 0.798048 0
704 1 0.227077 0.779971 0
706 1 0.232762 0.80545 0
676 1 0.247792 0.786266 0
737 1 0.253953 0.809435 0
707 1 0.268884 0.792009 0
678 1 0.283739 0.773204 0
738 1 0.276152 0.815984 0
708 1 0.289395 0.797769 0
709 1 0.305395 0.779683 0
710 1 0.311678 0.803724 0
680 1 0.327017 0.785862 0
741 1 0.333451 0.809908 0
713 1 0.363512 0.773483 0
711 1 0.347847 0.792217 0
712 1 0.368342 0.797688 0
743 1 0.383602 0.780903 0
742 1 0.35345 0.81623 0
745 1 0.389889 0.804569 0
746 1 0.4045 0.786403 0
775 1 0.410464 0.810993 0
718 1 0.441302 0.774636 0
747 1 0.424795 0.793048 0
749 1 0.445418 0.798016 0
720 1 0.461833 0.780837 0
748 1 0.43096 0.817473 0
1621 1 0.466896 0.805141 0
1592 1 0.481792 0.786195 0
1622 1 0.487094 0.810379 0
1650 1 0.0244772 0.825523 0
1709 1 0.0183687 0.850303 0
1679 1 0.00369205 0.833401 0
692 1 0.0448005 0.817062 0
1680 1 0.0391025 0.842673 0
752 1 0.0544252 0.860615 0
751 1 0.0595035 0.834764 0
753 1 0.0742128 0.852325 0
722 1 0.0800887 0.828425 0
726 1 0.100596 0.822348 0
724 1 0.0952087 0.846708 0
757 1 0.11651 0.840409 0
756 1 0.132148 0.856974 0
729 1 0.13661 0.833385 0
759 1 0.153117 0.849698 0
730 1 0.15821 0.82486 0
761 1 0.182679 0.835331 0
792 1 0.190021 0.860026 0
735 1 0.218229 0.822856 0
762 1 0.20311 0.840525 0
734 1 0.224349 0.847351 0
736 1 0.239067 0.829355 0
765 1 0.245826 0.852228 0
767 1 0.260418 0.832785 0
766 1 0.266722 0.857238 0
768 1 0.282047 0.840042 0
739 1 0.297415 0.822597 0
769 1 0.302131 0.847069 0
740 1 0.318353 0.828311 0
770 1 0.323103 0.851765 0
771 1 0.338808 0.834485 0
801 1 0.342963 0.859449 0
773 1 0.360112 0.840622 0
744 1 0.374035 0.821947 0
803 1 0.380697 0.846856 0
774 1 0.394863 0.828065 0
776 1 0.400941 0.853242 0
777 1 0.41539 0.835269 0
778 1 0.421296 0.859892 0
779 1 0.436078 0.842076 0
750 1 0.451522 0.824657 0
780 1 0.457437 0.848465 0
1651 1 0.473039 0.828811 0
1652 1 0.478415 0.854368 0
1653 1 0.493373 0.835513 0
1683 1 0.498996 0.860961 0
781 1 0.0343023 0.866461 0
1710 1 0.013655 0.874376 0
811 1 0.0289503 0.89052 0
1739 1 0.00887757 0.899336 0
782 1 0.0488763 0.884109 0
813 1 0.06461 0.901418 0
783 1 0.0697403 0.877777 0
755 1 0.11043 0.864461 0
784 1 0.0843413 0.89571 0
754 1 0.0896098 0.870656 0
785 1 0.104744 0.888746 0
786 1 0.120756 0.905492 0
787 1 0.12654 0.880678 0
788 1 0.140878 0.898607 0
758 1 0.14682 0.874921 0
760 1 0.16783 0.867418 0
789 1 0.163311 0.891797 0
791 1 0.184257 0.884964 0
764 1 0.209981 0.865765 0
823 1 0.198471 0.902975 0
793 1 0.215791 0.889251 0
795 1 0.230471 0.872106 0
794 1 0.236277 0.89534 0
796 1 0.250949 0.876211 0
825 1 0.25718 0.900968 0
797 1 0.286641 0.86468 0
827 1 0.271107 0.882217 0
826 1 0.279095 0.906584 0
798 1 0.293547 0.88766 0
799 1 0.309002 0.870092 0
829 1 0.31406 0.894978 0
800 1 0.329243 0.877822 0
831 1 0.335908 0.901353 0
802 1 0.349761 0.883184 0
772 1 0.364721 0.865093 0
804 1 0.370959 0.888914 0
833 1 0.356574 0.908003 0
805 1 0.386722 0.871444 0
806 1 0.392266 0.896771 0
807 1 0.407007 0.878738 0
837 1 0.412782 0.90223 0
809 1 0.442382 0.866884 0
808 1 0.427579 0.884507 0
810 1 0.44872 0.89068 0
839 1 0.433598 0.908945 0
1681 1 0.462976 0.873675 0
1711 1 0.469257 0.897406 0
1682 1 0.48368 0.879014 0
1713 1 0.490001 0.903722 0
1740 1 0.0233271 0.916643 0
1769 1 0.0173573 0.941066 0
1738 1 0.0030975 0.923071 0
841 1 0.0384451 0.934085 0
812 1 0.0439099 0.909618 0
842 1 0.0540241 0.950771 0
843 1 0.0595844 0.925608 0
844 1 0.0746236 0.943606 0
814 1 0.0799226 0.919842 0
815 1 0.100121 0.913511 0
845 1 0.0949186 0.937487 0
846 1 0.110521 0.955149 0
816 1 0.115809 0.930526 0
847 1 0.131547 0.947216 0
817 1 0.136238 0.923729 0
818 1 0.151877 0.940284 0
790 1 0.177875 0.910009 0
819 1 0.156871 0.916036 0
820 1 0.172783 0.934268 0
851 1 0.187514 0.951696 0
821 1 0.192805 0.927103 0
824 1 0.219433 0.91494 0
822 1 0.207718 0.9451 0
853 1 0.228095 0.937889 0
855 1 0.24205 0.918647 0
854 1 0.248679 0.942259 0
856 1 0.263848 0.924458 0
885 1 0.269758 0.948931 0
857 1 0.284527 0.930283 0
828 1 0.299482 0.912763 0
859 1 0.306206 0.937794 0
830 1 0.320431 0.919237 0
860 1 0.326305 0.943991 0
832 1 0.341102 0.925453 0
861 1 0.34687 0.950405 0
863 1 0.362092 0.932714 0
834 1 0.377051 0.914115 0
865 1 0.383154 0.937745 0
835 1 0.398263 0.920734 0
836 1 0.403773 0.946029 0
838 1 0.419515 0.927827 0
869 1 0.440235 0.934538 0
840 1 0.453913 0.91564 0
867 1 0.424952 0.952657 0
1741 1 0.460259 0.940434 0
1743 1 0.495173 0.928578 0
1712 1 0.474202 0.921019 0
1742 1 0.481006 0.946985 0
1770 1 0.0331273 0.957933 0
1799 1 0.0124236 0.964701 0
1800 1 0.0279476 0.98225 0
1798 1 0.00828991 0.988358 0
871 1 0.0482676 0.974894 0
872 1 0.0638241 0.992579 0
873 1 0.0697523 0.96848 0
874 1 0.0854406 0.986339 0
875 1 0.090111 0.961816 0
876 1 0.105283 0.979026 0
7 1 0.119732 0.995739 0
877 1 0.12575 0.971338 0
878 1 0.139957 0.989549 0
848 1 0.145572 0.966155 0
849 1 0.16631 0.958747 0
879 1 0.1615 0.982687 0
850 1 0.182042 0.975274 0
11 1 0.196691 0.993022 0
852 1 0.202302 0.969282 0
883 1 0.223344 0.962088 0
882 1 0.217399 0.985675 0
884 1 0.238419 0.979768 0
886 1 0.255769 0.96656 0
16 1 0.258627 0.991775 0
887 1 0.291149 0.955117 0
17 1 0.275899 0.974776 0
888 1 0.296449 0.980239 0
18 1 0.281694 0.998512 0
858 1 0.31152 0.962631 0
889 1 0.318051 0.986208 0
891 1 0.33212 0.967865 0
890 1 0.338034 0.993306 0
862 1 0.352628 0.97513 0
864 1 0.36763 0.95756 0
893 1 0.374339 0.982607 0
892 1 0.359209 0.999279 0
895 1 0.388764 0.962982 0
896 1 0.394436 0.986979 0
866 1 0.409368 0.97028 0
897 1 0.415167 0.994615 0
868 1 0.430588 0.97769 0
899 1 0.450685 0.984372 0
870 1 0.445713 0.959494 0
1773 1 0.486614 0.971511 0
1772 1 0.471955 0.990034 0
903 1 0.492624 0.996614 0
1771 1 0.46636 0.964847 0
1 1 0.0435542 0.999313 0
881 1 0.176412 0.999115 0
439 1 0.279521 0.500738 0
904 1 0.520271 0.0268644 0
905 1 0.514176 0.00229752 0
906 1 0.5351 0.00806603 0
933 1 0.504822 0.0445592 0
935 1 0.540432 0.0330427 0
908 1 0.555988 0.0156238 0
937 1 0.56101 0.039649 0
939 1 0.576695 0.0209539 0
940 1 0.597086 0.0289556 0
941 1 0.591525 0.00412051 0
938 1 0.581794 0.0459342 0
942 1 0.770085 0.0212389 0
943 1 0.791784 0.0165266 0
945 1 0.807344 0.0343309 0
944 1 0.786217 0.0398732 0
1407 1 0.969926 0.489743 0
914 1 0.812966 0.0101423 0
947 1 0.828153 0.0271615 0
916 1 0.833361 0.00297888 0
948 1 0.844072 0.0454983 0
918 1 0.848704 0.0215192 0
949 1 0.863851 0.0385862 0
919 1 0.868706 0.0143888 0
920 1 0.884794 0.0313876 0
1790 1 0.889387 0.0073054 0
951 1 0.905033 0.0242325 0
952 1 0.920817 0.0433656 0
922 1 0.925998 0.018671 0
953 1 0.940983 0.0355259 0
924 1 0.946271 0.0107328 0
955 1 0.961215 0.0291656 0
925 1 0.967037 0.00355103 0
926 1 0.982078 0.021882 0
957 1 0.996823 0.0385329 0
963 1 0.509998 0.0696061 0
934 1 0.525121 0.0510312 0
965 1 0.531528 0.0753348 0
936 1 0.545885 0.0570616 0
966 1 0.552494 0.0821809 0
967 1 0.567138 0.0637733 0
968 1 0.573025 0.090394 0
969 1 0.587952 0.0719791 0
971 1 0.766266 0.047012 0
970 1 0.76084 0.071593 0
973 1 0.781168 0.0644146 0
975 1 0.802109 0.0588913 0
1003 1 0.796449 0.0828255 0
972 1 0.776045 0.0888302 0
974 1 0.817197 0.0757544 0
946 1 0.823017 0.0513203 0
976 1 0.838099 0.0696774 0
977 1 0.859213 0.063043 0
979 1 0.880303 0.0549028 0
978 1 0.874857 0.0795194 0
1007 1 0.853687 0.0865342 0
950 1 0.900335 0.0491291 0
980 1 0.895211 0.0735525 0
981 1 0.914717 0.0673099 0
982 1 0.930361 0.0842956 0
983 1 0.935761 0.0599783 0
984 1 0.951253 0.0779538 0
954 1 0.95612 0.0535718 0
956 1 0.976448 0.0462639 0
985 1 0.970819 0.0710335 0
987 1 0.991378 0.064179 0
986 1 0.986532 0.0885858 0
964 1 0.51517 0.0934126 0
993 1 0.500859 0.111744 0
994 1 0.52145 0.11874 0
995 1 0.536642 0.100425 0
996 1 0.542708 0.125466 0
997 1 0.557668 0.107429 0
1027 1 0.563192 0.132305 0
998 1 0.577912 0.115123 0
1000 1 0.598296 0.12318 0
1030 1 0.618496 0.128579 0
999 1 0.63391 0.111836 0
1032 1 0.639638 0.137093 0
1001 1 0.654146 0.117829 0
1002 1 0.675491 0.125198 0
1033 1 0.790932 0.109022 0
1065 1 0.807241 0.12491 0