ITEM: TIMESTEP
71000
ITEM: NUMBER OF ATOMS
1800
ITEM: BOX BOUNDS pp pp pp
-1.6766198917097146e+00 1.6667661989171162e+02
1.1826529217466231e+00 1.6381734707825530e+02
0.0000000000000000e+00 5.5000000000000000e+00
ITEM: ATOMS id type xs ys zs
2 1 0.0142184 0.0127793 0
3 1 0.0376165 0.00625193 0
31 1 0.00893188 0.036442 0
33 1 0.032334 0.0304694 0
4 1 0.0558116 0.0250484 0
6 1 0.0795053 0.0183243 0
35 1 0.0740733 0.0416461 0
5 1 0.0617474 -0.000302286 0
8 1 0.103854 0.0106979 0
37 1 0.0984621 0.0355042 0
39 1 0.121463 0.0287756 0
880 1 0.128628 0.00525525 0
9 1 0.146709 0.0226599 0
40 1 0.164403 0.0406828 0
151 1 -0.00121298 0.152306 0
10 1 0.169985 0.0164511 0
41 1 0.187724 0.0353133 0
12 1 0.194332 0.0109135 0
14 1 0.211489 0.0283617 0
13 1 0.217491 0.00391139 0
15 1 0.235288 0.0231404 0
16 1 0.259009 0.0159433 0
46 1 0.252156 0.0423925 0
47 1 0.275542 0.0351335 0
18 1 0.282626 0.0103822 0
49 1 0.314181 0.0362026 0
19 1 0.306921 0.0119968 0
20 1 0.330279 0.0176724 0
21 1 0.354924 0.0227961 0
51 1 0.339458 0.0414769 0
892 1 0.370834 0.00329841 0
23 1 0.379377 0.0271979 0
894 1 0.395442 0.00933533 0
24 1 0.402337 0.0332954 0
25 1 0.420231 0.0148137 0
27 1 0.444127 0.0211168 0
26 1 0.427344 0.038672 0
28 1 0.453318 0.0455039 0
29 1 0.468177 0.0259498 0
900 1 0.484984 0.0077141 0
30 1 0.493936 0.0326698 0
898 1 0.460684 0.00213122 0
32 1 0.0259736 0.0551438 0
62 1 0.020663 0.0794512 0
61 1 0.00252455 0.0615376 0
63 1 0.0437856 0.07374 0
34 1 0.0487281 0.0494858 0
65 1 0.0668277 0.0659355 0
66 1 0.0833711 0.0843991 0
36 1 0.0907089 0.0602546 0
38 1 0.115405 0.0541902 0
67 1 0.109108 0.0778026 0
68 1 0.133675 0.0712547 0
69 1 0.140148 0.047313 0
71 1 0.157061 0.064897 0
72 1 0.174592 0.0829067 0
42 1 0.181003 0.0596998 0
43 1 0.20555 0.0539354 0
73 1 0.198275 0.077822 0
44 1 0.222535 0.0722922 0
45 1 0.229036 0.0479973 0
75 1 0.246569 0.0675705 0
74 1 0.239768 0.0917038 0
76 1 0.263611 0.0854573 0
77 1 0.270114 0.0604366 0
48 1 0.295792 0.053062 0
79 1 0.303996 0.0761961 0
50 1 0.321585 0.0589864 0
81 1 0.331177 0.0827136 0
22 1 0.363388 0.0469131 0
52 1 0.347042 0.0647562 0
82 1 0.354577 0.0892491 0
83 1 0.371155 0.0708882 0
53 1 0.387273 0.0529544 0
54 1 0.396041 0.0759591 0
55 1 0.411622 0.0575527 0
57 1 0.435704 0.062165 0
56 1 0.419962 0.0806053 0
87 1 0.442063 0.087117 0
450 1 0.496822 0.473412 0
59 1 0.476777 0.0499788 0
58 1 0.45978 0.0688079 0
89 1 0.483658 0.0743606 0
92 1 0.0307248 0.123589 0
93 1 0.0372008 0.0984175 0
91 1 0.0139451 0.104748 0
121 1 0.00628091 0.127654 0
64 1 0.060635 0.0920974 0
94 1 0.0537316 0.116597 0
95 1 0.0781731 0.109137 0
125 1 0.0715471 0.133363 0
96 1 0.0960172 0.126608 0
97 1 0.102033 0.101472 0
98 1 0.11918 0.119923 0
70 1 0.15041 0.0894966 0
99 1 0.125746 0.0959413 0
100 1 0.142879 0.112874 0
130 1 0.160637 0.132345 0
101 1 0.166606 0.108296 0
103 1 0.191681 0.102333 0
102 1 0.184466 0.125802 0
105 1 0.215558 0.0963982 0
104 1 0.208113 0.120758 0
106 1 0.233053 0.116057 0
137 1 0.250435 0.133844 0
107 1 0.255801 0.109374 0
78 1 0.286968 0.0946635 0
108 1 0.280836 0.136367 0
109 1 0.297961 0.118975 0
80 1 0.313365 0.100308 0
110 1 0.322557 0.126062 0
111 1 0.337848 0.107253 0
141 1 0.345468 0.132703 0
113 1 0.361762 0.114684 0
84 1 0.378524 0.0953687 0
112 1 0.386245 0.119019 0
85 1 0.402096 0.100366 0
115 1 0.40981 0.124195 0
86 1 0.42665 0.106371 0
116 1 0.434293 0.130579 0
117 1 0.45043 0.111398 0
88 1 0.466994 0.0926962 0
119 1 0.474986 0.117268 0
90 1 0.491762 0.0984443 0
120 1 0.498924 0.122765 0
122 1 0.0233283 0.14728 0
152 1 0.0169312 0.171275 0
153 1 0.0404818 0.165501 0
123 1 0.0474681 0.140965 0
124 1 0.0645718 0.158678 0
155 1 0.0823072 0.176335 0
126 1 0.0889592 0.15113 0
127 1 0.112861 0.143852 0
157 1 0.106239 0.167978 0
128 1 0.130365 0.163299 0
129 1 0.137125 0.138308 0
159 1 0.153013 0.157063 0
160 1 0.144812 0.182788 0
131 1 0.17857 0.149817 0
132 1 0.185726 0.172854 0
133 1 0.204611 0.153849 0
163 1 0.209087 0.180055 0
134 1 0.226265 0.163157 0
135 1 0.223963 0.139313 0
165 1 0.248845 0.17091 0
136 1 0.264948 0.154022 0
167 1 0.271897 0.177963 0
138 1 0.28853 0.16084 0
139 1 0.304934 0.142477 0
169 1 0.312185 0.167229 0
140 1 0.329443 0.1505 0
143 1 0.369548 0.137767 0
142 1 0.352883 0.155778 0
171 1 0.337056 0.174809 0
172 1 0.360254 0.181051 0
114 1 0.393205 0.143363 0
144 1 0.401398 0.16735 0
173 1 0.376852 0.161667 0
145 1 0.418281 0.148799 0
118 1 0.458139 0.136289 0
146 1 0.424753 0.173268 0
147 1 0.44148 0.155917 0
177 1 0.449272 0.180472 0
149 1 0.481917 0.141561 0
148 1 0.466457 0.160572 0
150 1 0.490044 0.165202 0
183 1 0.0350667 0.189557 0
182 1 0.041477 0.215013 0
181 1 0.0171512 0.206671 0
154 1 0.0586582 0.184652 0
184 1 0.0645786 0.224229 0
185 1 0.0775508 0.20228 0
186 1 0.107513 0.216365 0
156 1 0.101398 0.191317 0
158 1 0.125856 0.198236 0
187 1 0.130685 0.223516 0
189 1 0.149311 0.207192 0
161 1 0.168268 0.190277 0
191 1 0.172888 0.214303 0
162 1 0.19091 0.197874 0
192 1 0.196798 0.223421 0
193 1 0.213195 0.205629 0
164 1 0.231683 0.188401 0
195 1 0.236209 0.213429 0
166 1 0.254208 0.195702 0
196 1 0.259562 0.220554 0
197 1 0.278751 0.203529 0
168 1 0.29598 0.185333 0
199 1 0.302307 0.209459 0
170 1 0.319196 0.191956 0
200 1 0.326071 0.21648 0
201 1 0.343032 0.198155 0
202 1 0.349772 0.222785 0
203 1 0.366384 0.205575 0
174 1 0.384605 0.187295 0
204 1 0.391105 0.21126 0
175 1 0.40824 0.191765 0
205 1 0.415235 0.218058 0
176 1 0.431709 0.197694 0
207 1 0.438736 0.223208 0
178 1 0.45601 0.203661 0
179 1 0.47288 0.184853 0
209 1 0.479639 0.209625 0
180 1 0.49724 0.189509 0
212 1 0.0278651 0.255986 0
211 1 0.0221611 0.231702 0
1140 1 0.00452482 0.249378 0
213 1 0.0456661 0.24023 0
243 1 0.05187 0.264181 0
214 1 0.0709777 0.248568 0
245 1 0.0758826 0.273127 0
215 1 0.0884189 0.231798 0
216 1 0.0952878 0.255925 0
217 1 0.113206 0.240459 0
218 1 0.118207 0.264822 0
188 1 0.135679 0.248281 0
190 1 0.154589 0.232336 0
220 1 0.159464 0.255664 0
221 1 0.178099 0.239041 0
222 1 0.183474 0.263422 0
223 1 0.201415 0.247638 0
253 1 0.206567 0.271382 0
194 1 0.220425 0.230917 0
224 1 0.225188 0.255866 0
225 1 0.242602 0.238314 0
226 1 0.247983 0.262625 0
198 1 0.282837 0.227987 0
227 1 0.265379 0.24425 0
257 1 0.273856 0.268067 0
228 1 0.29136 0.251754 0
229 1 0.308852 0.233233 0
230 1 0.314409 0.258748 0
231 1 0.332481 0.24165 0
233 1 0.373407 0.229704 0
232 1 0.356974 0.248417 0
261 1 0.338906 0.266301 0
263 1 0.362174 0.273669 0
235 1 0.397765 0.236351 0
234 1 0.380792 0.254448 0
265 1 0.404161 0.26254 0
206 1 0.42116 0.243726 0
237 1 0.44671 0.246614 0
236 1 0.428717 0.267932 0
238 1 0.453413 0.270968 0
208 1 0.462519 0.227578 0
210 1 0.48824 0.233181 0
239 1 0.47074 0.25072 0
240 1 0.495412 0.255974 0
241 1 0.00831627 0.273283 0
242 1 0.0325176 0.280606 0
271 1 0.0139037 0.297308 0
273 1 0.039286 0.305036 0
244 1 0.0573673 0.288811 0
246 1 0.0805041 0.297563 0
275 1 0.0614833 0.314384 0
247 1 0.0987766 0.281822 0
249 1 0.1231 0.288468 0
248 1 0.103904 0.304888 0
279 1 0.12757 0.313345 0
219 1 0.141567 0.27245 0
251 1 0.165445 0.280237 0
250 1 0.146586 0.297267 0
281 1 0.169984 0.304491 0
252 1 0.189009 0.288521 0
283 1 0.193992 0.313272 0
254 1 0.212027 0.297288 0
255 1 0.230493 0.280364 0
285 1 0.235187 0.304831 0
256 1 0.255354 0.285592 0
287 1 0.260403 0.310934 0
258 1 0.278909 0.293206 0
259 1 0.297248 0.27597 0
289 1 0.301265 0.300968 0
260 1 0.319868 0.283994 0
291 1 0.324559 0.30905 0
262 1 0.34278 0.292099 0
292 1 0.350688 0.31595 0
293 1 0.367082 0.297444 0
264 1 0.385561 0.280992 0
295 1 0.39003 0.307216 0
266 1 0.408861 0.288429 0
267 1 0.432948 0.293955 0
297 1 0.415644 0.312502 0
298 1 0.437671 0.320193 0
269 1 0.478867 0.274557 0
268 1 0.461731 0.29339 0
270 1 0.484312 0.298595 0
299 1 0.462084 0.320721 0
1200 1 0.0201181 0.321438 0
301 1 0.0262788 0.347316 0
1229 1 0.0014243 0.340495 0
272 1 0.0443574 0.330683 0
303 1 0.0490449 0.355192 0
274 1 0.067781 0.339198 0
276 1 0.085757 0.322048 0
305 1 0.0916523 0.347066 0
277 1 0.10868 0.329507 0
307 1 0.114628 0.354747 0
278 1 0.133456 0.337535 0
280 1 0.152382 0.322469 0
311 1 0.158399 0.347175 0
282 1 0.176277 0.329597 0
312 1 0.181938 0.355174 0
313 1 0.199397 0.338258 0
314 1 0.205221 0.362764 0
284 1 0.218234 0.322613 0
315 1 0.2242 0.34553 0
286 1 0.24327 0.329202 0
316 1 0.248424 0.354769 0
288 1 0.283636 0.31826 0
317 1 0.265489 0.336119 0
318 1 0.271421 0.361633 0
319 1 0.2889 0.342153 0
290 1 0.307233 0.325341 0
320 1 0.313092 0.351058 0
321 1 0.330113 0.332539 0
323 1 0.352274 0.34121 0
322 1 0.335346 0.359927 0
294 1 0.373276 0.324265 0
296 1 0.39566 0.331031 0
325 1 0.376022 0.349325 0
326 1 0.400458 0.355982 0
327 1 0.4194 0.338611 0
328 1 0.424574 0.363179 0
329 1 0.443138 0.345019 0
359 1 0.466087 0.353102 0
300 1 0.498325 0.317654 0
330 1 0.48157 0.335384 0
360 1 0.489337 0.35952 0
1230 1 0.00748799 0.36455 0
302 1 0.0305983 0.372562 0
332 1 0.0356479 0.398146 0
331 1 0.0130283 0.389687 0
304 1 0.0736084 0.36381 0
333 1 0.0539412 0.380964 0
335 1 0.0777403 0.388298 0
334 1 0.0595406 0.405249 0
306 1 0.0962341 0.372053 0
308 1 0.119917 0.379487 0
337 1 0.101879 0.396378 0
309 1 0.138717 0.361854 0
338 1 0.126676 0.404313 0
310 1 0.163452 0.371436 0
339 1 0.145008 0.387536 0
341 1 0.16853 0.395907 0
343 1 0.186924 0.379518 0
342 1 0.192074 0.404242 0
344 1 0.210802 0.387675 0
345 1 0.228688 0.370736 0
346 1 0.234373 0.396279 0
347 1 0.252221 0.378739 0
377 1 0.258517 0.403195 0
348 1 0.276072 0.386206 0
349 1 0.296299 0.367618 0
350 1 0.299527 0.394884 0
351 1 0.317913 0.377046 0
381 1 0.322452 0.40223 0
324 1 0.357781 0.367682 0
353 1 0.340374 0.3843 0
354 1 0.363822 0.391993 0
355 1 0.381587 0.373052 0
356 1 0.388563 0.398948 0
357 1 0.406231 0.380849 0
386 1 0.412612 0.404827 0
387 1 0.431117 0.38833 0
358 1 0.448363 0.369919 0
389 1 0.454485 0.393909 0
1232 1 0.472446 0.376996 0
1262 1 0.495859 0.383606 0
1261 1 0.478417 0.401492 0
361 1 0.0175154 0.414496 0
362 1 0.0221925 0.439802 0
391 1 -0.00076779 0.431605 0
363 1 0.0408531 0.422362 0
364 1 0.0474462 0.447204 0
365 1 0.0647998 0.430296 0
395 1 0.0709042 0.45564 0
336 1 0.0832159 0.412718 0
366 1 0.0892436 0.439029 0
367 1 0.10758 0.420596 0
368 1 0.112964 0.445102 0
369 1 0.131444 0.428328 0
340 1 0.149669 0.412279 0
370 1 0.155231 0.436849 0
399 1 0.136566 0.453738 0
371 1 0.17427 0.420851 0
401 1 0.179475 0.445048 0
372 1 0.198297 0.429785 0
403 1 0.202304 0.454013 0
373 1 0.217483 0.412917 0
374 1 0.222341 0.436975 0
375 1 0.23982 0.421275 0
405 1 0.245849 0.447067 0
376 1 0.26394 0.429026 0
378 1 0.281403 0.411969 0
409 1 0.286272 0.437103 0
407 1 0.269491 0.45483 0
379 1 0.304593 0.419284 0
380 1 0.309897 0.443576 0
382 1 0.32848 0.42734 0
352 1 0.345904 0.409179 0
383 1 0.352428 0.43521 0
413 1 0.333394 0.451326 0
385 1 0.369797 0.416458 0
414 1 0.376339 0.440643 0
384 1 0.393971 0.423227 0
415 1 0.399454 0.448091 0
417 1 0.416715 0.42925 0
388 1 0.435823 0.412791 0
418 1 0.441365 0.436747 0
419 1 0.460217 0.418601 0
390 1 0.4659 0.443847 0
1291 1 0.483088 0.425837 0
1321 1 0.490872 0.449132 0
392 1 0.00395672 0.456567 0
393 1 0.028231 0.463989 0
422 1 0.00987176 0.480436 0
423 1 0.0331929 0.48753 0
394 1 0.0519796 0.472064 0
396 1 0.0750913 0.480197 0
425 1 0.0564848 0.496133 0
397 1 0.0936887 0.464088 0
398 1 0.117614 0.469765 0
427 1 0.0995818 0.487037 0
428 1 0.123515 0.495235 0
400 1 0.160485 0.4626 0
429 1 0.14163 0.477917 0
431 1 0.166218 0.487002 0
402 1 0.184374 0.469928 0
432 1 0.190701 0.494742 0
433 1 0.208714 0.478468 0
404 1 0.227523 0.462632 0
435 1 0.232385 0.487402 0
406 1 0.251734 0.472393 0
436 1 0.256356 0.497089 0
408 1 0.275325 0.479593 0
410 1 0.293035 0.462227 0
441 1 0.29901 0.487121 0
411 1 0.316596 0.468873 0
440 1 0.32305 0.492978 0
412 1 0.359447 0.459433 0
442 1 0.34173 0.476772 0
473 1 0.364635 0.483521 0
443 1 0.38262 0.465365 0
444 1 0.38895 0.490286 0
445 1 0.406528 0.471575 0
475 1 0.413986 0.497032 0
448 1 0.455948 0.485354 0
416 1 0.42386 0.453828 0
447 1 0.447909 0.461131 0
446 1 0.431505 0.478162 0
449 1 0.480274 0.49174 0
420 1 0.472634 0.467824 0
454 1 0.0208217 0.529609 0
453 1 0.0143175 0.504772 0
424 1 0.0383359 0.512077 0
485 1 0.0444549 0.537026 0
455 1 0.0625354 0.51953 0
426 1 0.0809337 0.503607 0
486 1 0.0675837 0.543388 0
456 1 0.0869634 0.527457 0
457 1 0.105302 0.512029 0
458 1 0.110339 0.536172 0
459 1 0.129953 0.519483 0
489 1 0.134421 0.54519 0
460 1 0.151682 0.528824 0
430 1 0.14805 0.503593 0
461 1 0.170922 0.511454 0
462 1 0.175872 0.535633 0
463 1 0.193245 0.519618 0
493 1 0.199892 0.544363 0
434 1 0.213155 0.504437 0
464 1 0.218731 0.528163 0
466 1 0.242062 0.537226 0
465 1 0.236967 0.511792 0
437 1 0.261333 0.521492 0
467 1 0.28561 0.528146 0
439 1 0.281979 0.503566 0
438 1 0.304532 0.512559 0
468 1 0.310899 0.537125 0
469 1 0.329364 0.520334 0
470 1 0.354076 0.527259 0
471 1 0.346963 0.502916 0
472 1 0.37085 0.508619 0
499 1 0.33612 0.544721 0
503 1 0.379968 0.532717 0
474 1 0.396691 0.514823 0
505 1 0.404511 0.538933 0
476 1 0.421963 0.521917 0
477 1 0.439427 0.503224 0
507 1 0.446269 0.527198 0
478 1 0.46412 0.509863 0
480 1 0.470871 0.534582 0
479 1 0.487936 0.515694 0
510 1 0.494672 0.540737 0
483 1 0.00216579 0.54585 0
513 1 0.0253142 0.553791 0
514 1 0.0331039 0.580011 0
482 1 0.0087944 0.572307 0
484 1 0.0498465 0.562752 0
515 1 0.0733183 0.569573 0
545 1 0.0556988 0.587506 0
487 1 0.0910991 0.552084 0
488 1 0.114329 0.560541 0
517 1 0.0967294 0.577161 0
519 1 0.119811 0.584923 0
491 1 0.156927 0.552451 0
490 1 0.138368 0.569054 0
521 1 0.161695 0.576318 0
492 1 0.18156 0.561102 0
523 1 0.184838 0.585202 0
494 1 0.20477 0.569355 0
495 1 0.223558 0.553224 0
525 1 0.226473 0.577949 0
496 1 0.246969 0.560867 0
497 1 0.265889 0.545994 0
526 1 0.249247 0.585219 0
527 1 0.269726 0.570945 0
498 1 0.291187 0.553787 0
529 1 0.292719 0.582671 0
500 1 0.313753 0.566098 0
501 1 0.362309 0.551663 0
531 1 0.348765 0.572644 0
533 1 0.372194 0.577079 0
502 1 0.386364 0.55731 0
534 1 0.397331 0.581824 0
504 1 0.412706 0.562937 0
506 1 0.430035 0.545417 0
508 1 0.437422 0.568659 0
509 1 0.453696 0.551206 0
535 1 0.420452 0.587477 0
539 1 0.460377 0.575528 0
540 1 0.478266 0.559377 0
569 1 0.486194 0.582989 0
512 1 0.01447 0.596385 0
542 1 0.0179758 0.620178 0
543 1 0.0376062 0.603932 0
544 1 0.0425561 0.628133 0
516 1 0.0787749 0.593782 0
546 1 0.0609389 0.612086 0
547 1 0.0845004 0.619598 0
518 1 0.101381 0.602058 0
577 1 0.107205 0.628312 0
548 1 0.123875 0.610276 0
520 1 0.142737 0.592985 0
549 1 0.146739 0.616301 0
522 1 0.165849 0.601166 0
551 1 0.168219 0.625943 0
553 1 0.18865 0.609697 0
524 1 0.208087 0.594112 0
554 1 0.211862 0.619432 0
555 1 0.231837 0.603368 0
556 1 0.233519 0.628897 0
557 1 0.253135 0.613555 0
528 1 0.272409 0.596613 0
558 1 0.275209 0.626171 0
530 1 0.31409 0.594071 0
559 1 0.294533 0.608417 0
561 1 0.317354 0.619178 0
560 1 0.298302 0.635221 0
532 1 0.35617 0.595869 0
562 1 0.365896 0.619822 0
563 1 0.381275 0.60027 0
565 1 0.389129 0.626175 0
536 1 0.404763 0.605905 0
566 1 0.411974 0.631838 0
537 1 0.445115 0.594441 0
567 1 0.428633 0.612182 0
568 1 0.452764 0.619618 0
538 1 0.468224 0.600167 0
570 1 0.493134 0.60686 0
600 1 0.47685 0.624587 0
573 1 0.0241256 0.644098 0
603 1 0.0289472 0.668125 0
572 1 0.00605361 0.661715 0
571 1 0.000370413 0.637918 0
574 1 0.0482039 0.651779 0
604 1 0.050885 0.677346 0
575 1 0.066996 0.63658 0
605 1 0.0705898 0.66235 0
576 1 0.0912155 0.649724 0
607 1 0.0898945 0.67798 0
578 1 0.109951 0.665715 0
579 1 0.12995 0.653797 0
609 1 0.132952 0.678626 0
550 1 0.149287 0.640326 0
580 1 0.152845 0.66431 0
552 1 0.190596 0.634293 0
581 1 0.172133 0.65012 0
611 1 0.174794 0.674304 0
582 1 0.195165 0.659245 0
583 1 0.214026 0.642982 0
584 1 0.216987 0.670227 0
585 1 0.236455 0.655416 0
615 1 0.238714 0.681288 0
587 1 0.256434 0.640783 0
586 1 0.258594 0.66633 0
589 1 0.278271 0.651599 0
588 1 0.280703 0.67728 0
590 1 0.300754 0.660786 0
591 1 0.321932 0.646989 0
621 1 0.322034 0.671862 0
593 1 0.355564 0.663992 0
564 1 0.372877 0.644167 0
594 1 0.379876 0.668381 0
595 1 0.395721 0.650539 0
625 1 0.404403 0.675168 0
596 1 0.420245 0.656222 0
597 1 0.436572 0.637829 0
598 1 0.44377 0.662267 0
627 1 0.427942 0.680349 0
599 1 0.460573 0.643521 0
629 1 0.485133 0.648714 0
628 1 0.468655 0.668082 0
630 1 0.492504 0.673859 0
602 1 0.00856266 0.696431 0
633 1 0.0314303 0.692892 0
634 1 0.0264932 0.717694 0
632 1 0.00132399 0.723078 0
635 1 0.0497787 0.708948 0
606 1 0.0699089 0.693495 0
636 1 0.0713263 0.718991 0
637 1 0.0910541 0.705745 0
608 1 0.111188 0.691425 0
638 1 0.113796 0.716809 0
639 1 0.135165 0.704368 0
610 1 0.155142 0.689678 0
641 1 0.157699 0.714116 0
612 1 0.177747 0.70033 0
642 1 0.178533 0.725651 0
613 1 0.197915 0.685723 0
643 1 0.199741 0.711716 0
614 1 0.219326 0.696835 0
645 1 0.22177 0.72252 0
616 1 0.24107 0.706543 0
617 1 0.260139 0.691929 0
647 1 0.26297 0.717856 0
618 1 0.283195 0.7027 0
649 1 0.287188 0.728431 0
619 1 0.302608 0.687516 0
620 1 0.305898 0.71383 0
622 1 0.324558 0.697844 0
651 1 0.328035 0.724808 0
592 1 0.362406 0.688744 0
653 1 0.346583 0.707215 0
624 1 0.370774 0.712897 0
623 1 0.387309 0.693688 0
655 1 0.394392 0.717456 0
626 1 0.412769 0.699195 0
686 1 0.418707 0.723232 0
657 1 0.451718 0.686063 0
656 1 0.435239 0.704406 0
658 1 0.458548 0.711386 0
659 1 0.475113 0.69259 0
660 1 0.482502 0.715996 0
1531 1 0.499808 0.698358 0
662 1 0.0130656 0.76471 0
664 1 0.0179961 0.740639 0
695 1 0.0364105 0.756652 0
665 1 0.0479136 0.733275 0
666 1 0.0718202 0.744752 0
697 1 0.0772344 0.769115 0
667 1 0.093164 0.730536 0
668 1 0.0961319 0.755483 0
669 1 0.117051 0.742963 0
699 1 0.118162 0.767587 0
640 1 0.136872 0.728101 0
670 1 0.138381 0.754423 0
671 1 0.157905 0.739891 0
672 1 0.159827 0.765134 0
673 1 0.180337 0.751451 0
644 1 0.201573 0.736415 0
674 1 0.202705 0.761767 0
675 1 0.22306 0.748953 0
646 1 0.243467 0.73334 0
677 1 0.246729 0.757743 0
705 1 0.225934 0.773024 0
648 1 0.266953 0.743483 0
678 1 0.26801 0.768512 0
679 1 0.2893 0.753311 0
650 1 0.309484 0.739936 0
681 1 0.314292 0.766152 0
652 1 0.334394 0.748605 0
683 1 0.360626 0.755388 0
654 1 0.353061 0.730816 0
685 1 0.37734 0.737273 0
715 1 0.40173 0.741923 0
684 1 0.384554 0.761189 0
714 1 0.407823 0.766353 0
687 1 0.441104 0.729443 0
717 1 0.424802 0.747953 0
688 1 0.448724 0.753708 0
716 1 0.432086 0.772881 0
689 1 0.465301 0.735265 0
690 1 0.48946 0.739743 0
719 1 0.473317 0.759893 0
1591 1 0.497708 0.76547 0
694 1 0.0306062 0.781459 0
693 1 0.00644818 0.788165 0
723 1 0.0247821 0.806744 0
696 1 0.0545083 0.775842 0
725 1 0.0480524 0.799854 0
727 1 0.0728749 0.79297 0
728 1 0.0956266 0.807278 0
698 1 0.0983953 0.782094 0
700 1 0.119709 0.793489 0
701 1 0.14019 0.779658 0
731 1 0.141872 0.804825 0
702 1 0.16201 0.790291 0
732 1 0.163521 0.817317 0
703 1 0.18234 0.776825 0
733 1 0.183708 0.802559 0
704 1 0.205229 0.786678 0
735 1 0.206551 0.812623 0
706 1 0.227044 0.799108 0
676 1 0.246562 0.783889 0
737 1 0.248701 0.809934 0
707 1 0.268267 0.793816 0
708 1 0.28905 0.804544 0
709 1 0.290452 0.779067 0
738 1 0.270447 0.81935 0
710 1 0.311338 0.811025 0
680 1 0.324673 0.789397 0
682 1 0.343617 0.773353 0
711 1 0.350587 0.79732 0
713 1 0.367233 0.779092 0
712 1 0.375035 0.803389 0
741 1 0.334809 0.815662 0
743 1 0.391894 0.785259 0
745 1 0.399742 0.809923 0
746 1 0.415589 0.791523 0
747 1 0.440524 0.797176 0
775 1 0.423658 0.815084 0
718 1 0.456123 0.77729 0
748 1 0.447134 0.82134 0
720 1 0.481077 0.783695 0
749 1 0.464066 0.80133 0
1621 1 0.487946 0.80721 0
751 1 0.0185448 0.831365 0
752 1 0.0123767 0.855231 0
753 1 0.0354587 0.848246 0
722 1 0.0421093 0.824109 0
726 1 0.0654239 0.81853 0
724 1 0.0592915 0.842859 0
755 1 0.0764557 0.860006 0
757 1 0.0829198 0.834855 0
729 1 0.121547 0.820115 0
756 1 0.0998158 0.853552 0
759 1 0.125335 0.846465 0
730 1 0.144027 0.830964 0
761 1 0.165337 0.843155 0
760 1 0.142603 0.865567 0
763 1 0.18647 0.827251 0
762 1 0.188655 0.85194 0
734 1 0.210099 0.838964 0
736 1 0.229193 0.824582 0
765 1 0.231964 0.849802 0
767 1 0.251092 0.835536 0
766 1 0.25705 0.859254 0
768 1 0.276796 0.84469 0
739 1 0.29414 0.828631 0
769 1 0.30031 0.852872 0
740 1 0.319159 0.835409 0
770 1 0.325584 0.858861 0
742 1 0.357722 0.821436 0
771 1 0.342438 0.839787 0
773 1 0.365973 0.845372 0
744 1 0.382283 0.827877 0
803 1 0.391239 0.851165 0
774 1 0.407701 0.833986 0
776 1 0.414163 0.857912 0
777 1 0.431402 0.839535 0
779 1 0.455081 0.845169 0
1651 1 0.494929 0.831884 0
750 1 0.471835 0.825716 0
780 1 0.478238 0.850036 0
783 1 0.0300739 0.873543 0
782 1 0.00565888 0.879807 0
813 1 0.0227328 0.898302 0
784 1 0.0468177 0.891793 0
754 1 0.053686 0.866529 0
785 1 0.0703043 0.884949 0
786 1 0.0881345 0.902378 0
758 1 0.117632 0.871232 0
787 1 0.0946282 0.879119 0
788 1 0.112463 0.896948 0
789 1 0.136297 0.889302 0
791 1 0.159156 0.883635 0
790 1 0.152904 0.907975 0
823 1 0.176084 0.901201 0
792 1 0.182689 0.876988 0
793 1 0.199478 0.893652 0
764 1 0.20761 0.866877 0
795 1 0.222918 0.888118 0
825 1 0.243385 0.905403 0
796 1 0.245389 0.880468 0
827 1 0.267196 0.894923 0
797 1 0.281994 0.871345 0
798 1 0.292386 0.895235 0
799 1 0.308231 0.876076 0
829 1 0.316553 0.89998 0
800 1 0.333279 0.882321 0
801 1 0.349587 0.863769 0
802 1 0.357253 0.88848 0
831 1 0.339512 0.907311 0
772 1 0.374053 0.869684 0
805 1 0.397893 0.875262 0
804 1 0.38099 0.893902 0
806 1 0.404507 0.899874 0
778 1 0.438414 0.863752 0
807 1 0.421071 0.881941 0
808 1 0.445868 0.886833 0
837 1 0.428669 0.906316 0
809 1 0.462515 0.869116 0
1681 1 0.486351 0.873981 0
810 1 0.469189 0.892936 0
1711 1 0.494446 0.898246 0
842 1 0.00869163 0.946976 0
843 1 0.0155505 0.923271 0
844 1 0.0334873 0.940336 0
814 1 0.0398915 0.915544 0
815 1 0.0645904 0.90925 0
816 1 0.0815286 0.927566 0
845 1 0.0568968 0.933028 0
846 1 0.0742245 0.951993 0
817 1 0.105329 0.920897 0
818 1 0.122046 0.939003 0
847 1 0.0979594 0.945684 0
819 1 0.128734 0.914653 0
820 1 0.147059 0.93226 0
851 1 0.163759 0.950789 0
821 1 0.171654 0.926815 0
824 1 0.195857 0.919166 0
822 1 0.189851 0.943377 0
794 1 0.219284 0.913551 0
853 1 0.213837 0.93768 0
855 1 0.237562 0.930677 0
826 1 0.261015 0.923338 0
856 1 0.253663 0.949391 0
857 1 0.279636 0.939748 0
828 1 0.298088 0.91992 0
859 1 0.304788 0.94545 0
830 1 0.322391 0.926363 0
860 1 0.330387 0.950287 0
832 1 0.347448 0.931328 0
833 1 0.363562 0.912762 0
863 1 0.370226 0.937337 0
834 1 0.387414 0.91799 0
865 1 0.395197 0.942123 0
835 1 0.41186 0.924028 0
838 1 0.43722 0.929332 0
836 1 0.419815 0.948192 0
839 1 0.452967 0.911534 0
867 1 0.44463 0.953033 0
1741 1 0.484064 0.941029 0
840 1 0.478202 0.916087 0
869 1 0.460949 0.93504 0
872 1 0.0204533 0.988708 0
873 1 0.0274128 0.965123 0
871 1 0.00239475 0.971356 0
874 1 0.0446071 0.983328 0
875 1 0.0507287 0.958078 0
876 1 0.06812 0.976397 0
7 1 0.0861048 0.994222 0
877 1 0.0915483 0.970175 0
848 1 0.116461 0.963129 0
878 1 0.111789 0.987593 0
879 1 0.135348 0.980711 0
849 1 0.139945 0.956567 0
850 1 0.159697 0.974747 0
11 1 0.178127 0.992149 0
852 1 0.18241 0.967126 0
882 1 0.201214 0.985872 0
883 1 0.206329 0.96169 0
854 1 0.230642 0.954472 0
884 1 0.224898 0.9786 0
885 1 0.248741 0.973823 0
886 1 0.241425 0.998222 0
17 1 0.265694 0.991853 0
887 1 0.272662 0.966828 0
858 1 0.313997 0.969671 0
888 1 0.297363 0.988462 0
889 1 0.3223 0.993501 0
861 1 0.354277 0.955714 0
891 1 0.338765 0.974643 0
890 1 0.346821 0.999662 0
862 1 0.362567 0.980665 0
864 1 0.378207 0.962014 0
893 1 0.386799 0.985288 0
895 1 0.403051 0.966255 0
896 1 0.411983 0.990937 0
868 1 0.452351 0.978429 0
897 1 0.435654 0.996647 0
866 1 0.42807 0.97145 0
899 1 0.477331 0.983817 0
870 1 0.469068 0.959784 0
1771 1 0.493879 0.965465 0
881 1 0.15274 0.999233 0
902 1 0.533328 0.0188515 0
931 1 0.517039 0.0366686 0
901 1 0.508754 0.0125106 0
933 1 0.541512 0.0419385 0
904 1 0.556714 0.0237072 0
906 1 0.573115 0.00560751 0
935 1 0.58113 0.0295357 0
905 1 0.549043 -0.00078625 0
908 1 0.597855 0.010463 0
937 1 0.607519 0.0345526 0
939 1 0.622826 0.0163561 0
938 1 0.631796 0.0397869 0
940 1 0.6498 0.0224059 0
971 1 0.671471 0.0388382 0
942 1 0.67832 0.0118637 0
944 1 0.694076 0.0311131 0
943 1 0.701664 0.00754069 0
945 1 0.718903 0.0246865 0
947 1 0.74374 0.0186257 0
946 1 0.736836 0.0418935 0
948 1 0.760948 0.0363355 0
918 1 0.767462 0.0124185 0
949 1 0.785734 0.0301809 0
919 1 0.791143 0.00591629 0
920 1 0.809162 0.0236488 0
950 1 0.82761 0.042366 0
951 1 0.832386 0.0172024 0
952 1 0.851732 0.0346612 0
922 1 0.857089 0.010741 0
953 1 0.876176 0.0280213 0
955 1 0.90008 0.0209654 0
924 1 0.882421 0.00404574 0
926 1 0.923342 0.014048 0
928 1 0.948334 0.00827134 0
957 1 0.941863 0.0321834 0
956 1 0.916566 0.0387077 0
930 1 0.989361 0.0197657 0
959 1 0.966443 0.0264011 0
929 1 0.972222 0.00197368 0
960 1 0.984391 0.0445232 0
932 1 0.523026 0.0605911 0
962 1 0.531945 0.0843094 0
961 1 0.507829 0.0801348 0
934 1 0.565253 0.0477513 0
963 1 0.547402 0.0656934 0
965 1 0.572862 0.0718649 0
936 1 0.589086 0.053473 0
966 1 0.596797 0.0767844 0
967 1 0.613417 0.058446 0
968 1 0.622469 0.080589 0
969 1 0.640159 0.0643132 0
999 1 0.658657 0.0873928 0
970 1 0.665119 0.0628973 0
972 1 0.682716 0.0794358 0
973 1 0.690008 0.0559676 0
1003 1 0.707538 0.0737189 0
975 1 0.71336 0.0495167 0
974 1 0.731537 0.0662383 0
1005 1 0.749442 0.0837062 0
976 1 0.755791 0.060453 0
1007 1 0.773696 0.0793269 0
977 1 0.780126 0.0553399 0
979 1 0.803165 0.0484466 0
978 1 0.797213 0.0728117 0
1009 1 0.814489 0.0915745 0
980 1 0.82132 0.0673826 0
981 1 0.845419 0.0589252 0
1011 1 0.839692 0.0834794 0
982 1 0.86314 0.0766789 0
983 1 0.868891 0.0521286 0
954 1 0.893003 0.0461329 0
984 1 0.886728 0.0715623 0
1015 1 0.905305 0.0878746 0
985 1 0.911567 0.0637557 0
986 1 0.929356 0.0809201 0
987 1 0.935353 0.0563121 0
988 1 0.952311 0.0749529 0
958 1 0.959958 0.0501081 0
989 1 0.976837 0.0684707 0
990 1 0.996574 0.0855159 0
991 1 0.515994 0.103664 0
992 1 0.522942 0.127886 0
993 1 0.539806 0.108714 0
964 1 0.555984 0.09035 0
994 1 0.564834 0.114082 0
995 1 0.580762 0.0954886 0
1023 1 0.548192 0.132167 0
996 1 0.588731 0.118896 0
997 1 0.6048 0.100221 0
1027 1 0.612587 0.125081 0
998 1 0.628394 0.106206 0
1029 1 0.635746 0.129529 0
1000 1 0.652681 0.111727 0
1030 1 0.659806 0.135439 0
1001 1 0.676768 0.105181 0
1031 1 0.695656 0.1211 0
1002 1 0.700576 0.0977677 0
1004 1 0.72625 0.0908655 0
1033 1 0.71946 0.116033 0
1035 1 0.743399 0.108682 0
1034 1 0.735799 0.13431 0
1006 1 0.766487 0.102497 0
1036 1 0.7603 0.127534 0
1008 1 0.791109 0.0970457 0
1037 1 0.783577 0.122565 0
1039 1 0.808695 0.115059 0
1040 1 0.825937 0.133272 0
1010 1 0.831974 0.107975 0
1012 1 0.8568 0.10134 0
1041 1 0.850238 0.125616 0
1043 1 0.874297 0.118693 0
1013 1 0.879808 0.0955741 0
1014 1 0.898665 0.113128 0
1016 1 0.91759 0.129368 0
1017 1 0.922798 0.105432 0
1018 1 0.94759 0.0990892 0
1047 1 0.94134 0.123554 0
1019 1 0.970644 0.0915212 0
1020 1 0.989059 0.109595 0
1049 1 0.965179 0.116331 0
1050 1 0.982426 0.134765 0
1021 1 0.507273 0.146166 0
1022 1 0.531814 0.151962 0
1053 1 0.538051 0.175652 0
1051 1 0.513633 0.170525 0
1025 1 0.571113 0.138553 0
1024 1 0.555072 0.156831 0
1055 1 0.579172 0.162305 0
1054 1 0.56173 0.180783 0
1026 1 0.595798 0.143036 0
1028 1 0.619187 0.148751 0
1057 1 0.603479 0.166975 0
1058 1 0.62763 0.172306 0
1059 1 0.642731 0.153671 0
1060 1 0.650742 0.177352 0
1061 1 0.668085 0.159014 0
1032 1 0.68361 0.141577 0
1062 1 0.695109 0.163842 0
1063 1 0.709577 0.141474 0
1064 1 0.719264 0.167826 0
1095 1 0.743558 0.174439 0
1065 1 0.755772 0.151935 0
1066 1 0.773083 0.171634 0
1067 1 0.779521 0.146074 0
1038 1 0.802671 0.139846 0
1068 1 0.796018 0.164219 0
1069 1 0.820928 0.157175 0
1099 1 0.814073 0.181577 0
1071 1 0.845034 0.150507 0
1070 1 0.838953 0.176053 0
1072 1 0.862519 0.16743 0
1042 1 0.868883 0.142951 0
1044 1 0.892473 0.136862 0
1073 1 0.886927 0.161838 0
1074 1 0.904438 0.178835 0
1045 1 0.910393 0.154837 0
1075 1 0.927056 0.172415 0
1046 1 0.934182 0.147809 0
1077 1 0.950912 0.165086 0
1048 1 0.958326 0.1408 0
1079 1 0.97465 0.158607 0
1080 1 0.993254 0.176136 0
421 1 0.986639 0.47217 0
1052 1 0.521187 0.194827 0
1082 1 0.529333 0.218184 0
1081 1 0.505415 0.213881 0
1083 1 0.545629 0.199997 0
1085 1 0.570934 0.203729 0
1084 1 0.554448 0.223184 0
1056 1 0.587931 0.185459 0
1086 1 0.595593 0.209824 0
1087 1 0.611804 0.190956 0
1088 1 0.619878 0.215695 0
1089 1 0.635568 0.197623 0
1090 1 0.66191 0.200035 0
1119 1 0.645705 0.219554 0
1091 1 0.678468 0.181186 0
1121 1 0.669104 0.225751 0
1092 1 0.685651 0.205881 0
1093 1 0.704027 0.187315 0
1123 1 0.710067 0.210949 0
1094 1 0.72698 0.19334 0
1125 1 0.734277 0.21663 0
1096 1 0.751343 0.197529 0
1126 1 0.758014 0.222799 0
1127 1 0.77395 0.20451 0
1097 1 0.791764 0.188902 0
1098 1 0.809564 0.20709 0
1129 1 0.827894 0.223153 0
1100 1 0.833959 0.199718 0
1101 1 0.857435 0.19191 0
1131 1 0.851553 0.217333 0
1102 1 0.874023 0.209808 0
1103 1 0.880231 0.185387 0
1104 1 0.897589 0.202993 0
1135 1 0.914667 0.220707 0
1105 1 0.92189 0.196155 0
1076 1 0.945494 0.189678 0
1107 1 0.974312 0.217608 0
1078 1 0.968996 0.183449 0
1109 1 0.991365 0.200779 0
1110 1 0.999467 0.225323 0
1111 1 0.51365 0.236712 0
1113 1 0.538536 0.241042 0
1112 1 0.519924 0.259333 0
1115 1 0.578747 0.227629 0
1143 1 0.547294 0.265108 0
1114 1 0.563362 0.246319 0
1145 1 0.571837 0.269961 0
1116 1 0.586876 0.250972 0
1117 1 0.603734 0.23325 0
1147 1 0.612131 0.257035 0
1118 1 0.628798 0.238644 0
1149 1 0.636531 0.263052 0
1120 1 0.653832 0.245001 0
1150 1 0.661888 0.268322 0
1151 1 0.678594 0.24944 0
1122 1 0.693901 0.23079 0
1153 1 0.702461 0.255136 0
1152 1 0.686731 0.273984 0
1124 1 0.71846 0.23545 0
1154 1 0.726545 0.259939 0
1155 1 0.742383 0.242084 0
1156 1 0.750154 0.265861 0
1157 1 0.766841 0.247254 0
1128 1 0.782927 0.228742 0
1158 1 0.790616 0.254411 0
1187 1 0.774918 0.273028 0
1159 1 0.807513 0.235462 0
1160 1 0.816523 0.260678 0
1130 1 0.844267 0.241016 0
1191 1 0.841083 0.267811 0
1161 1 0.861944 0.257392 0
1132 1 0.869551 0.233968 0
1133 1 0.89232 0.22745 0
1163 1 0.886672 0.253212 0
1134 1 0.910702 0.244334 0
1165 1 0.919129 0.268176 0