ITEM: TIMESTEP
251000
ITEM: NUMBER OF ATOMS
1800
ITEM: BOX BOUNDS pp pp pp
-8.9254805455426833e+00 1.7392548054554459e+02
1.1826529217466231e+00 1.6381734707825530e+02
0.0000000000000000e+00 5.5000000000000000e+00
ITEM: ATOMS id type xs ys zs
930 1 0.0287521 0.0239523 0
929 1 0.0142284 0.0066869 0
959 1 0.00746402 0.0303577 0
31 1 0.0455468 0.0416014 0
2 1 0.0506629 0.0169952 0
33 1 0.0666418 0.0329871 0
3 1 0.0727225 0.0090108 0
4 1 0.0886186 0.0269962 0
6 1 0.109273 0.0200014 0
35 1 0.103061 0.0452381 0
5 1 0.0936639 0.00199047 0
37 1 0.124472 0.0373 0
8 1 0.130163 0.0121105 0
39 1 0.145244 0.0297941 0
880 1 0.151735 0.00567262 0
9 1 0.166978 0.0223575 0
40 1 0.183099 0.0391375 0
10 1 0.18891 0.0156981 0
41 1 0.204369 0.0342391 0
12 1 0.210296 0.00972645 0
14 1 0.225212 0.0274535 0
13 1 0.232087 0.00411511 0
15 1 0.245986 0.0219001 0
45 1 0.241322 0.0453303 0
46 1 0.266324 0.0170434 0
47 1 0.286212 0.0242105 0
77 1 0.269886 0.0423463 0
19 1 0.302155 0.00708402 0
49 1 0.307091 0.0313323 0
20 1 0.323229 0.0128717 0
51 1 0.32943 0.0374738 0
21 1 0.345381 0.0187005 0
23 1 0.366878 0.0250127 0
22 1 0.351632 0.043009 0
894 1 0.382501 0.00558033 0
24 1 0.388681 0.0308273 0
25 1 0.404428 0.0132642 0
26 1 0.410759 0.0374225 0
27 1 0.426705 0.0188033 0
29 1 0.447227 0.0253612 0
28 1 0.431601 0.0444506 0
898 1 0.441732 0.000877493 0
900 1 0.462651 0.00736125 0
30 1 0.468832 0.032169 0
901 1 0.484238 0.0144556 0
931 1 0.490055 0.0384141 0
960 1 0.0225543 0.048476 0
989 1 0.0183756 0.0724105 0
958 1 0.0016375 0.0549173 0
61 1 0.0395513 0.0660245 0
62 1 0.0548261 0.0842351 0
32 1 0.0611276 0.0585995 0
63 1 0.0759835 0.0765008 0
34 1 0.0821317 0.0522693 0
65 1 0.0978215 0.0693083 0
66 1 0.113191 0.0859761 0
36 1 0.119049 0.0617103 0
67 1 0.13547 0.0787226 0
38 1 0.140571 0.0549039 0
69 1 0.161597 0.046097 0
68 1 0.156203 0.0719077 0
70 1 0.171895 0.0888853 0
71 1 0.176904 0.0640125 0
72 1 0.192432 0.0804813 0
42 1 0.198161 0.0573424 0
43 1 0.21941 0.0514322 0
73 1 0.213455 0.0743868 0
44 1 0.235296 0.0688711 0
74 1 0.261666 0.0863729 0
75 1 0.256536 0.0631938 0
76 1 0.277783 0.067903 0
48 1 0.2919 0.0486922 0
79 1 0.298804 0.0739918 0
50 1 0.31301 0.0556678 0
81 1 0.320139 0.0805515 0
52 1 0.334896 0.0619846 0
82 1 0.341384 0.0854708 0
83 1 0.356997 0.0667268 0
53 1 0.373585 0.0496384 0
54 1 0.379015 0.0745611 0
55 1 0.395445 0.0549581 0
56 1 0.400383 0.0791905 0
57 1 0.416181 0.061605 0
87 1 0.421114 0.0864886 0
58 1 0.438616 0.0692659 0
59 1 0.453283 0.0509946 0
89 1 0.459804 0.0756535 0
932 1 0.496212 0.0626811 0
60 1 0.474806 0.057117 0
961 1 0.481311 0.0815613 0
990 1 0.0334725 0.0912457 0
1020 1 0.0294294 0.11583 0
1019 1 0.012723 0.0980949 0
1049 1 0.007514 0.121848 0
121 1 0.0458665 0.132975 0
91 1 0.050062 0.107846 0
92 1 0.0663736 0.12597 0
93 1 0.0717976 0.101846 0
64 1 0.0924638 0.0948395 0
94 1 0.0876332 0.119313 0
95 1 0.108948 0.111506 0
96 1 0.124796 0.127688 0
99 1 0.151323 0.096374 0
97 1 0.129449 0.103005 0
98 1 0.146087 0.119632 0
129 1 0.162574 0.137097 0
100 1 0.167045 0.11388 0
130 1 0.183652 0.129915 0
101 1 0.187562 0.105939 0
102 1 0.204388 0.122479 0
103 1 0.208142 0.0979988 0
104 1 0.228655 0.120403 0
105 1 0.228785 0.0930753 0
106 1 0.246771 0.105203 0
137 1 0.252369 0.1298 0
107 1 0.267439 0.111405 0
78 1 0.283057 0.0930668 0
109 1 0.287915 0.116997 0
108 1 0.273503 0.134688 0
80 1 0.304204 0.0976465 0
110 1 0.309547 0.122271 0
111 1 0.325382 0.103953 0
141 1 0.331645 0.129085 0
84 1 0.362671 0.0916983 0
113 1 0.347102 0.109638 0
112 1 0.368265 0.117363 0
143 1 0.353304 0.136063 0
85 1 0.383447 0.0988776 0
115 1 0.389556 0.122443 0
86 1 0.40536 0.104191 0
116 1 0.412087 0.128331 0
88 1 0.442934 0.0933499 0
117 1 0.427275 0.110748 0
119 1 0.449108 0.117516 0
90 1 0.464392 0.0990077 0
120 1 0.47148 0.122943 0
991 1 0.486632 0.106033 0
992 1 0.492623 0.130308 0
1050 1 0.0236572 0.139778 0
1079 1 0.0193626 0.165943 0
1048 1 0.00258251 0.148164 0
151 1 0.0396203 0.157409 0
122 1 0.0621092 0.150691 0
152 1 0.055908 0.175976 0
125 1 0.104391 0.135041 0
153 1 0.0786647 0.168798 0
123 1 0.0836125 0.143635 0
124 1 0.101925 0.170512 0
126 1 0.119677 0.153361 0
157 1 0.140345 0.166091 0
127 1 0.142061 0.142731 0
155 1 0.123439 0.180442 0
128 1 0.161761 0.170708 0
159 1 0.178056 0.154097 0
132 1 0.182882 0.177789 0
131 1 0.199674 0.159176 0
133 1 0.216972 0.141624 0
134 1 0.221725 0.16552 0
135 1 0.237704 0.148611 0
165 1 0.242612 0.172908 0
136 1 0.258141 0.154728 0
167 1 0.263521 0.178678 0
138 1 0.278755 0.159604 0
139 1 0.29517 0.142119 0
169 1 0.300832 0.16612 0
140 1 0.315965 0.146185 0
171 1 0.322045 0.17175 0
142 1 0.338449 0.154402 0
172 1 0.343925 0.178609 0
173 1 0.359018 0.160643 0
114 1 0.374486 0.141328 0
144 1 0.380434 0.165103 0
145 1 0.39626 0.14613 0
146 1 0.40156 0.171408 0
147 1 0.417513 0.152505 0
118 1 0.432958 0.13582 0
148 1 0.439063 0.159413 0
177 1 0.423379 0.177266 0
149 1 0.455234 0.141273 0
150 1 0.461109 0.165558 0
1051 1 0.482345 0.173107 0
1021 1 0.476524 0.148127 0
1022 1 0.49812 0.154269 0
1080 1 0.034139 0.183003 0
1107 1 0.00827188 0.215071 0
1109 1 0.0324195 0.217614 0
1078 1 0.01305 0.19062 0
181 1 0.0498846 0.200341 0
183 1 0.0711832 0.207529 0
182 1 0.05504 0.225572 0
154 1 0.087377 0.190919 0
185 1 0.092265 0.216072 0
156 1 0.107896 0.198129 0
186 1 0.114675 0.222304 0
158 1 0.129906 0.203941 0
160 1 0.146956 0.188457 0
189 1 0.151712 0.21274 0
161 1 0.167236 0.195612 0
191 1 0.173554 0.219884 0
162 1 0.189315 0.201857 0
163 1 0.20516 0.183247 0
192 1 0.195684 0.226327 0
193 1 0.210983 0.207983 0
164 1 0.226334 0.190517 0
195 1 0.232209 0.21467 0
166 1 0.246928 0.196796 0
196 1 0.253455 0.221286 0
197 1 0.268483 0.202803 0
168 1 0.284308 0.183884 0
198 1 0.275536 0.22687 0
199 1 0.290521 0.208053 0
170 1 0.306341 0.19071 0
200 1 0.312384 0.214697 0
201 1 0.327249 0.196014 0
202 1 0.333607 0.220398 0
174 1 0.365641 0.184259 0
203 1 0.349326 0.202448 0
204 1 0.370561 0.208227 0
233 1 0.354932 0.226532 0
175 1 0.38682 0.190071 0
205 1 0.392311 0.213915 0
176 1 0.407797 0.195746 0
207 1 0.413311 0.220013 0
179 1 0.445261 0.18362 0
178 1 0.429206 0.202576 0
209 1 0.451225 0.208953 0
180 1 0.466478 0.190644 0
1081 1 0.472957 0.215754 0
1052 1 0.488265 0.197065 0
1082 1 0.494432 0.220834 0
1140 1 0.0234664 0.262359 0
1110 1 0.0176375 0.23731 0
1108 1 0.00197108 0.254659 0
211 1 0.0392512 0.242813 0
212 1 0.0448879 0.266769 0
213 1 0.0615397 0.250332 0
184 1 0.0767516 0.232866 0
214 1 0.0829364 0.256858 0
215 1 0.0980212 0.239281 0
216 1 0.103741 0.263556 0
217 1 0.120333 0.246296 0
218 1 0.125114 0.270721 0
187 1 0.136194 0.229116 0
188 1 0.140925 0.253265 0
190 1 0.157527 0.236892 0
220 1 0.163224 0.260632 0
221 1 0.179203 0.243404 0
222 1 0.184995 0.268173 0
223 1 0.200545 0.249973 0
194 1 0.216402 0.232328 0
224 1 0.222939 0.255989 0
225 1 0.23801 0.238758 0
226 1 0.243547 0.262692 0
227 1 0.258877 0.245206 0
257 1 0.265063 0.269274 0
228 1 0.280914 0.250803 0
229 1 0.296452 0.232339 0
230 1 0.302372 0.256632 0
231 1 0.318163 0.239238 0
261 1 0.323722 0.263628 0
232 1 0.339957 0.244562 0
263 1 0.345389 0.269804 0
234 1 0.360927 0.251072 0
235 1 0.376469 0.232671 0
265 1 0.382594 0.257003 0
206 1 0.398363 0.238428 0
236 1 0.404088 0.262214 0
237 1 0.419244 0.244395 0
208 1 0.434599 0.226319 0
239 1 0.440637 0.251554 0
238 1 0.425466 0.268617 0
210 1 0.456252 0.23392 0
1113 1 0.500532 0.246084 0
240 1 0.463132 0.257259 0
1111 1 0.478669 0.239663 0
1112 1 0.484295 0.263948 0
1139 1 0.00625483 0.279615 0
1169 1 0.0137296 0.303449 0
241 1 0.0298327 0.285386 0
271 1 0.035781 0.310079 0
243 1 0.0667237 0.273984 0
242 1 0.0513801 0.291735 0
244 1 0.0722865 0.297625 0
273 1 0.0562198 0.316105 0
245 1 0.0880112 0.280682 0
246 1 0.0946748 0.305032 0
247 1 0.109735 0.287839 0
248 1 0.115145 0.31184 0
249 1 0.131135 0.294409 0
219 1 0.146893 0.277437 0
250 1 0.152499 0.302443 0
251 1 0.168962 0.285217 0
281 1 0.175261 0.309532 0
252 1 0.190323 0.29202 0
253 1 0.206699 0.274025 0
283 1 0.196224 0.31579 0
254 1 0.211802 0.298583 0
255 1 0.228221 0.280746 0
285 1 0.234303 0.304976 0
256 1 0.249673 0.286694 0
287 1 0.256114 0.310723 0
259 1 0.286702 0.274743 0
258 1 0.27187 0.293526 0
288 1 0.277592 0.318184 0
289 1 0.292802 0.299091 0
260 1 0.308076 0.281447 0
291 1 0.314105 0.305757 0
262 1 0.330397 0.288531 0
292 1 0.335595 0.31202 0
293 1 0.350989 0.293822 0
264 1 0.366232 0.274901 0
295 1 0.37207 0.300634 0
294 1 0.357231 0.318696 0
266 1 0.388064 0.281706 0
297 1 0.394139 0.305451 0
267 1 0.40971 0.28845 0
298 1 0.415718 0.312322 0
268 1 0.432012 0.293779 0
269 1 0.446852 0.274717 0
270 1 0.453549 0.300838 0
1141 1 0.468411 0.282962 0
300 1 0.47487 0.306898 0
1171 1 0.490172 0.289149 0
1172 1 0.496545 0.314161 0
1229 1 0.0257877 0.35152 0
1170 1 0.0194349 0.327932 0
1199 1 0.00437383 0.345843 0
1200 1 0.0409066 0.334073 0
301 1 0.0470587 0.358447 0
272 1 0.062389 0.33984 0
275 1 0.0778698 0.322157 0
274 1 0.0842928 0.347196 0
276 1 0.100106 0.329809 0
305 1 0.105279 0.353808 0
279 1 0.137119 0.319759 0
277 1 0.121323 0.336973 0
278 1 0.142799 0.343724 0
307 1 0.126658 0.360962 0
280 1 0.159232 0.326623 0
311 1 0.164703 0.349946 0
282 1 0.181024 0.334075 0
312 1 0.18667 0.357518 0
313 1 0.202792 0.34011 0
284 1 0.218541 0.32245 0
315 1 0.224585 0.346409 0
286 1 0.240544 0.329009 0
316 1 0.245758 0.353972 0
317 1 0.261652 0.335926 0
318 1 0.267108 0.360159 0
319 1 0.283157 0.342182 0
290 1 0.298755 0.324299 0
320 1 0.304038 0.348752 0
321 1 0.319746 0.33084 0
322 1 0.325097 0.355116 0
323 1 0.34072 0.336243 0
325 1 0.362641 0.342667 0
324 1 0.346843 0.359993 0
296 1 0.378267 0.324326 0
326 1 0.384078 0.34917 0
327 1 0.399787 0.329521 0
328 1 0.405806 0.353961 0
329 1 0.421772 0.33661 0
299 1 0.438036 0.318705 0
359 1 0.44343 0.342931 0
330 1 0.459657 0.325698 0
358 1 0.427712 0.361022 0
360 1 0.464795 0.349585 0
1201 1 0.48095 0.332378 0
1231 1 0.48595 0.35643 0
1259 1 0.00983083 0.36978 0
1230 1 0.0307729 0.375659 0
331 1 0.0369448 0.39985 0
1260 1 0.0159164 0.394613 0
303 1 0.0684531 0.364692 0
302 1 0.0521472 0.382215 0
333 1 0.0740503 0.38836 0
304 1 0.0901069 0.37169 0
335 1 0.0950731 0.39699 0
306 1 0.110295 0.379186 0
337 1 0.116589 0.403816 0
308 1 0.133687 0.385857 0
309 1 0.14799 0.367672 0
339 1 0.153579 0.393182 0
310 1 0.170432 0.374333 0
341 1 0.175112 0.39942 0
343 1 0.191413 0.381636 0
314 1 0.208492 0.364654 0
342 1 0.196637 0.406422 0
344 1 0.213442 0.3887 0
345 1 0.229788 0.371814 0
346 1 0.23494 0.395894 0
347 1 0.250973 0.378277 0
377 1 0.256356 0.402423 0
348 1 0.271958 0.384761 0
349 1 0.287421 0.366517 0
378 1 0.277922 0.409439 0
350 1 0.294159 0.391075 0
351 1 0.309663 0.372819 0
381 1 0.316247 0.397022 0
353 1 0.331122 0.378347 0
352 1 0.338281 0.402544 0
354 1 0.353171 0.384109 0
355 1 0.368879 0.36712 0
356 1 0.374968 0.391041 0
357 1 0.390266 0.372083 0
386 1 0.396399 0.396334 0
387 1 0.411195 0.378333 0
388 1 0.41816 0.40437 0
389 1 0.432092 0.385907 0
1232 1 0.448756 0.368369 0
1261 1 0.453919 0.392852 0
1262 1 0.469892 0.375416 0
1293 1 0.476171 0.399204 0
1263 1 0.49184 0.381815 0
1294 1 0.497571 0.406377 0
1319 1 0.00554579 0.43686 0
391 1 0.0270252 0.442546 0
1290 1 0.0213868 0.41849 0
332 1 0.0584376 0.406175 0
361 1 0.0426336 0.424192 0
362 1 0.0477213 0.449271 0
363 1 0.0640182 0.430701 0
334 1 0.0794111 0.413367 0
365 1 0.0851067 0.438488 0
336 1 0.100363 0.420885 0
366 1 0.106352 0.445964 0
338 1 0.137411 0.40979 0
367 1 0.12266 0.428442 0
369 1 0.143799 0.434671 0
368 1 0.128737 0.452537 0
340 1 0.158928 0.417116 0
370 1 0.16495 0.441424 0
371 1 0.180971 0.424184 0
401 1 0.186638 0.448048 0
372 1 0.203004 0.430612 0
373 1 0.218408 0.413833 0
374 1 0.224945 0.437891 0
375 1 0.240396 0.419532 0
405 1 0.245912 0.444722 0
376 1 0.26244 0.427152 0
407 1 0.267983 0.451503 0
409 1 0.284231 0.433595 0
379 1 0.300331 0.415476 0
380 1 0.305523 0.439421 0
382 1 0.321469 0.421739 0
413 1 0.327904 0.445453 0
383 1 0.342408 0.42718 0
385 1 0.358907 0.408923 0
414 1 0.364644 0.433276 0
412 1 0.349087 0.452281 0
384 1 0.380068 0.41514 0
415 1 0.386421 0.440024 0
417 1 0.40069 0.422111 0
416 1 0.407502 0.447758 0
419 1 0.438699 0.410242 0
418 1 0.422263 0.428524 0
390 1 0.444578 0.434914 0
447 1 0.429363 0.452557 0
1291 1 0.46022 0.417954 0
1292 1 0.482346 0.424602 0
1321 1 0.466205 0.441809 0
1322 1 0.487609 0.44858 0
1320 1 0.0110957 0.462034 0
421 1 0.0173943 0.486421 0
392 1 0.0329845 0.468166 0
422 1 0.038863 0.492312 0
364 1 0.0693899 0.45605 0
393 1 0.0543919 0.474513 0
394 1 0.0753759 0.481582 0
423 1 0.0596349 0.499664 0
395 1 0.090083 0.462729 0
396 1 0.0966905 0.487364 0
397 1 0.112161 0.46907 0
427 1 0.117792 0.493754 0
399 1 0.150662 0.459352 0
398 1 0.133918 0.47693 0
429 1 0.15559 0.483705 0
400 1 0.171368 0.466169 0
431 1 0.177605 0.490171 0
403 1 0.208333 0.455077 0
402 1 0.192862 0.472398 0
432 1 0.19887 0.497587 0
433 1 0.214502 0.480002 0
404 1 0.230412 0.462672 0
435 1 0.236805 0.486774 0
406 1 0.251817 0.468202 0
436 1 0.257424 0.493849 0
408 1 0.273547 0.476292 0
410 1 0.289018 0.457559 0
441 1 0.294768 0.482025 0
439 1 0.278651 0.500355 0
411 1 0.310503 0.463357 0
440 1 0.316532 0.488161 0
442 1 0.33265 0.469195 0
471 1 0.338826 0.493539 0
473 1 0.354042 0.476096 0
443 1 0.370431 0.458161 0
444 1 0.376133 0.48291 0
472 1 0.359608 0.500809 0
445 1 0.391807 0.464572 0
475 1 0.397752 0.489198 0
446 1 0.413847 0.471139 0
477 1 0.419985 0.49504 0
449 1 0.456472 0.48414 0
448 1 0.434957 0.477259 0
420 1 0.450394 0.460006 0
450 1 0.472198 0.465739 0
1353 1 0.493968 0.473584 0
1351 1 0.477712 0.490403 0
452 1 0.0278718 0.534812 0
451 1 0.0233468 0.509854 0
1380 1 0.007504 0.527659 0
1350 1 0.00146302 0.503376 0
453 1 0.0444306 0.517245 0
454 1 0.050671 0.542481 0
424 1 0.0653498 0.523666 0
425 1 0.0811305 0.505588 0
455 1 0.0871724 0.530252 0
426 1 0.102336 0.512236 0
456 1 0.108097 0.53753 0
457 1 0.124147 0.517735 0
459 1 0.146153 0.526026 0
428 1 0.139758 0.501213 0
458 1 0.130028 0.543297 0
430 1 0.160693 0.508175 0
460 1 0.16729 0.53226 0
461 1 0.182345 0.514593 0
462 1 0.188467 0.538453 0
463 1 0.204849 0.521174 0
434 1 0.220286 0.50438 0
464 1 0.226508 0.528194 0
465 1 0.242077 0.511316 0
466 1 0.248357 0.534835 0
437 1 0.264066 0.51888 0
497 1 0.269928 0.542865 0
467 1 0.285738 0.524071 0
438 1 0.301248 0.50591 0
468 1 0.307576 0.529421 0
469 1 0.323244 0.512012 0
499 1 0.329411 0.536667 0
470 1 0.344572 0.518896 0
503 1 0.366469 0.524102 0
501 1 0.350884 0.542903 0
474 1 0.382094 0.506965 0
505 1 0.388569 0.530651 0
476 1 0.404658 0.512882 0
506 1 0.40994 0.536755 0
507 1 0.426322 0.519265 0
480 1 0.447536 0.526317 0
478 1 0.441108 0.501751 0
509 1 0.430987 0.543558 0
479 1 0.462304 0.507969 0
510 1 0.468037 0.532733 0
1381 1 0.483521 0.514452 0
1411 1 0.489371 0.538684 0
481 1 0.012462 0.553096 0
483 1 0.0347013 0.561099 0
1410 1 0.0178096 0.577684 0
482 1 0.0395677 0.584967 0
485 1 0.0714626 0.548649 0
513 1 0.0553508 0.566787 0
484 1 0.0772819 0.573462 0
486 1 0.0924844 0.555629 0
515 1 0.0991142 0.580927 0
487 1 0.114586 0.561425 0
517 1 0.121134 0.58611 0
489 1 0.152173 0.550585 0
488 1 0.136997 0.568833 0
490 1 0.157806 0.574543 0
491 1 0.173062 0.556943 0
521 1 0.17922 0.581079 0
493 1 0.209601 0.545183 0
492 1 0.193717 0.562507 0
523 1 0.200561 0.587639 0
494 1 0.215415 0.570271 0
495 1 0.232481 0.553669 0
525 1 0.237851 0.577525 0
496 1 0.253764 0.559807 0
526 1 0.260737 0.584316 0
527 1 0.276643 0.567902 0
498 1 0.29199 0.548848 0
529 1 0.299036 0.572683 0
528 1 0.283083 0.591122 0
500 1 0.313462 0.553479 0
530 1 0.319809 0.578483 0
531 1 0.335352 0.561099 0
532 1 0.341795 0.584848 0
533 1 0.356821 0.567414 0
502 1 0.372352 0.548067 0
534 1 0.378185 0.572393 0
504 1 0.393916 0.555246 0
535 1 0.400005 0.579064 0
508 1 0.41522 0.56057 0
537 1 0.421283 0.585909 0
539 1 0.436894 0.568311 0
540 1 0.452643 0.551539 0
569 1 0.45784 0.575671 0
1442 1 0.479857 0.580914 0
1441 1 0.474519 0.55743 0
1412 1 0.495486 0.563021 0
511 1 0.0238492 0.601951 0
541 1 0.0291336 0.626605 0
1440 1 0.00547709 0.620102 0
1439 1 0.00241207 0.594901 0
514 1 0.0607811 0.59083 0
512 1 0.045482 0.60891 0
542 1 0.0514744 0.632793 0
543 1 0.0670107 0.615646 0
545 1 0.0828096 0.59828 0
546 1 0.089019 0.62322 0
516 1 0.104632 0.605471 0
547 1 0.110885 0.628348 0
518 1 0.125671 0.610286 0
519 1 0.141557 0.593454 0
548 1 0.148932 0.617446 0
577 1 0.132364 0.634329 0
520 1 0.163852 0.599732 0
549 1 0.168987 0.624837 0
522 1 0.185339 0.606923 0
551 1 0.191405 0.630691 0
553 1 0.206916 0.612354 0
524 1 0.221931 0.594035 0
554 1 0.228459 0.61892 0
555 1 0.244227 0.601297 0
556 1 0.250152 0.626038 0
557 1 0.267272 0.609393 0
558 1 0.28868 0.614052 0
587 1 0.272093 0.632914 0
559 1 0.304695 0.596727 0
561 1 0.326768 0.603034 0
560 1 0.310261 0.619876 0
591 1 0.331964 0.627021 0
562 1 0.347741 0.609361 0
563 1 0.363405 0.592229 0
565 1 0.368499 0.616329 0
564 1 0.353174 0.633725 0
536 1 0.384076 0.596017 0
566 1 0.390113 0.622586 0
567 1 0.40549 0.604064 0
597 1 0.411905 0.629808 0
568 1 0.42677 0.610482 0
538 1 0.441951 0.592514 0
600 1 0.448406 0.616403 0
599 1 0.432888 0.635343 0
570 1 0.464364 0.598881 0
1501 1 0.470196 0.622573 0
1471 1 0.486339 0.604338 0
1472 1 0.491767 0.629717 0
1470 1 0.014569 0.644143 0
571 1 0.0355526 0.651824 0
1500 1 0.00912323 0.667272 0
572 1 0.0430647 0.675556 0
544 1 0.0726765 0.640087 0
573 1 0.0575293 0.658121 0
574 1 0.0783652 0.663856 0
575 1 0.0944349 0.647395 0
605 1 0.0997077 0.671221 0
576 1 0.116979 0.652728 0
607 1 0.121471 0.677423 0
578 1 0.137774 0.659009 0
579 1 0.154534 0.64296 0
609 1 0.160236 0.666316 0
550 1 0.17546 0.648566 0
580 1 0.181944 0.671959 0
552 1 0.213285 0.63712 0
581 1 0.197893 0.655579 0
611 1 0.202692 0.679325 0
582 1 0.219003 0.66223 0
583 1 0.234475 0.643731 0
584 1 0.239861 0.668827 0
585 1 0.256178 0.649836 0
615 1 0.262525 0.673804 0
586 1 0.278088 0.656014 0
589 1 0.294168 0.637836 0
588 1 0.299044 0.663642 0
590 1 0.315289 0.644646 0
621 1 0.321052 0.668352 0
593 1 0.337271 0.651374 0
592 1 0.342513 0.676576 0
594 1 0.359027 0.658909 0
595 1 0.374794 0.640733 0
625 1 0.380377 0.664703 0
596 1 0.395836 0.647025 0
627 1 0.401644 0.671841 0
598 1 0.417162 0.6529 0
657 1 0.422886 0.678513 0
628 1 0.438788 0.658947 0
629 1 0.454668 0.640934 0
630 1 0.459817 0.666058 0
1503 1 0.496719 0.654117 0
1502 1 0.475376 0.647506 0
1533 1 0.481165 0.672365 0
601 1 0.0235935 0.686274 0
631 1 0.0205532 0.709916 0
632 1 0.0359711 0.727301 0
1530 1 0.00320209 0.692582 0
603 1 0.063104 0.683412 0
602 1 0.0427052 0.701605 0
633 1 0.0670742 0.707833 0
604 1 0.0836084 0.688654 0
635 1 0.0890419 0.712702 0
606 1 0.10491 0.695708 0
636 1 0.112336 0.718983 0
637 1 0.127987 0.700773 0
608 1 0.143182 0.683458 0
638 1 0.149106 0.707903 0
667 1 0.133896 0.724961 0
639 1 0.165014 0.689925 0
641 1 0.170752 0.713602 0
610 1 0.186283 0.696968 0
642 1 0.192308 0.721209 0
612 1 0.208184 0.703988 0
613 1 0.224989 0.686585 0
643 1 0.231092 0.71069 0
614 1 0.246799 0.692872 0
645 1 0.253016 0.716072 0
616 1 0.269107 0.699258 0
617 1 0.284582 0.681221 0
647 1 0.27408 0.724234 0
618 1 0.29071 0.706493 0
619 1 0.306314 0.68766 0
620 1 0.31175 0.713985 0
622 1 0.327256 0.695082 0
651 1 0.332095 0.719101 0
623 1 0.364492 0.682432 0
653 1 0.348712 0.701033 0
624 1 0.370082 0.708002 0
654 1 0.354279 0.724964 0
626 1 0.386428 0.689408 0
655 1 0.391451 0.714391 0
656 1 0.406659 0.695841 0
686 1 0.412635 0.720492 0
658 1 0.428574 0.702502 0
659 1 0.444327 0.684637 0
660 1 0.44974 0.709414 0
1531 1 0.466343 0.690426 0
1561 1 0.470882 0.715678 0
1532 1 0.487036 0.698188 0
1563 1 0.49285 0.72196 0
663 1 0.0297705 0.751935 0
661 1 0.0147241 0.734185 0
1590 1 0.00878729 0.759343 0
662 1 0.0465157 0.768748 0
634 1 0.0729817 0.733366 0
664 1 0.0526361 0.744848 0
695 1 0.0684003 0.761047 0
665 1 0.0957503 0.735687 0
697 1 0.100797 0.760216 0
666 1 0.117701 0.742521 0
668 1 0.123098 0.766456 0
669 1 0.139974 0.74957 0
640 1 0.155566 0.731851 0
670 1 0.161369 0.756578 0
671 1 0.177387 0.738374 0
672 1 0.18367 0.762809 0
644 1 0.215607 0.728619 0
673 1 0.20016 0.745853 0
703 1 0.205402 0.769866 0
674 1 0.220988 0.75323 0
675 1 0.237602 0.734645 0
705 1 0.242295 0.759339 0
646 1 0.259064 0.741308 0
677 1 0.264213 0.765781 0
648 1 0.280131 0.748888 0
649 1 0.295716 0.731025 0
679 1 0.301188 0.755377 0
650 1 0.317463 0.738654 0
681 1 0.322998 0.763167 0
652 1 0.339074 0.743927 0
682 1 0.34495 0.768243 0
683 1 0.360752 0.750803 0
685 1 0.375552 0.732478 0
684 1 0.382244 0.756678 0
715 1 0.39652 0.738897 0
714 1 0.403737 0.763826 0
717 1 0.418511 0.745574 0
687 1 0.433822 0.727359 0
716 1 0.424782 0.769978 0
688 1 0.439715 0.751751 0
689 1 0.455591 0.733575 0
719 1 0.461485 0.758889 0
690 1 0.47751 0.740741 0
1591 1 0.48266 0.764495 0
1562 1 0.499428 0.74581 0
691 1 0.0245252 0.776109 0
721 1 0.0195966 0.800566 0
1620 1 0.00236703 0.783793 0
693 1 0.0412317 0.793323 0
723 1 0.0568703 0.81109 0
694 1 0.0625049 0.786733 0
725 1 0.0773825 0.804464 0
696 1 0.0837122 0.780595 0
727 1 0.100173 0.797252 0
728 1 0.115353 0.815865 0
698 1 0.121897 0.791524 0
699 1 0.144406 0.774519 0
700 1 0.135798 0.809806 0
731 1 0.153607 0.797299 0
701 1 0.168551 0.779802 0
702 1 0.189716 0.787328 0
732 1 0.173452 0.805584 0
763 1 0.195104 0.812964 0
733 1 0.210649 0.796244 0
704 1 0.226667 0.778282 0
706 1 0.232168 0.80198 0
676 1 0.248326 0.784514 0
737 1 0.254704 0.809052 0
678 1 0.28603 0.772718 0
707 1 0.270573 0.790267 0
738 1 0.275518 0.814595 0
708 1 0.291325 0.797432 0
709 1 0.306905 0.780794 0
710 1 0.313317 0.804766 0
680 1 0.328852 0.787187 0
741 1 0.334952 0.811814 0
713 1 0.366513 0.775567 0
711 1 0.350559 0.792827 0
712 1 0.372398 0.799698 0
742 1 0.356591 0.81685 0
743 1 0.388136 0.781609 0
745 1 0.393482 0.807079 0
746 1 0.409853 0.789037 0
775 1 0.415257 0.812305 0
718 1 0.446473 0.776361 0
747 1 0.430644 0.794511 0
749 1 0.452316 0.799813 0
720 1 0.468326 0.782685 0
1621 1 0.473476 0.806471 0
1592 1 0.488991 0.790004 0
1622 1 0.495824 0.813928 0
692 1 0.0348906 0.817503 0
1680 1 0.0302854 0.842364 0
1650 1 0.0140561 0.825167 0
1709 1 0.00885524 0.848883 0
752 1 0.0457367 0.858746 0
751 1 0.051197 0.834754 0
753 1 0.0670767 0.852721 0
722 1 0.0726165 0.829437 0
726 1 0.0935554 0.821641 0
724 1 0.0888487 0.846326 0
757 1 0.110153 0.840098 0
755 1 0.105175 0.86349 0
756 1 0.127085 0.856962 0
729 1 0.131576 0.833013 0
759 1 0.148641 0.848707 0
730 1 0.155021 0.823312 0
761 1 0.17879 0.830817 0
792 1 0.185429 0.85746 0
762 1 0.200522 0.83807 0
735 1 0.217025 0.81967 0
734 1 0.221845 0.843768 0
764 1 0.206399 0.861084 0
736 1 0.237878 0.826008 0
765 1 0.244283 0.85063 0
767 1 0.259406 0.833202 0
766 1 0.266128 0.85836 0
768 1 0.280334 0.839814 0
739 1 0.297247 0.821992 0
769 1 0.301425 0.847039 0
740 1 0.318022 0.829106 0
770 1 0.323203 0.853002 0
771 1 0.340091 0.836019 0
801 1 0.345731 0.860534 0
773 1 0.362199 0.841763 0
744 1 0.377648 0.824662 0
803 1 0.383178 0.84796 0
774 1 0.399203 0.831163 0
776 1 0.404931 0.854675 0
777 1 0.421236 0.837009 0
748 1 0.436738 0.818504 0
779 1 0.442474 0.84361 0
778 1 0.427613 0.861475 0
750 1 0.458313 0.824573 0
1651 1 0.479634 0.831932 0
780 1 0.46422 0.849129 0
1652 1 0.485723 0.856334 0
1710 1 0.00280449 0.874158 0
781 1 0.0243698 0.866659 0
811 1 0.0188031 0.890646 0
812 1 0.0351612 0.907486 0
782 1 0.040632 0.88345 0
813 1 0.0565818 0.901119 0
783 1 0.06164 0.876399 0
784 1 0.0782966 0.894876 0
754 1 0.0836768 0.871023 0
785 1 0.0991344 0.887861 0
786 1 0.115881 0.903591 0
787 1 0.120928 0.880137 0
788 1 0.137868 0.897787 0
758 1 0.143148 0.873352 0
760 1 0.164363 0.865537 0
789 1 0.15924 0.890601 0
790 1 0.175162 0.907661 0
791 1 0.18035 0.88288 0
823 1 0.196205 0.901816 0
793 1 0.213373 0.886022 0
795 1 0.228625 0.868427 0
794 1 0.234645 0.893803 0
796 1 0.250067 0.875306 0
825 1 0.255629 0.901001 0
797 1 0.286911 0.865091 0
827 1 0.271169 0.883033 0
826 1 0.277319 0.907197 0
798 1 0.292991 0.889638 0
799 1 0.308721 0.871847 0
829 1 0.314872 0.895459 0
800 1 0.330026 0.877596 0
831 1 0.336735 0.902429 0
802 1 0.351722 0.884406 0
772 1 0.367849 0.866891 0
804 1 0.374278 0.891013 0
833 1 0.357951 0.908078 0
805 1 0.389073 0.871949 0
806 1 0.395235 0.896951 0
807 1 0.411284 0.8785 0
837 1 0.417039 0.902505 0
809 1 0.449502 0.868011 0
808 1 0.433519 0.885626 0
810 1 0.45476 0.892339 0
1681 1 0.470789 0.87498 0
1711 1 0.476597 0.89883 0
1682 1 0.492015 0.879791 0
1713 1 0.497252 0.903742 0
841 1 0.0293521 0.932626 0
1740 1 0.0137756 0.915562 0
1769 1 0.00831482 0.940721 0
842 1 0.045114 0.949928 0
843 1 0.0505161 0.924859 0
844 1 0.0661547 0.94292 0
814 1 0.0723222 0.918633 0
815 1 0.0942218 0.912197 0
845 1 0.088933 0.936222 0
816 1 0.110988 0.928565 0
846 1 0.10464 0.952845 0
847 1 0.126107 0.945987 0
819 1 0.153271 0.914695 0
817 1 0.132002 0.92215 0
818 1 0.148088 0.939052 0
820 1 0.170155 0.931957 0
851 1 0.184829 0.950382 0
821 1 0.190305 0.92543 0
822 1 0.204763 0.942757 0
824 1 0.216804 0.912164 0
853 1 0.225987 0.935408 0
855 1 0.241123 0.917491 0
854 1 0.245845 0.945571 0
856 1 0.261516 0.925508 0
885 1 0.268201 0.950087 0
857 1 0.284105 0.931723 0
828 1 0.298933 0.913728 0
859 1 0.305613 0.938259 0
830 1 0.320796 0.920617 0
860 1 0.326454 0.945575 0
832 1 0.342928 0.927264 0
863 1 0.363518 0.932088 0
861 1 0.348263 0.950879 0
834 1 0.380019 0.914922 0
865 1 0.385356 0.938807 0
835 1 0.401643 0.920461 0
836 1 0.406785 0.945372 0
839 1 0.43835 0.91043 0
838 1 0.422888 0.927636 0
869 1 0.444934 0.934014 0
867 1 0.429231 0.952125 0
840 1 0.460915 0.916277 0
1712 1 0.482344 0.921866 0
1741 1 0.466465 0.940395 0
1742 1 0.487595 0.946226 0
1799 1 0.00314299 0.96503 0
1770 1 0.023855 0.956987 0
1800 1 0.0193504 0.981773 0
1 1 0.0355705 0.999649 0
871 1 0.0402236 0.974655 0
872 1 0.0556372 0.992407 0
873 1 0.0610896 0.967339 0
874 1 0.078184 0.983763 0
875 1 0.0826876 0.9596 0
876 1 0.0986992 0.976529 0
7 1 0.11428 0.995218 0
877 1 0.120584 0.970729 0
878 1 0.135797 0.987762 0
848 1 0.141773 0.963155 0
849 1 0.163758 0.956432 0
879 1 0.156584 0.980764 0
881 1 0.17248 0.998687 0
850 1 0.178994 0.973887 0
11 1 0.19358 0.991614 0
852 1 0.20025 0.966981 0
883 1 0.221976 0.960513 0
882 1 0.214488 0.986136 0
884 1 0.235244 0.980209 0
886 1 0.254084 0.968321 0
16 1 0.256523 0.99294 0
887 1 0.289739 0.956583 0
17 1 0.27526 0.974886 0
888 1 0.296192 0.981501 0
18 1 0.281416 0.99943 0
858 1 0.311795 0.963475 0
889 1 0.317704 0.988176 0
891 1 0.332886 0.969919 0
890 1 0.339402 0.994413 0
862 1 0.354409 0.976138 0
864 1 0.369682 0.957788 0
893 1 0.376044 0.981108 0
892 1 0.361741 1.00092 0
895 1 0.391195 0.962978 0
896 1 0.397258 0.987143 0
866 1 0.413847 0.969509 0
897 1 0.41937 0.994302 0
868 1 0.435488 0.97616 0
899 1 0.457724 0.98338 0
870 1 0.450621 0.95832 0
1772 1 0.478519 0.989455 0
1771 1 0.471813 0.965009 0
903 1 0.499724 0.996998 0
1773 1 0.493237 0.971133 0
902 1 0.506348 0.0210045 0
904 1 0.527055 0.0271211 0
905 1 0.521268 0.00201476 0
933 1 0.512142 0.0453391 0
906 1 0.542542 0.00857469 0
935 1 0.548706 0.0330623 0
908 1 0.56479 0.0154713 0
937 1 0.57065 0.0393662 0
939 1 0.586076 0.0211388 0
940 1 0.607364 0.0277551 0
941 1 0.601487 0.00320751 0
938 1 0.592034 0.0459607 0
942 1 0.751631 0.0250447 0
944 1 0.768485 0.0418132 0
943 1 0.773338 0.0173726 0
945 1 0.789039 0.0342133 0
914 1 0.794435 0.0104637 0
947 1 0.810773 0.0273206 0
918 1 0.832051 0.0205198 0
916 1 0.815568 0.00250975 0
948 1 0.826994 0.0445259 0
949 1 0.848262 0.0377646 0
919 1 0.853303 0.0142107 0
920 1 0.870021 0.0319907 0
1790 1 0.874498 0.00674511 0
951 1 0.891426 0.0245855 0
922 1 0.912402 0.0176429 0
952 1 0.906884 0.0427349 0
921 1 0.896402 0.000461332 0
953 1 0.928419 0.0348577 0
924 1 0.933109 0.0103258 0
955 1 0.949281 0.0271971 0
925 1 0.954936 0.00268773 0
926 1 0.970503 0.0202512 0
957 1 0.986315 0.037364 0
928 1 0.992151 0.0128254 0
963 1 0.517955 0.0698692 0
934 1 0.53338 0.0514283 0
962 1 0.502448 0.0875515 0
965 1 0.53999 0.0753612 0
936 1 0.555135 0.0572258 0
966 1 0.561284 0.0826302 0
967 1 0.576479 0.0645409 0
968 1 0.58198 0.0887439 0
969 1 0.598209 0.0701943 0
971 1 0.746549 0.0481568 0
970 1 0.738613 0.0713923 0
973 1 0.761734 0.0654264 0
972 1 0.753967 0.0892533 0
975 1 0.783351 0.0596555 0
1003 1 0.777079 0.0831563 0
974 1 0.800031 0.0761689 0
946 1 0.805515 0.0517798 0
976 1 0.821648 0.068796 0
1007 1 0.837177 0.0873312 0
977 1 0.842366 0.0624693 0
979 1 0.864505 0.0557853 0
978 1 0.85825 0.0792624 0
980 1 0.879611 0.0741804 0
950 1 0.885195 0.0500838 0
981 1 0.901004 0.0671437 0
982 1 0.916301 0.084479 0
983 1 0.92241 0.0599461 0
1011 1 0.894866 0.0916497 0
984 1 0.937375 0.0778448 0
954 1 0.944159 0.0538449 0
985 1 0.959314 0.0708383 0
956 1 0.964843 0.0448201 0
987 1 0.980703 0.0623381 0
988 1 0.997074 0.0800123 0
986 1 0.976154 0.0877691 0
964 1 0.523855 0.0933388 0
993 1 0.508382 0.111182 0
994 1 0.530609 0.118723 0
995 1 0.545757 0.10095 0
996 1 0.551963 0.124957 0
997 1 0.566312 0.1069 0
1027 1 0.573177 0.131744 0
998 1 0.588861 0.113113 0
1000 1 0.609527 0.120861 0
1030 1 0.631223 0.126576 0
999 1 0.648751 0.10926 0
1032 1 0.652911 0.133331 0
1001 1 0.670256 0.116547 0
1002 1 0.692162 0.123143 0
1033 1 0.771326 0.107132 0
1065 1 0.787577 0.123831 0
1004 1 0.793054 0.0999035 0
1035 1 0.809453 0.11651 0
1005 1 0.815028 0.0928824 0
1006 1 0.83022 0.110925 0
1037 1 0.846775 0.128403 0
1008 1 0.8532 0.104985 0
1039 1 0.868047 0.122691 0
1009 1 0.874019 0.0982675 0
1010 1 0.889647 0.115687 0
1012 1 0.910687 0.109158 0
1041 1 0.905346 0.133848 0
1015 1 0.953292 0.0959743 0
1043 1 0.927061 0.125789 0
1013 1 0.931836 0.102302 0
1014 1 0.94803 0.119637 0
1017 1 0.969578 0.112867 0
1018 1 0.991953 0.106312 0
1047 1 0.98643 0.13045 0
1023 1 0.513821 0.136198 0
1024 1 0.520215 0.160282 0
1025 1 0.535748 0.141815 0
1053 1 0.504036 0.178562 0
1055 1 0.541549 0.167185 0
1026 1 0.556813 0.149759 0
1057 1 0.562841 0.174297 0
1028 1 0.578381 0.155683 0
1029 1 0.594032 0.139072 0
1058 1 0.600084 0.163477 0
1087 1 0.58419 0.181224 0
1059 1 0.616151 0.144986 0
1060 1 0.622163 0.169556 0
1061 1 0.63815 0.152209 0
1091 1 0.643144 0.17633 0