ITEM: TIMESTEP
223000
ITEM: NUMBER OF ATOMS
1800
ITEM: BOX BOUNDS pp pp pp
-7.7978799993908883e+00 1.7279787999939282e+02
1.1826529217466231e+00 1.6381734707825530e+02
0.0000000000000000e+00 5.5000000000000000e+00
ITEM: ATOMS id type xs ys zs
930 1 0.0279286 0.0223196 0
929 1 0.0107656 0.00523775 0
959 1 0.0058778 0.0288968 0
31 1 0.0444442 0.0399036 0
2 1 0.0488829 0.0144111 0
33 1 0.0658336 0.0313227 0
3 1 0.0698137 0.00621262 0
4 1 0.0863295 0.0231304 0
6 1 0.107259 0.0168114 0
37 1 0.125153 0.0342628 0
35 1 0.103777 0.0417095 0
5 1 0.0910359 -0.00124558 0
8 1 0.129109 0.00972876 0
39 1 0.146066 0.0262498 0
69 1 0.1633 0.0433863 0
880 1 0.150047 0.00166678 0
9 1 0.16717 0.018622 0
40 1 0.183564 0.035201 0
10 1 0.188298 0.00987602 0
41 1 0.204415 0.0263916 0
12 1 0.209376 0.00206938 0
14 1 0.226006 0.0181668 0
15 1 0.246253 0.0110398 0
45 1 0.243507 0.0350449 0
43 1 0.221362 0.042883 0
16 1 0.264886 0.000322589 0
46 1 0.265495 0.0246874 0
47 1 0.289166 0.0283885 0
18 1 0.285586 0.00248805 0
49 1 0.310691 0.0345079 0
19 1 0.305451 0.0109042 0
20 1 0.326545 0.0156687 0
51 1 0.331392 0.0409104 0
21 1 0.348174 0.0210189 0
23 1 0.369438 0.0269913 0
892 1 0.361571 0.0025962 0
22 1 0.352872 0.0456094 0
894 1 0.383428 0.00857242 0
24 1 0.390614 0.0328131 0
25 1 0.405638 0.0138163 0
26 1 0.411671 0.0393043 0
27 1 0.427047 0.01994 0
29 1 0.448544 0.0262515 0
898 1 0.442024 0.00178008 0
28 1 0.433602 0.0444176 0
900 1 0.463076 0.00778422 0
30 1 0.469443 0.0324779 0
901 1 0.486194 0.0140175 0
931 1 0.491336 0.0389091 0
960 1 0.0215565 0.0458214 0
989 1 0.0178454 0.0715859 0
61 1 0.0386756 0.0638887 0
990 1 0.0343751 0.0886817 0
958 1 0.00154897 0.0540715 0
62 1 0.0558834 0.0808307 0
32 1 0.0605847 0.0560985 0
63 1 0.076932 0.073056 0
34 1 0.0818679 0.0484332 0
65 1 0.0979934 0.065916 0
36 1 0.120005 0.0584826 0
66 1 0.114909 0.082319 0
67 1 0.13574 0.0752272 0
38 1 0.141818 0.0504811 0
68 1 0.158558 0.0670435 0
70 1 0.174974 0.0845582 0
71 1 0.180219 0.0602934 0
72 1 0.19704 0.0771477 0
42 1 0.200546 0.0519359 0
73 1 0.217857 0.0698642 0
44 1 0.237325 0.0589023 0
105 1 0.23899 0.0833889 0
77 1 0.272862 0.0478859 0
74 1 0.262328 0.0896418 0
75 1 0.258124 0.0655496 0
76 1 0.279016 0.0716643 0
48 1 0.293962 0.0527005 0
79 1 0.299888 0.0763697 0
50 1 0.315336 0.0584969 0
81 1 0.321387 0.0826118 0
52 1 0.336983 0.0652055 0
83 1 0.358771 0.0698581 0
82 1 0.343659 0.0894469 0
53 1 0.374807 0.0506365 0
54 1 0.380885 0.0753916 0
55 1 0.395947 0.0575639 0
56 1 0.402182 0.0808649 0
57 1 0.417613 0.0631306 0
58 1 0.439211 0.069677 0
87 1 0.423579 0.0874886 0
59 1 0.454863 0.0513858 0
89 1 0.460884 0.0756347 0
60 1 0.476373 0.0579345 0
961 1 0.483388 0.0814382 0
1020 1 0.0288079 0.114307 0
1019 1 0.0125665 0.0962342 0
1049 1 0.00814103 0.121306 0
121 1 0.0461503 0.130073 0
91 1 0.0511459 0.105138 0
92 1 0.0670179 0.123459 0
93 1 0.072394 0.0990524 0
64 1 0.0925322 0.0910664 0
94 1 0.0884812 0.115923 0
95 1 0.109573 0.106868 0
125 1 0.105087 0.13211 0
96 1 0.12583 0.124346 0
97 1 0.131728 0.0999684 0
98 1 0.148459 0.115751 0
99 1 0.152793 0.0913386 0
129 1 0.164293 0.132876 0
100 1 0.170029 0.108945 0
130 1 0.186971 0.126404 0
101 1 0.192468 0.100357 0
102 1 0.209138 0.118143 0
103 1 0.214827 0.094476 0
104 1 0.230887 0.123705 0
106 1 0.247126 0.107015 0
137 1 0.252359 0.131124 0
107 1 0.268818 0.114392 0
78 1 0.284351 0.0952022 0
109 1 0.291162 0.118303 0
108 1 0.274631 0.137667 0
80 1 0.306272 0.100042 0
110 1 0.312916 0.124618 0
111 1 0.327859 0.106703 0
141 1 0.334428 0.130356 0
113 1 0.350066 0.112451 0
84 1 0.36533 0.0940481 0
112 1 0.371816 0.118551 0
143 1 0.356067 0.13624 0
85 1 0.387231 0.0999067 0
115 1 0.393249 0.123347 0
86 1 0.408845 0.105491 0
116 1 0.414954 0.129379 0
88 1 0.445665 0.0939743 0
117 1 0.430615 0.111696 0
119 1 0.452345 0.119108 0
118 1 0.437026 0.136928 0
90 1 0.467723 0.100075 0
120 1 0.474362 0.125272 0
991 1 0.489896 0.105868 0
992 1 0.495652 0.132055 0
1050 1 0.0237859 0.138602 0
1079 1 0.0192963 0.163094 0
151 1 0.040911 0.155352 0
1080 1 0.0363921 0.179733 0
1048 1 0.00204824 0.145964 0
122 1 0.0625437 0.148438 0
153 1 0.0773547 0.165871 0
123 1 0.0841391 0.141541 0
124 1 0.101207 0.157803 0
126 1 0.122381 0.148886 0
155 1 0.119818 0.175935 0
157 1 0.139707 0.163443 0
127 1 0.143359 0.139856 0
128 1 0.160867 0.168203 0
159 1 0.178981 0.151073 0
131 1 0.199311 0.159003 0
132 1 0.18173 0.175688 0
135 1 0.235993 0.148479 0
133 1 0.214505 0.141897 0
134 1 0.221173 0.166646 0
165 1 0.243077 0.172653 0
136 1 0.258583 0.155082 0
138 1 0.280878 0.161429 0
167 1 0.264037 0.178727 0
139 1 0.29694 0.142963 0
169 1 0.302586 0.166911 0
140 1 0.318785 0.148538 0
171 1 0.324387 0.172499 0
142 1 0.340677 0.154884 0
173 1 0.362027 0.161574 0
172 1 0.345377 0.179612 0
114 1 0.377875 0.142853 0
144 1 0.384012 0.165954 0
145 1 0.399042 0.148231 0
146 1 0.405245 0.17194 0
147 1 0.420299 0.153768 0
148 1 0.443319 0.161009 0
177 1 0.426996 0.177546 0
149 1 0.458804 0.143844 0
1051 1 0.485999 0.1746 0
150 1 0.465276 0.167924 0
1021 1 0.480513 0.149651 0
1107 1 0.00857738 0.212985 0
1109 1 0.0297189 0.219859 0
1078 1 0.0140048 0.188466 0
152 1 0.060748 0.183625 0
181 1 0.045245 0.202616 0
183 1 0.067175 0.208558 0
182 1 0.0512923 0.227451 0
154 1 0.0825844 0.190023 0
185 1 0.089055 0.214874 0
186 1 0.111554 0.221299 0
156 1 0.105614 0.19751 0
158 1 0.127991 0.203818 0
160 1 0.144891 0.186551 0
189 1 0.149259 0.211152 0
161 1 0.166515 0.193302 0
163 1 0.203751 0.182297 0
191 1 0.17087 0.217535 0
162 1 0.187514 0.200047 0
192 1 0.193004 0.22506 0
193 1 0.208816 0.206467 0
164 1 0.226284 0.189761 0
195 1 0.23272 0.2134 0
166 1 0.248268 0.19641 0
168 1 0.28579 0.184732 0
196 1 0.254629 0.220084 0
197 1 0.270328 0.202616 0
198 1 0.277128 0.227126 0
199 1 0.292191 0.208543 0
170 1 0.307918 0.190313 0
200 1 0.313948 0.213793 0
201 1 0.329656 0.196662 0
202 1 0.335579 0.220805 0
203 1 0.351878 0.202267 0
174 1 0.367844 0.184698 0
204 1 0.374056 0.208764 0
233 1 0.35804 0.225788 0
175 1 0.389091 0.189397 0
205 1 0.395792 0.214025 0
176 1 0.410619 0.195875 0
207 1 0.41706 0.220649 0
179 1 0.448417 0.185204 0
178 1 0.432982 0.203487 0
209 1 0.454496 0.209299 0
208 1 0.43812 0.226796 0
180 1 0.47029 0.192031 0
1081 1 0.476228 0.216418 0
1052 1 0.491997 0.198739 0
1082 1 0.498204 0.222618 0
211 1 0.0351784 0.244502 0
1140 1 0.0197339 0.262359 0
1110 1 0.0131681 0.237936 0
212 1 0.0413957 0.268837 0
184 1 0.0733514 0.233512 0
213 1 0.0576028 0.251443 0
214 1 0.0807435 0.25659 0
215 1 0.0952767 0.238377 0
216 1 0.101833 0.264587 0
217 1 0.117276 0.246933 0
218 1 0.123013 0.270689 0
187 1 0.132953 0.2286 0
188 1 0.139798 0.253534 0
190 1 0.154619 0.234746 0
220 1 0.1622 0.260293 0
221 1 0.176406 0.241636 0
222 1 0.183546 0.267665 0
223 1 0.198958 0.249116 0
194 1 0.214756 0.231801 0
224 1 0.221656 0.25495 0
225 1 0.238088 0.237194 0
226 1 0.243627 0.261981 0
227 1 0.260556 0.244117 0
228 1 0.282123 0.250746 0
257 1 0.265584 0.26826 0
229 1 0.298442 0.232152 0
230 1 0.303633 0.256281 0
231 1 0.319489 0.238283 0
261 1 0.32566 0.262733 0
232 1 0.342288 0.244771 0
234 1 0.363828 0.250507 0
263 1 0.347789 0.268335 0
235 1 0.380135 0.232137 0
265 1 0.385174 0.257092 0
206 1 0.401304 0.239252 0
236 1 0.407285 0.263505 0
237 1 0.423153 0.245633 0
239 1 0.444318 0.251872 0
238 1 0.428887 0.270014 0
210 1 0.459802 0.233854 0
240 1 0.466301 0.258637 0
1111 1 0.481543 0.240066 0
1112 1 0.488364 0.264761 0
1139 1 0.00439742 0.280503 0
1169 1 0.00975411 0.304376 0
241 1 0.0257881 0.286702 0
271 1 0.0310409 0.311289 0
243 1 0.0636934 0.274999 0
242 1 0.0479924 0.292899 0
244 1 0.0693478 0.298594 0
273 1 0.0535044 0.317103 0
245 1 0.0848478 0.281294 0
246 1 0.0903853 0.305474 0
247 1 0.107582 0.288625 0
248 1 0.112778 0.312809 0
249 1 0.129023 0.295761 0
219 1 0.144836 0.277358 0
250 1 0.150836 0.30288 0
251 1 0.166729 0.28469 0
253 1 0.205618 0.27239 0
281 1 0.173084 0.308206 0
252 1 0.189709 0.291467 0
283 1 0.195437 0.315494 0
254 1 0.211326 0.297492 0
255 1 0.22751 0.279569 0
285 1 0.234146 0.303564 0
256 1 0.249952 0.285943 0
259 1 0.287509 0.274029 0
287 1 0.255474 0.310906 0
258 1 0.271601 0.292492 0
288 1 0.277553 0.316723 0
289 1 0.292699 0.29831 0
260 1 0.309702 0.281302 0
291 1 0.314637 0.305649 0
262 1 0.331566 0.287128 0
293 1 0.352838 0.293295 0
292 1 0.335608 0.311243 0
264 1 0.369643 0.275378 0
295 1 0.375024 0.298146 0
294 1 0.358683 0.316835 0
266 1 0.390768 0.280886 0
297 1 0.397102 0.304676 0
267 1 0.413043 0.287845 0
298 1 0.41914 0.313113 0
268 1 0.434757 0.294926 0
269 1 0.45073 0.277788 0
270 1 0.456672 0.301192 0
1141 1 0.472675 0.282913 0
300 1 0.478493 0.307288 0
1171 1 0.493973 0.289562 0
1172 1 0.4997 0.314713 0
1200 1 0.0368318 0.334876 0
1229 1 0.0210934 0.3533 0
1170 1 0.0157628 0.329791 0
301 1 0.0429803 0.359648 0
275 1 0.0755963 0.323623 0
272 1 0.0592477 0.341071 0
274 1 0.0805706 0.34839 0
276 1 0.0963631 0.331548 0
305 1 0.101786 0.355763 0
277 1 0.11895 0.337721 0
307 1 0.125128 0.363356 0
279 1 0.13502 0.319752 0
278 1 0.140677 0.344525 0
280 1 0.157179 0.326939 0
311 1 0.164183 0.351218 0
282 1 0.179974 0.332528 0
312 1 0.185675 0.356635 0
313 1 0.201748 0.340281 0
284 1 0.217517 0.322397 0
315 1 0.222413 0.347261 0
286 1 0.239225 0.328005 0
316 1 0.244486 0.351804 0
317 1 0.26122 0.335307 0
319 1 0.283173 0.341175 0
318 1 0.267811 0.358332 0
290 1 0.299147 0.323509 0
320 1 0.305041 0.347317 0
321 1 0.320902 0.330339 0
322 1 0.326859 0.353808 0
323 1 0.342672 0.334965 0
325 1 0.364243 0.341512 0
324 1 0.347916 0.361812 0
296 1 0.38085 0.323401 0
326 1 0.385919 0.348294 0
327 1 0.40288 0.329822 0
328 1 0.407763 0.355152 0
299 1 0.440728 0.320153 0
329 1 0.423908 0.337159 0
359 1 0.446235 0.344736 0
358 1 0.43093 0.361692 0
330 1 0.462579 0.325324 0
360 1 0.467815 0.350627 0
1201 1 0.483353 0.33174 0
1231 1 0.488634 0.356769 0
1259 1 0.00431959 0.37084 0
1230 1 0.026684 0.378199 0
331 1 0.0323573 0.402687 0
1260 1 0.00980188 0.395594 0
303 1 0.0641511 0.366609 0
302 1 0.0484151 0.384627 0
333 1 0.0704279 0.391363 0
332 1 0.0544346 0.409026 0
304 1 0.0859246 0.373405 0
335 1 0.0930834 0.397653 0
306 1 0.108401 0.379706 0
337 1 0.114247 0.40492 0
308 1 0.130349 0.387841 0
309 1 0.147043 0.368182 0
339 1 0.151987 0.393755 0
314 1 0.206778 0.364672 0
310 1 0.168336 0.376197 0
341 1 0.174737 0.39968 0
343 1 0.190724 0.382238 0
342 1 0.196386 0.407405 0
344 1 0.211994 0.388793 0
345 1 0.229083 0.371009 0
346 1 0.234745 0.395284 0
347 1 0.250971 0.375399 0
377 1 0.256603 0.401182 0
348 1 0.272699 0.383048 0
349 1 0.289723 0.365078 0
378 1 0.278115 0.408213 0
350 1 0.293948 0.389982 0
351 1 0.310657 0.372023 0
381 1 0.315746 0.396535 0
353 1 0.332441 0.378795 0
354 1 0.354041 0.385126 0
352 1 0.338661 0.402483 0
355 1 0.369931 0.36603 0
356 1 0.376311 0.390692 0
357 1 0.391215 0.372456 0
386 1 0.397579 0.39598 0
387 1 0.414225 0.378696 0
389 1 0.436034 0.385485 0
388 1 0.419801 0.40331 0
1232 1 0.452567 0.369104 0
1261 1 0.457753 0.392695 0
1262 1 0.473413 0.375124 0
1293 1 0.479131 0.399833 0
1263 1 0.495002 0.382218 0
361 1 0.0382705 0.426821 0
391 1 0.0223928 0.444682 0
1290 1 0.0159485 0.419855 0
450 1 0.473521 0.46661 0
362 1 0.0447835 0.450851 0
334 1 0.0765158 0.415755 0
363 1 0.0600308 0.432853 0
365 1 0.0818952 0.439729 0
336 1 0.0985542 0.421757 0
366 1 0.104163 0.445167 0
367 1 0.120695 0.428337 0
338 1 0.136786 0.411228 0
368 1 0.126415 0.453294 0
369 1 0.142635 0.434671 0
340 1 0.158949 0.417086 0
370 1 0.164451 0.441496 0
371 1 0.18018 0.424095 0
401 1 0.186342 0.44844 0
372 1 0.202151 0.430665 0
373 1 0.218278 0.413021 0
374 1 0.224615 0.436839 0
375 1 0.240476 0.418887 0
405 1 0.246486 0.443925 0
376 1 0.263309 0.425841 0
409 1 0.284627 0.432913 0
407 1 0.268521 0.449893 0
379 1 0.300004 0.415118 0
380 1 0.307016 0.438802 0
382 1 0.321863 0.420537 0
413 1 0.328507 0.445029 0
385 1 0.360893 0.407859 0
383 1 0.344123 0.426839 0
414 1 0.366292 0.432324 0
412 1 0.350387 0.45114 0
384 1 0.38323 0.414227 0
415 1 0.387708 0.438501 0
417 1 0.404493 0.420653 0
416 1 0.409214 0.446266 0
419 1 0.441783 0.40957 0
418 1 0.425285 0.428095 0
390 1 0.446533 0.434632 0
447 1 0.430428 0.453035 0
1292 1 0.484534 0.425115 0
1291 1 0.462955 0.418042 0
1321 1 0.468804 0.442263 0
1322 1 0.490343 0.449166 0
1320 1 0.00591858 0.461683 0
421 1 0.0118637 0.485409 0
392 1 0.0281253 0.468834 0
422 1 0.0347649 0.492447 0
364 1 0.0657286 0.45705 0
393 1 0.0498522 0.474292 0
394 1 0.0724126 0.48149 0
423 1 0.0566071 0.498344 0
395 1 0.0880633 0.463281 0
396 1 0.0945753 0.488264 0
397 1 0.110024 0.469919 0
427 1 0.115968 0.494255 0
399 1 0.148932 0.459272 0
398 1 0.131605 0.476781 0
429 1 0.15372 0.483892 0
400 1 0.169956 0.465113 0
431 1 0.176802 0.489604 0
402 1 0.193038 0.472064 0
432 1 0.198252 0.495664 0
403 1 0.208968 0.455124 0
433 1 0.21467 0.479102 0
404 1 0.231283 0.461354 0
435 1 0.236848 0.48545 0
406 1 0.253203 0.46701 0
436 1 0.257952 0.4916 0
408 1 0.274448 0.47421 0
439 1 0.279764 0.498587 0
410 1 0.290378 0.456985 0
441 1 0.295679 0.480695 0
411 1 0.312145 0.463231 0
440 1 0.317697 0.487699 0
442 1 0.33429 0.46938 0
471 1 0.340221 0.494547 0
473 1 0.354858 0.475861 0
443 1 0.371887 0.456426 0
444 1 0.377333 0.481331 0
445 1 0.392729 0.464515 0
475 1 0.398599 0.488583 0
446 1 0.414774 0.471261 0
448 1 0.436306 0.47903 0
477 1 0.419718 0.496493 0
449 1 0.457651 0.484568 0
420 1 0.451414 0.460168 0
1351 1 0.479196 0.491156 0
1353 1 0.495243 0.474385 0
932 1 0.498173 0.0626647 0
453 1 0.0403895 0.516919 0
452 1 0.0244265 0.534323 0
451 1 0.0180365 0.509096 0
1380 1 0.00302853 0.52753 0
454 1 0.0469919 0.541108 0
424 1 0.0623769 0.522387 0
425 1 0.078347 0.505398 0
455 1 0.0855473 0.529021 0
426 1 0.10038 0.511778 0
456 1 0.107241 0.535958 0
457 1 0.121855 0.517814 0
458 1 0.129182 0.543156 0
459 1 0.144516 0.525619 0
430 1 0.160737 0.507671 0
428 1 0.138168 0.501387 0
460 1 0.167104 0.531625 0
461 1 0.183036 0.513667 0
462 1 0.189131 0.538621 0
463 1 0.205109 0.520611 0
434 1 0.221337 0.502771 0
464 1 0.226241 0.52754 0
465 1 0.243323 0.510247 0
466 1 0.248181 0.535326 0
437 1 0.264724 0.516993 0
467 1 0.286058 0.523143 0
497 1 0.270147 0.541336 0
438 1 0.302538 0.505466 0
468 1 0.307591 0.530284 0
469 1 0.323876 0.512402 0
499 1 0.329934 0.535886 0
470 1 0.345161 0.51855 0
503 1 0.366877 0.524827 0
501 1 0.351293 0.542727 0
472 1 0.36179 0.500467 0
474 1 0.382808 0.507 0
505 1 0.388789 0.531601 0
476 1 0.404863 0.514285 0
506 1 0.410298 0.538514 0
507 1 0.426755 0.520667 0
480 1 0.44825 0.526859 0
509 1 0.431585 0.545075 0
478 1 0.442144 0.502837 0
479 1 0.46342 0.509115 0
510 1 0.470327 0.533501 0
1381 1 0.485057 0.514609 0
1411 1 0.491016 0.539584 0
481 1 0.00873754 0.551904 0
482 1 0.0360283 0.582368 0
483 1 0.0306916 0.558526 0
1410 1 0.0146021 0.576681 0
485 1 0.0696989 0.547035 0
513 1 0.0526421 0.564944 0
484 1 0.0747523 0.570112 0
486 1 0.0908902 0.553742 0
515 1 0.0968699 0.578048 0
487 1 0.112574 0.560437 0
517 1 0.118844 0.584127 0
489 1 0.15033 0.549247 0
488 1 0.134414 0.567084 0
490 1 0.156896 0.573554 0
491 1 0.172604 0.556002 0
521 1 0.178215 0.580508 0
492 1 0.194167 0.563393 0
523 1 0.199413 0.587728 0
493 1 0.211322 0.545424 0
494 1 0.216323 0.570227 0
495 1 0.232575 0.55279 0
525 1 0.238393 0.577333 0
496 1 0.254447 0.559769 0
526 1 0.25989 0.58347 0
527 1 0.275678 0.565519 0
498 1 0.291583 0.547712 0
529 1 0.297474 0.57217 0
500 1 0.313714 0.5542 0
530 1 0.318687 0.577409 0
531 1 0.335849 0.560521 0
533 1 0.357529 0.566641 0
502 1 0.373149 0.548728 0
532 1 0.340855 0.5847 0
534 1 0.379749 0.572634 0
504 1 0.395084 0.555469 0
535 1 0.401211 0.580366 0
508 1 0.416406 0.562939 0
539 1 0.437578 0.569457 0
540 1 0.454239 0.551015 0
537 1 0.422035 0.587539 0
1442 1 0.481458 0.582932 0
569 1 0.45934 0.57556 0
1441 1 0.47595 0.55825 0
1412 1 0.497981 0.564151 0
1440 1 0.00301174 0.618731 0
511 1 0.0199339 0.601191 0
541 1 0.0259229 0.625004 0
512 1 0.0417834 0.606813 0
514 1 0.057614 0.589483 0
545 1 0.0800927 0.594938 0
542 1 0.0483983 0.631327 0
543 1 0.0631043 0.613014 0
546 1 0.0853441 0.620668 0
516 1 0.101635 0.601958 0
547 1 0.107661 0.626012 0
518 1 0.124235 0.607804 0
519 1 0.141324 0.591441 0
520 1 0.16256 0.599021 0
548 1 0.145723 0.616647 0
577 1 0.129183 0.633962 0
549 1 0.168253 0.622369 0
522 1 0.184318 0.605853 0
551 1 0.189883 0.630179 0
553 1 0.206251 0.61153 0
524 1 0.222238 0.594813 0
554 1 0.227448 0.619087 0
555 1 0.244293 0.601942 0
556 1 0.249348 0.626083 0
528 1 0.281611 0.590519 0
557 1 0.266172 0.608204 0
558 1 0.287967 0.614875 0
587 1 0.27145 0.63249 0
559 1 0.303617 0.596583 0
561 1 0.325129 0.602874 0
560 1 0.309006 0.620835 0
591 1 0.33098 0.625791 0
563 1 0.362902 0.590801 0
562 1 0.34783 0.60891 0
565 1 0.368944 0.615245 0
564 1 0.352814 0.633765 0
536 1 0.385 0.597104 0
566 1 0.39043 0.621547 0
567 1 0.405739 0.604346 0
597 1 0.411028 0.629867 0
568 1 0.427167 0.612353 0
538 1 0.443852 0.594539 0
600 1 0.449975 0.617819 0
570 1 0.465782 0.600415 0
1501 1 0.4724 0.623805 0
1471 1 0.487256 0.606247 0
1472 1 0.494069 0.630966 0
1470 1 0.0110223 0.643911 0
572 1 0.0389969 0.67174 0
571 1 0.0324751 0.648942 0
1500 1 0.00470705 0.667304 0
544 1 0.0697306 0.637774 0
573 1 0.0545812 0.655538 0
574 1 0.0756531 0.663373 0
575 1 0.0913052 0.644382 0
605 1 0.0970582 0.670616 0
576 1 0.112729 0.652136 0
607 1 0.119006 0.676045 0
578 1 0.134679 0.6574 0
579 1 0.151747 0.640409 0
609 1 0.156414 0.66404 0
550 1 0.173669 0.647449 0
580 1 0.178829 0.671564 0
581 1 0.196128 0.654586 0
611 1 0.201686 0.677578 0
552 1 0.211272 0.63615 0
582 1 0.218258 0.65939 0
583 1 0.234131 0.643278 0
584 1 0.240452 0.667988 0
585 1 0.256022 0.650154 0
586 1 0.278276 0.65623 0
615 1 0.262768 0.675079 0
617 1 0.283497 0.681033 0
589 1 0.293765 0.638152 0
588 1 0.29949 0.66282 0
590 1 0.314613 0.64382 0
621 1 0.321118 0.668919 0
593 1 0.336605 0.650677 0
594 1 0.35879 0.657204 0
592 1 0.342796 0.676203 0
595 1 0.374392 0.640221 0
625 1 0.380669 0.6645 0
596 1 0.39573 0.647166 0
627 1 0.40307 0.672108 0
599 1 0.434455 0.635453 0
598 1 0.4183 0.65376 0
628 1 0.440505 0.660358 0
629 1 0.456386 0.642103 0
657 1 0.424877 0.678155 0
630 1 0.46269 0.666538 0
1502 1 0.478227 0.648817 0
1533 1 0.483412 0.672905 0
1503 1 0.500268 0.65519 0
601 1 0.0212862 0.684266 0
631 1 0.0159584 0.708207 0
632 1 0.0314417 0.723952 0
602 1 0.0389366 0.699643 0
603 1 0.0583502 0.682223 0
604 1 0.0793452 0.687956 0
633 1 0.0619322 0.707503 0
635 1 0.085666 0.712255 0
606 1 0.102009 0.694296 0
636 1 0.108998 0.71791 0
637 1 0.124688 0.700314 0
608 1 0.140235 0.681932 0
638 1 0.14745 0.706883 0
639 1 0.162755 0.688368 0
667 1 0.131252 0.724566 0
641 1 0.169687 0.713094 0
610 1 0.184971 0.694278 0
642 1 0.191294 0.719632 0
612 1 0.206993 0.701555 0
613 1 0.223298 0.683937 0
643 1 0.228488 0.708009 0
614 1 0.2451 0.691961 0
644 1 0.213154 0.726454 0
645 1 0.250391 0.716114 0
616 1 0.268282 0.698884 0
647 1 0.273228 0.722814 0
618 1 0.289738 0.705386 0
619 1 0.305988 0.686845 0
620 1 0.311863 0.711222 0
622 1 0.326672 0.692981 0
651 1 0.332648 0.719361 0
653 1 0.348038 0.700928 0
624 1 0.369763 0.707302 0
623 1 0.364788 0.682983 0
654 1 0.354266 0.725718 0
655 1 0.391695 0.713004 0
626 1 0.386614 0.688387 0
656 1 0.408469 0.695678 0
686 1 0.413703 0.7205 0
658 1 0.430292 0.703394 0
659 1 0.446308 0.685034 0
660 1 0.452222 0.709727 0
1531 1 0.467668 0.691038 0
1561 1 0.473475 0.715546 0
1532 1 0.489256 0.696689 0
1563 1 0.495198 0.721543 0
663 1 0.0260424 0.749059 0
661 1 0.010329 0.73274 0
1590 1 0.00475511 0.756617 0
662 1 0.0422337 0.765206 0
634 1 0.0704012 0.730853 0
664 1 0.0481103 0.738608 0
695 1 0.0644685 0.756782 0
665 1 0.0930438 0.735411 0
666 1 0.114718 0.741096 0
697 1 0.0977397 0.760934 0
668 1 0.120354 0.764801 0
640 1 0.154017 0.730737 0
669 1 0.137442 0.748331 0
670 1 0.159181 0.754674 0
699 1 0.142102 0.772582 0
671 1 0.175561 0.737564 0
672 1 0.181265 0.761341 0
673 1 0.196533 0.744051 0
703 1 0.203378 0.76873 0
674 1 0.219203 0.751048 0
675 1 0.234744 0.733287 0
705 1 0.240933 0.758411 0
646 1 0.257506 0.740858 0
677 1 0.262202 0.76484 0
648 1 0.278834 0.747281 0
649 1 0.294506 0.730502 0
679 1 0.30076 0.754546 0
650 1 0.315575 0.735286 0
681 1 0.323308 0.761176 0
652 1 0.338263 0.743081 0
682 1 0.344715 0.767185 0
683 1 0.360013 0.749835 0
685 1 0.376945 0.73186 0
684 1 0.381825 0.756052 0
715 1 0.398546 0.738794 0
714 1 0.403654 0.763635 0
687 1 0.435027 0.728107 0
717 1 0.420012 0.746131 0
688 1 0.441647 0.751835 0
716 1 0.425585 0.769866 0
689 1 0.45747 0.733787 0
719 1 0.462999 0.757704 0
690 1 0.480032 0.73941 0
1591 1 0.4852 0.763025 0
691 1 0.0207927 0.772983 0
693 1 0.0369736 0.790045 0
721 1 0.0152496 0.798226 0
692 1 0.0307647 0.815885 0
723 1 0.0519595 0.808453 0
694 1 0.0575249 0.781916 0
696 1 0.0791254 0.776652 0
725 1 0.0727191 0.799846 0
727 1 0.0958616 0.792418 0
728 1 0.109654 0.810986 0
698 1 0.117855 0.788731 0
726 1 0.0891786 0.817751 0
700 1 0.13198 0.805589 0
731 1 0.150516 0.794773 0
701 1 0.16588 0.777841 0
702 1 0.18719 0.786277 0
732 1 0.171178 0.804122 0
763 1 0.191881 0.811126 0
733 1 0.208858 0.79328 0
704 1 0.224126 0.775667 0
706 1 0.230267 0.800438 0
676 1 0.246156 0.782938 0
678 1 0.283832 0.771693 0
737 1 0.252398 0.807815 0
707 1 0.267524 0.79005 0
738 1 0.274385 0.81444 0
708 1 0.29039 0.796037 0
709 1 0.306508 0.778374 0
710 1 0.312687 0.802511 0
680 1 0.328724 0.785419 0
741 1 0.333688 0.810964 0
713 1 0.365811 0.773714 0
711 1 0.349747 0.792707 0
712 1 0.371996 0.799888 0
742 1 0.356036 0.818371 0
743 1 0.387301 0.781703 0
745 1 0.393512 0.8061 0
746 1 0.409518 0.787658 0
775 1 0.415372 0.812685 0
718 1 0.447402 0.776876 0
747 1 0.431408 0.793961 0
749 1 0.452943 0.801155 0
720 1 0.469076 0.782024 0
1621 1 0.474528 0.806989 0
1592 1 0.491133 0.788949 0
1622 1 0.497575 0.813549 0
1680 1 0.0246963 0.840385 0
1650 1 0.00918238 0.823112 0
1709 1 0.00351934 0.848259 0
752 1 0.0406701 0.857885 0
751 1 0.0456201 0.833408 0
753 1 0.0619917 0.85089 0
722 1 0.0674073 0.825653 0
724 1 0.0842572 0.843267 0
757 1 0.10478 0.835227 0
756 1 0.12206 0.852193 0
755 1 0.100821 0.860351 0
729 1 0.125892 0.828335 0
759 1 0.143166 0.843921 0
730 1 0.153124 0.820072 0
760 1 0.158616 0.861315 0
761 1 0.174762 0.828767 0
762 1 0.198126 0.836363 0
792 1 0.180858 0.85299 0
764 1 0.202778 0.860402 0
735 1 0.213763 0.818027 0
736 1 0.235248 0.825401 0
734 1 0.219521 0.842412 0
765 1 0.24208 0.849444 0
767 1 0.258361 0.83314 0
766 1 0.263051 0.857611 0
768 1 0.280262 0.840337 0
739 1 0.295201 0.821436 0
769 1 0.301282 0.845786 0
740 1 0.317362 0.829158 0
770 1 0.32274 0.854338 0
771 1 0.339279 0.836016 0
773 1 0.36131 0.842051 0
801 1 0.345161 0.86084 0
744 1 0.37751 0.824284 0
803 1 0.38298 0.848897 0
774 1 0.399485 0.831118 0
776 1 0.40562 0.855225 0
748 1 0.436491 0.818396 0
777 1 0.421507 0.837261 0
779 1 0.443861 0.842826 0
778 1 0.428277 0.861556 0
750 1 0.459099 0.824794 0
1651 1 0.481068 0.832028 0
780 1 0.465736 0.850934 0
1652 1 0.486905 0.857109 0
781 1 0.0199278 0.864557 0
782 1 0.0361555 0.881357 0
811 1 0.0150414 0.889756 0
812 1 0.0308333 0.906345 0
813 1 0.0520402 0.899201 0
783 1 0.0575248 0.874797 0
784 1 0.0739539 0.892864 0
754 1 0.0791528 0.867959 0
785 1 0.0948033 0.885163 0
787 1 0.116379 0.876807 0
786 1 0.111243 0.901199 0
815 1 0.0907006 0.908771 0
788 1 0.132342 0.893696 0
758 1 0.137266 0.869277 0
789 1 0.154136 0.885086 0
790 1 0.170519 0.902477 0
791 1 0.175236 0.87704 0
823 1 0.191234 0.893431 0
793 1 0.211062 0.884782 0
795 1 0.225226 0.866726 0
794 1 0.230773 0.900343 0
796 1 0.246191 0.874391 0
797 1 0.285622 0.864631 0
825 1 0.25366 0.897093 0
827 1 0.269266 0.880595 0
826 1 0.273759 0.910695 0
798 1 0.291919 0.890223 0
799 1 0.30718 0.871783 0
829 1 0.313438 0.895865 0
800 1 0.329465 0.877846 0
802 1 0.351577 0.884675 0
772 1 0.36756 0.866499 0
831 1 0.335311 0.902371 0
804 1 0.37357 0.890761 0
833 1 0.356757 0.908208 0
805 1 0.389054 0.872213 0
806 1 0.395907 0.897662 0
807 1 0.41201 0.880104 0
809 1 0.449253 0.868096 0
808 1 0.4336 0.885743 0
837 1 0.417894 0.904525 0
810 1 0.454886 0.892997 0
1681 1 0.470612 0.874971 0
1711 1 0.477003 0.898493 0
1682 1 0.493211 0.882092 0
1713 1 0.499847 0.905791 0
841 1 0.0261587 0.931846 0
1740 1 0.00934948 0.913783 0
1769 1 0.00356086 0.937473 0
842 1 0.0422235 0.94846 0
843 1 0.0472743 0.923497 0
844 1 0.0642095 0.940867 0
814 1 0.0685149 0.916636 0
845 1 0.0850157 0.933201 0
816 1 0.106135 0.925691 0
847 1 0.123181 0.943068 0
846 1 0.101947 0.950448 0
819 1 0.148653 0.910564 0
817 1 0.127132 0.917896 0
818 1 0.143737 0.934448 0
849 1 0.159601 0.95178 0
820 1 0.165155 0.927093 0
851 1 0.181333 0.943742 0
821 1 0.186447 0.91844 0
822 1 0.202444 0.934554 0
824 1 0.207778 0.909798 0
853 1 0.223828 0.926491 0
855 1 0.24545 0.919186 0
854 1 0.24047 0.943483 0
883 1 0.21924 0.95071 0
856 1 0.262184 0.934519 0
857 1 0.284047 0.934225 0
828 1 0.297162 0.914322 0
859 1 0.305056 0.939439 0
830 1 0.319331 0.920114 0
860 1 0.327161 0.945172 0
832 1 0.342478 0.92656 0
863 1 0.36354 0.933097 0
861 1 0.348196 0.951153 0
834 1 0.378732 0.915036 0
865 1 0.385889 0.941382 0
835 1 0.400434 0.922385 0
836 1 0.407843 0.947157 0
839 1 0.43892 0.911141 0
838 1 0.422872 0.92865 0
869 1 0.445738 0.935474 0
867 1 0.429641 0.953187 0
1712 1 0.483291 0.922333 0
1741 1 0.467404 0.940945 0
840 1 0.461004 0.917069 0
1742 1 0.489285 0.94671 0
1770 1 0.0197876 0.95609 0
871 1 0.0367322 0.972764 0
1800 1 0.0152784 0.980049 0
1 1 0.0316874 0.997097 0
872 1 0.0534856 0.989805 0
873 1 0.0580658 0.965377 0
874 1 0.0744593 0.982295 0
875 1 0.0797484 0.957494 0
876 1 0.095596 0.974836 0
877 1 0.117649 0.967841 0
7 1 0.111986 0.992474 0
878 1 0.133333 0.98488 0
848 1 0.138843 0.959685 0
879 1 0.155035 0.977066 0
881 1 0.171305 0.994 0
850 1 0.176838 0.967769 0
11 1 0.193128 0.984003 0
852 1 0.198276 0.95968 0
882 1 0.214765 0.976344 0
884 1 0.235473 0.966514 0
13 1 0.230388 0.993801 0
886 1 0.250537 0.983874 0
885 1 0.258488 0.959715 0
17 1 0.275315 0.978835 0
887 1 0.288644 0.958104 0
888 1 0.297184 0.982844 0
858 1 0.31122 0.964612 0
889 1 0.319236 0.990481 0
890 1 0.340492 0.996147 0
891 1 0.332924 0.970294 0
862 1 0.354302 0.976588 0
864 1 0.370258 0.95875 0
893 1 0.376407 0.983902 0
895 1 0.39239 0.965214 0
896 1 0.398761 0.989861 0
866 1 0.414428 0.969867 0
870 1 0.452083 0.95948 0
897 1 0.420372 0.994633 0
868 1 0.436712 0.976553 0
899 1 0.457582 0.983333 0
1773 1 0.495501 0.972359 0
1772 1 0.47911 0.989898 0
1771 1 0.473796 0.965587 0
902 1 0.506598 0.0204665 0
904 1 0.528029 0.0264801 0
905 1 0.523053 0.00193938 0
933 1 0.51351 0.0445085 0
906 1 0.544419 0.00898693 0
935 1 0.550773 0.0327372 0
908 1 0.566333 0.0154188 0
937 1 0.5726 0.0394647 0
939 1 0.588486 0.0215443 0
940 1 0.610797 0.0270457 0
941 1 0.605169 0.00431927 0
942 1 0.746021 0.0273062 0
944 1 0.761556 0.0449263 0
943 1 0.767602 0.0199677 0
914 1 0.788786 0.0107533 0
945 1 0.784201 0.036719 0
912 1 0.750716 0.00287997 0
947 1 0.805216 0.0285101 0
918 1 0.826865 0.0210062 0
916 1 0.81012 0.00363612 0
948 1 0.821946 0.0451275 0
949 1 0.842749 0.0390549 0
919 1 0.848951 0.0138565 0
920 1 0.864481 0.0310346 0
1790 1 0.870064 0.00561682 0
951 1 0.885819 0.0236748 0
922 1 0.908112 0.0177362 0
952 1 0.903323 0.041799 0
953 1 0.924658 0.0347186 0
924 1 0.929357 0.0103027 0
955 1 0.947127 0.0279563 0
925 1 0.950816 0.00278907 0
926 1 0.96843 0.019988 0
957 1 0.984366 0.0370668 0
928 1 0.98926 0.0125789 0
956 1 0.963801 0.0452024 0
963 1 0.519617 0.0686408 0
934 1 0.534786 0.0500313 0
962 1 0.504823 0.0876224 0
1349 1 0.990018 0.47926 0
965 1 0.542395 0.0752749 0
936 1 0.557014 0.0570289 0
966 1 0.563398 0.081128 0
967 1 0.578849 0.0638204 0
938 1 0.594586 0.0452819 0
969 1 0.602721 0.0702948 0
971 1 0.739573 0.0520835 0
970 1 0.735596 0.0764999 0
973 1 0.757489 0.068746 0
975 1 0.779315 0.0612642 0
1003 1 0.773854 0.0857039 0
972 1 0.753053 0.0933623 0
974 1 0.795894 0.0780652 0
946 1 0.800648 0.0527638 0
976 1 0.816884 0.0697741 0
1007 1 0.833613 0.0870593 0
977 1 0.837642 0.0623441 0
979 1 0.859472 0.055283 0
978 1 0.855166 0.0798393 0
980 1 0.876714 0.0730253 0
950 1 0.881597 0.0485645 0
981 1 0.898328 0.0657105 0
982 1 0.914535 0.0837008 0
1011 1 0.893046 0.0897797 0
983 1 0.920435 0.0587264 0
984 1 0.9357 0.0764997 0
954 1 0.94229 0.0520045 0
985 1 0.957515 0.0699821 0
987 1 0.980217 0.0615128 0
988 1 0.995765 0.0791924 0
986 1 0.974604 0.087074 0
964 1 0.526874 0.0942701 0
993 1 0.511377 0.113546 0
994 1 0.533628 0.118625 0
995 1 0.548977 0.10099 0
996 1 0.555307 0.124651 0
997 1 0.570869 0.107071 0
1027 1 0.576477 0.132567 0
968 1 0.585608 0.0875548 0
998 1 0.591941 0.113735 0
1000 1 0.614137 0.122463 0
1030 1 0.636533 0.129557 0
999 1 0.653444 0.111986 0
1001 1 0.674827 0.120958 0
1002 1 0.696082 0.126127 0
1033 1 0.769987 0.109618 0
1004 1 0.79108 0.102021 0
1065 1 0.786967 0.126867 0
1005 1 0.812044 0.094271 0
1035 1 0.808173 0.119018 0
1006 1 0.828875 0.110489 0
1037 1 0.843957 0.128159 0
1008 1 0.850779 0.103856 0
1039 1 0.865613 0.121995 0
1009 1 0.87167 0.0980423 0
1010 1 0.887531 0.115453 0
1012 1 0.909066 0.108076 0
1041 1 0.904448 0.133273 0
1015 1 0.952857 0.0934516 0
1043 1 0.925827 0.125268 0
1013 1 0.93157 0.100813 0
1014 1 0.947816 0.118805 0
1017 1 0.969347 0.111005 0
1018 1 0.991394 0.10356 0
1047 1 0.985998 0.128686 0
1016 1 0.964323 0.135644 0
1023 1 0.516679 0.139256 0
1022 1 0.501634 0.156476 0
1024 1 0.524164 0.162213 0
1053 1 0.507249 0.180124 0
1025 1 0.539924 0.143292 0
1055 1 0.545734 0.168026 0
1026 1 0.561003 0.149912 0
1057 1 0.567364 0.174923 0
1028 1 0.582293 0.156867 0
1029 1 0.598462 0.140027 0
1058 1 0.603969 0.165078 0
1059 1 0.620219 0.148251 0
1032 1 0.657722 0.137606 0
1060 1 0.625964 0.172234 0
1061 1 0.641994 0.154606 0
1091 1 0.647528 0.179738 0
1062 1 0.662552 0.16195 0
1031 1 0.679943 0.144766 0
1064 1 0.685904 0.169054 0
1063 1 0.701788 0.15098 0
1095 1 0.707831 0.17612 0
1034 1 0.722647 0.158284 0
1066 1 0.730304 0.181845 0
1036 1 0.822853 0.137666 0
1067 1 0.838636 0.154031 0
1038 1 0.860462 0.147169 0
1068 1 0.855382 0.171452 0
1069 1 0.876819 0.165541 0