ITEM: TIMESTEP
486000
ITEM: NUMBER OF ATOMS
1800
ITEM: BOX BOUNDS pp pp pp
-1.8389270843602393e+01 1.8338927084360432e+02
1.1826529217466231e+00 1.6381734707825530e+02
0.0000000000000000e+00 5.5000000000000000e+00
ITEM: ATOMS id type xs ys zs
928 1 0.0217316 0.0138575 0
957 1 0.0161756 0.0388518 0
926 1 0.00169858 0.0202656 0
959 1 0.0358312 0.0315943 0
929 1 0.0409777 0.00725388 0
930 1 0.0558383 0.0239005 0
31 1 0.0694385 0.0414029 0
2 1 0.0748369 0.016262 0
33 1 0.0885031 0.0343513 0
3 1 0.0936529 0.00900302 0
4 1 0.107326 0.0268901 0
6 1 0.126948 0.0192551 0
37 1 0.141373 0.035725 0
35 1 0.122056 0.0429451 0
5 1 0.113045 0.00222952 0
8 1 0.145501 0.0114162 0
39 1 0.160564 0.0286935 0
880 1 0.165206 0.00426779 0
9 1 0.179188 0.0220433 0
40 1 0.193458 0.038834 0
10 1 0.198552 0.0145322 0
41 1 0.212636 0.0325779 0
12 1 0.217473 0.0080113 0
14 1 0.231731 0.0254392 0
45 1 0.247532 0.0411267 0
13 1 0.236555 0.000702278 0
15 1 0.250568 0.0174348 0
46 1 0.269644 0.0171273 0
77 1 0.27296 0.0412046 0
47 1 0.287779 0.0241179 0
19 1 0.301185 0.0046735 0
49 1 0.30682 0.0291522 0
20 1 0.320276 0.0109657 0
51 1 0.326634 0.0365841 0
21 1 0.34012 0.0187362 0
22 1 0.345998 0.0430232 0
1352 1 0.47872 0.496994 0
23 1 0.359555 0.0251727 0
894 1 0.372986 0.00643132 0
24 1 0.378856 0.0299531 0
25 1 0.394262 0.0128624 0
26 1 0.39899 0.0374127 0
27 1 0.413977 0.0201531 0
898 1 0.427425 0.00288327 0
28 1 0.419935 0.0432121 0
29 1 0.434315 0.0255039 0
900 1 0.447576 0.00803936 0
30 1 0.45477 0.0328553 0
902 1 0.487928 0.0201254 0
901 1 0.467938 0.0141264 0
931 1 0.474556 0.0381977 0
933 1 0.493398 0.0459801 0
988 1 0.0266132 0.0800073 0
958 1 0.0316965 0.0561312 0
987 1 0.0120199 0.0630021 0
986 1 0.00707591 0.087249 0
960 1 0.0511324 0.0489297 0
989 1 0.0459089 0.073322 0
61 1 0.0650052 0.0668587 0
990 1 0.0604381 0.0906522 0
62 1 0.0801854 0.0832964 0
32 1 0.0837827 0.0591169 0
63 1 0.0992033 0.0764531 0
34 1 0.103018 0.0519735 0
65 1 0.117984 0.0679373 0
66 1 0.132183 0.0853096 0
36 1 0.136691 0.0597206 0
69 1 0.174541 0.0462102 0
67 1 0.150589 0.0781788 0
38 1 0.155654 0.0532288 0
68 1 0.170164 0.0715966 0
71 1 0.18979 0.0630816 0
72 1 0.20393 0.0810746 0
42 1 0.208277 0.0565025 0
70 1 0.184381 0.0879226 0
43 1 0.227428 0.048974 0
73 1 0.222688 0.0727517 0
44 1 0.242128 0.065539 0
74 1 0.263853 0.0854982 0
75 1 0.260744 0.0596275 0
76 1 0.279755 0.0678476 0
48 1 0.292603 0.0488705 0
79 1 0.299304 0.0736642 0
50 1 0.313029 0.0550488 0
81 1 0.318457 0.0791095 0
52 1 0.331677 0.0608057 0
82 1 0.337546 0.0849114 0
83 1 0.352033 0.0680028 0
53 1 0.365715 0.0500602 0
54 1 0.372133 0.0727625 0
55 1 0.384893 0.0542736 0
56 1 0.391325 0.0787547 0
57 1 0.40567 0.0610428 0
87 1 0.410486 0.0854854 0
58 1 0.425466 0.0679232 0
59 1 0.439626 0.0497593 0
89 1 0.445296 0.0740036 0
60 1 0.45975 0.0565126 0
961 1 0.464305 0.0808813 0
963 1 0.499007 0.0703626 0
932 1 0.478749 0.0643592 0
962 1 0.484387 0.0882796 0
1047 1 0.0166973 0.130551 0
1018 1 0.0223703 0.105759 0
1049 1 0.0367722 0.123089 0
1017 1 0.00246107 0.111543 0
1019 1 0.0405104 0.0985393 0
1020 1 0.0555387 0.114977 0
121 1 0.0702443 0.132338 0
91 1 0.0750686 0.108695 0
92 1 0.0898535 0.125451 0
93 1 0.094759 0.100172 0
94 1 0.108312 0.118633 0
64 1 0.113258 0.0934339 0
95 1 0.127818 0.110583 0
96 1 0.142258 0.127581 0
125 1 0.12297 0.135164 0
97 1 0.146447 0.102438 0
98 1 0.161324 0.119181 0
99 1 0.166283 0.0953489 0
129 1 0.175899 0.136329 0
100 1 0.181137 0.11308 0
130 1 0.196079 0.12988 0
101 1 0.199437 0.104793 0
102 1 0.215352 0.119661 0
105 1 0.237631 0.0890571 0
103 1 0.219232 0.0966628 0
104 1 0.235646 0.12052 0
78 1 0.284542 0.0913989 0
106 1 0.251289 0.10559 0
137 1 0.255678 0.129107 0
107 1 0.271115 0.109782 0
108 1 0.275232 0.134627 0
109 1 0.290336 0.115552 0
80 1 0.303876 0.0977032 0
110 1 0.309775 0.120462 0
111 1 0.323716 0.103599 0
141 1 0.32896 0.128399 0
113 1 0.343273 0.110093 0
143 1 0.348847 0.134502 0
84 1 0.357064 0.0917293 0
112 1 0.363026 0.114992 0
85 1 0.377027 0.0971109 0
115 1 0.382029 0.121927 0
86 1 0.396591 0.102693 0
116 1 0.401284 0.127232 0
117 1 0.415642 0.110037 0
118 1 0.421071 0.13354 0
88 1 0.430274 0.0916501 0
119 1 0.435205 0.116276 0
90 1 0.450025 0.0973111 0
120 1 0.455008 0.12135 0
991 1 0.469026 0.105154 0
992 1 0.473291 0.130163 0
993 1 0.488624 0.112819 0
1075 1 0.00731339 0.17787 0
1048 1 0.0320533 0.146829 0
1077 1 0.0264335 0.171598 0
1046 1 0.0112752 0.153899 0
1079 1 0.0462615 0.164616 0
1050 1 0.0518134 0.140539 0
151 1 0.0659453 0.157272 0
152 1 0.0802225 0.17642 0
122 1 0.085012 0.150723 0
153 1 0.0991002 0.16788 0
123 1 0.104099 0.143014 0
124 1 0.118647 0.162904 0
126 1 0.136983 0.152067 0
155 1 0.13741 0.178326 0
157 1 0.153859 0.166318 0
127 1 0.157313 0.143285 0
128 1 0.173869 0.169971 0
159 1 0.189155 0.153979 0
132 1 0.193632 0.177676 0
131 1 0.208332 0.16024 0
133 1 0.222436 0.141265 0
134 1 0.227399 0.165879 0
135 1 0.241628 0.147534 0
165 1 0.246926 0.171254 0
136 1 0.261301 0.154113 0
167 1 0.266982 0.177143 0
138 1 0.282123 0.158399 0
139 1 0.296278 0.139437 0
169 1 0.300795 0.164215 0
140 1 0.315435 0.146603 0
171 1 0.320025 0.171925 0
142 1 0.334279 0.153255 0
172 1 0.339557 0.176792 0
173 1 0.354485 0.158618 0
114 1 0.368912 0.140805 0
144 1 0.374248 0.164429 0
145 1 0.388252 0.146623 0
146 1 0.393136 0.171346 0
147 1 0.407362 0.152979 0
177 1 0.412329 0.177364 0
148 1 0.426501 0.160076 0
149 1 0.440437 0.141193 0
150 1 0.445515 0.167472 0
1021 1 0.459904 0.148558 0
1051 1 0.464392 0.173808 0
1023 1 0.4935 0.137757 0
1022 1 0.478994 0.155298 0
1024 1 0.498296 0.161714 0
1053 1 0.484041 0.179766 0
1076 1 0.022071 0.196395 0
1106 1 0.0171706 0.22083 0
1105 1 0.00292175 0.202599 0
1080 1 0.0604144 0.181406 0
1107 1 0.0370358 0.213696 0
1078 1 0.0414744 0.189518 0
1109 1 0.0580268 0.218367 0
181 1 0.072986 0.20023 0
182 1 0.0784019 0.224592 0
183 1 0.0931005 0.205937 0
154 1 0.108702 0.189257 0
185 1 0.111439 0.215638 0
156 1 0.12685 0.199139 0
186 1 0.130436 0.22376 0
158 1 0.145098 0.205623 0
160 1 0.159684 0.188738 0
189 1 0.165317 0.212395 0
163 1 0.213675 0.184384 0
161 1 0.179447 0.194685 0
191 1 0.184843 0.219161 0
162 1 0.198835 0.201367 0
192 1 0.204464 0.225882 0
193 1 0.218354 0.208142 0
164 1 0.23271 0.190186 0
195 1 0.237554 0.213868 0
166 1 0.251973 0.195743 0
196 1 0.256893 0.219688 0
197 1 0.272568 0.201175 0
198 1 0.277249 0.225393 0
168 1 0.286815 0.183185 0
199 1 0.291879 0.207318 0
170 1 0.306154 0.188573 0
200 1 0.311538 0.213585 0
201 1 0.325696 0.195882 0
202 1 0.330973 0.219941 0
203 1 0.345832 0.201088 0
233 1 0.350668 0.225756 0
174 1 0.35941 0.182686 0
204 1 0.365238 0.207141 0
175 1 0.378267 0.188089 0
205 1 0.383882 0.213655 0
176 1 0.397753 0.195639 0
207 1 0.403309 0.220088 0
178 1 0.417178 0.202953 0
208 1 0.422981 0.226894 0
179 1 0.430939 0.184719 0
209 1 0.436149 0.208697 0
180 1 0.450431 0.191837 0
1081 1 0.455783 0.21534 0
1052 1 0.469967 0.197387 0
1082 1 0.475564 0.222397 0
1083 1 0.489694 0.204632 0
1108 1 0.0303737 0.252771 0
1136 1 0.0112429 0.245385 0
1137 1 0.0155005 0.269726 0
1110 1 0.0444781 0.236513 0
1140 1 0.0498434 0.260885 0
211 1 0.0639474 0.242282 0
212 1 0.0696058 0.268617 0
213 1 0.0832038 0.249522 0
184 1 0.0969361 0.23156 0
214 1 0.102395 0.25759 0
215 1 0.115553 0.240601 0
216 1 0.121699 0.264562 0
217 1 0.136422 0.247377 0
218 1 0.140742 0.27147 0
187 1 0.150187 0.229416 0
188 1 0.155474 0.254171 0
190 1 0.169679 0.23716 0
220 1 0.175669 0.260513 0
221 1 0.19004 0.243426 0
222 1 0.19471 0.267676 0
223 1 0.209581 0.250244 0
194 1 0.224132 0.232465 0
224 1 0.228566 0.256432 0
225 1 0.243382 0.237902 0
226 1 0.24793 0.262412 0
227 1 0.262338 0.244289 0
257 1 0.267121 0.268393 0
228 1 0.281407 0.250192 0
229 1 0.296462 0.23141 0
230 1 0.301476 0.255642 0
231 1 0.315874 0.237387 0
261 1 0.320625 0.262313 0
232 1 0.334933 0.244815 0
263 1 0.339984 0.268771 0
234 1 0.354758 0.249427 0
235 1 0.369546 0.231764 0
265 1 0.374272 0.255824 0
206 1 0.389661 0.237559 0
236 1 0.394411 0.262495 0
237 1 0.408419 0.244796 0
238 1 0.413363 0.269377 0
239 1 0.428303 0.251194 0
210 1 0.442059 0.233309 0
240 1 0.447212 0.258177 0
1111 1 0.460506 0.239501 0
1112 1 0.465995 0.264073 0
1113 1 0.480512 0.246443 0
1084 1 0.495018 0.228815 0
1142 1 0.485414 0.270874 0
1143 1 0.499308 0.253355 0
1138 1 0.021944 0.29628 0
1197 1 0.00652758 0.314756 0
1167 1 0.0036874 0.289941 0
1139 1 0.035406 0.277714 0
1169 1 0.0405424 0.30397 0
241 1 0.0552737 0.285588 0
271 1 0.059052 0.310563 0
242 1 0.0738445 0.292964 0
243 1 0.0879798 0.274892 0
244 1 0.09276 0.298801 0
273 1 0.0782665 0.31738 0
245 1 0.107515 0.281127 0
246 1 0.11188 0.306181 0
247 1 0.126353 0.288534 0
248 1 0.131695 0.313215 0
249 1 0.145846 0.295134 0
219 1 0.160739 0.278361 0
250 1 0.165288 0.302764 0
251 1 0.180069 0.284226 0
281 1 0.184513 0.30826 0
252 1 0.199661 0.291241 0
283 1 0.204954 0.314922 0
253 1 0.214232 0.274498 0
254 1 0.219182 0.298444 0
255 1 0.234193 0.280183 0
285 1 0.239837 0.305267 0
256 1 0.253353 0.286302 0
287 1 0.258878 0.311766 0
258 1 0.273276 0.29341 0
288 1 0.278434 0.316739 0
259 1 0.286279 0.274693 0
289 1 0.292399 0.297788 0
260 1 0.306376 0.279447 0
291 1 0.311389 0.303924 0
262 1 0.326254 0.287061 0
292 1 0.331228 0.31128 0
293 1 0.345132 0.292538 0
264 1 0.35858 0.273831 0
295 1 0.364629 0.298717 0
266 1 0.379388 0.281254 0
297 1 0.384412 0.305288 0
267 1 0.398914 0.286905 0
298 1 0.403883 0.311671 0
268 1 0.418023 0.294361 0
269 1 0.432936 0.275539 0
270 1 0.43779 0.300109 0
1141 1 0.452125 0.28277 0
300 1 0.45764 0.307774 0
1171 1 0.471448 0.289 0
1172 1 0.476353 0.314761 0
1173 1 0.490561 0.296729 0
1168 1 0.0260832 0.321371 0
1199 1 0.0306102 0.345393 0
1198 1 0.011535 0.338577 0
1228 1 0.0167551 0.363793 0
1170 1 0.0446687 0.328207 0
1229 1 0.0501636 0.352658 0
1200 1 0.0638043 0.334635 0
301 1 0.0696646 0.358845 0
272 1 0.0835603 0.340964 0
275 1 0.0979922 0.323255 0
274 1 0.102795 0.34772 0
276 1 0.117136 0.329344 0
305 1 0.122339 0.35509 0
277 1 0.136571 0.337336 0
307 1 0.141829 0.361592 0
279 1 0.151105 0.320204 0
278 1 0.156044 0.344337 0
280 1 0.170446 0.326261 0
311 1 0.176427 0.350554 0
282 1 0.189467 0.332294 0
312 1 0.19544 0.356443 0
313 1 0.209874 0.338668 0
284 1 0.224701 0.32276 0
315 1 0.230231 0.345823 0
286 1 0.244569 0.328944 0
316 1 0.249383 0.352571 0
317 1 0.26346 0.335295 0
318 1 0.268639 0.358903 0
319 1 0.283089 0.340645 0
290 1 0.297746 0.322776 0
320 1 0.303022 0.347504 0
321 1 0.317858 0.328104 0
322 1 0.322794 0.353311 0
294 1 0.350611 0.317075 0
323 1 0.336823 0.335813 0
324 1 0.343134 0.359621 0
325 1 0.356409 0.341952 0
296 1 0.369809 0.322698 0
326 1 0.375709 0.347129 0
327 1 0.389834 0.32945 0
299 1 0.42375 0.317662 0
328 1 0.395044 0.354311 0
329 1 0.409693 0.336264 0
358 1 0.414771 0.360927 0
359 1 0.42904 0.342898 0
330 1 0.443049 0.325335 0
360 1 0.447502 0.350454 0
1201 1 0.46148 0.331932 0
1202 1 0.481601 0.338676 0
1231 1 0.467547 0.357374 0
1203 1 0.495976 0.319913 0
1233 1 0.486537 0.363937 0
1287 1 0.00699128 0.405097 0
1258 1 0.0216121 0.387844 0
1257 1 0.00164468 0.380232 0
1259 1 0.0359268 0.370156 0
1260 1 0.0408021 0.395701 0
1230 1 0.0557857 0.376738 0
331 1 0.0604888 0.401339 0
303 1 0.0886158 0.365835 0
302 1 0.0750251 0.383717 0
333 1 0.0942949 0.390234 0
332 1 0.0803051 0.408162 0
304 1 0.108317 0.37223 0
335 1 0.113844 0.397092 0
306 1 0.127484 0.379584 0
337 1 0.133141 0.403224 0
308 1 0.147518 0.384388 0
309 1 0.162422 0.36812 0
339 1 0.167606 0.392647 0
310 1 0.181912 0.374609 0
341 1 0.186672 0.399555 0
343 1 0.200396 0.381214 0
342 1 0.205904 0.404702 0
314 1 0.21463 0.363106 0
344 1 0.219981 0.387228 0
345 1 0.234172 0.370356 0
346 1 0.240025 0.393827 0
347 1 0.255154 0.376254 0
377 1 0.259968 0.400504 0
348 1 0.273808 0.383187 0
378 1 0.278957 0.40737 0
349 1 0.288896 0.365913 0
350 1 0.29318 0.389338 0
351 1 0.30886 0.371317 0
381 1 0.313071 0.395274 0
353 1 0.328328 0.377648 0
352 1 0.333174 0.402065 0
354 1 0.347259 0.384661 0
355 1 0.361507 0.366007 0
356 1 0.366494 0.390528 0
357 1 0.380807 0.371537 0
386 1 0.385779 0.396149 0
387 1 0.400022 0.378886 0
388 1 0.405114 0.402203 0
389 1 0.41984 0.384757 0
419 1 0.424056 0.41099 0
1232 1 0.43335 0.367618 0
1261 1 0.438097 0.393236 0
1262 1 0.452435 0.374492 0
1293 1 0.457724 0.399045 0
1263 1 0.471843 0.381607 0
1294 1 0.477021 0.405408 0
1264 1 0.491654 0.38766 0
1289 1 0.026656 0.412143 0
1319 1 0.0315785 0.435178 0
1288 1 0.0117844 0.428496 0
1318 1 0.0178994 0.453104 0
1290 1 0.0470777 0.420093 0
391 1 0.0521575 0.443333 0
361 1 0.0660316 0.425461 0
362 1 0.0709122 0.449677 0
363 1 0.085938 0.432417 0
334 1 0.0994219 0.414593 0
365 1 0.105261 0.438297 0
336 1 0.119239 0.420984 0
366 1 0.124439 0.444692 0
367 1 0.138704 0.426638 0
368 1 0.143752 0.451606 0
338 1 0.153434 0.408997 0
369 1 0.157953 0.433911 0
340 1 0.172521 0.416757 0
370 1 0.177241 0.440545 0
371 1 0.19224 0.423245 0
401 1 0.197372 0.448053 0
372 1 0.211456 0.429257 0
373 1 0.225785 0.411842 0
374 1 0.230729 0.435745 0
375 1 0.245221 0.418179 0
405 1 0.250146 0.442732 0
403 1 0.217052 0.454101 0
376 1 0.264434 0.425013 0
407 1 0.270037 0.450123 0
409 1 0.284196 0.431524 0
379 1 0.299024 0.412871 0
380 1 0.304254 0.438059 0
382 1 0.318742 0.420272 0
385 1 0.35227 0.407815 0
413 1 0.323941 0.444497 0
383 1 0.338449 0.425309 0
412 1 0.343061 0.451075 0
414 1 0.357323 0.433725 0
384 1 0.371555 0.415419 0
415 1 0.376915 0.439304 0
417 1 0.391114 0.420945 0
416 1 0.396268 0.445944 0
418 1 0.410059 0.428631 0
447 1 0.415507 0.452634 0
390 1 0.429501 0.4352 0
1291 1 0.443978 0.417483 0
1321 1 0.44887 0.441372 0
1292 1 0.463199 0.423534 0
1323 1 0.482521 0.429366 0
1322 1 0.468387 0.447667 0
1295 1 0.496829 0.412139 0
1324 1 0.488156 0.455068 0
1348 1 0.00335828 0.47058 0
1349 1 0.0227498 0.477816 0
1379 1 0.00812926 0.495373 0
1320 1 0.0366781 0.460023 0
421 1 0.0423519 0.485936 0
392 1 0.0560791 0.467457 0
422 1 0.0612802 0.490804 0
393 1 0.0760312 0.473891 0
364 1 0.0903642 0.455901 0
394 1 0.0951021 0.481103 0
423 1 0.080143 0.499386 0
395 1 0.109565 0.463566 0
396 1 0.11447 0.487533 0
397 1 0.129636 0.469821 0
427 1 0.133781 0.494721 0
398 1 0.148864 0.476165 0
399 1 0.163545 0.459631 0
429 1 0.167924 0.483469 0
1354 1 0.493095 0.479 0
400 1 0.182893 0.465723 0
431 1 0.187372 0.489843 0
402 1 0.202652 0.472284 0
432 1 0.207302 0.497388 0
433 1 0.221593 0.478971 0
404 1 0.236255 0.460784 0
435 1 0.241149 0.485455 0
406 1 0.255691 0.467467 0
436 1 0.261518 0.49163 0
408 1 0.275886 0.474701 0
439 1 0.280486 0.498581 0
410 1 0.289473 0.455797 0
441 1 0.294785 0.480617 0
411 1 0.308828 0.462045 0
440 1 0.314709 0.486609 0
442 1 0.328749 0.468619 0
471 1 0.333736 0.492027 0
473 1 0.348125 0.47482 0
443 1 0.362363 0.457233 0
444 1 0.367224 0.481438 0
445 1 0.381307 0.463888 0
475 1 0.387377 0.488164 0
446 1 0.400974 0.470598 0
477 1 0.406042 0.495816 0
448 1 0.420213 0.477174 0
450 1 0.454521 0.465938 0
449 1 0.44041 0.484164 0
420 1 0.435077 0.459429 0
1351 1 0.459455 0.491079 0
1353 1 0.473578 0.472343 0
472 1 0.35349 0.499542 0
1380 1 0.0322616 0.527227 0
1350 1 0.0276607 0.502283 0
1409 1 0.0196378 0.546092 0
451 1 0.0464535 0.51028 0
452 1 0.0514895 0.535097 0
453 1 0.0661767 0.517193 0
454 1 0.0716345 0.541424 0
424 1 0.0856292 0.523084 0
425 1 0.100119 0.505684 0
455 1 0.104942 0.530518 0
426 1 0.119288 0.512703 0
456 1 0.124786 0.536834 0
457 1 0.139551 0.518741 0
458 1 0.144574 0.543837 0
459 1 0.159546 0.525809 0
430 1 0.173432 0.508189 0
460 1 0.17903 0.532718 0
461 1 0.193138 0.515181 0
462 1 0.197598 0.539373 0
463 1 0.212459 0.520847 0
434 1 0.226747 0.50297 0
464 1 0.231804 0.52806 0
465 1 0.246532 0.510214 0
493 1 0.216859 0.546293 0
466 1 0.251116 0.534949 0
437 1 0.266421 0.517814 0
497 1 0.270592 0.541881 0
467 1 0.285696 0.522971 0
438 1 0.299908 0.504606 0
468 1 0.30509 0.528718 0
469 1 0.319171 0.51138 0
1444 1 0.498935 0.595087 0
499 1 0.324024 0.535022 0
470 1 0.338823 0.516337 0
501 1 0.344484 0.541929 0
503 1 0.358414 0.52394 0
474 1 0.372554 0.505859 0
505 1 0.377286 0.529983 0
476 1 0.392167 0.512772 0
506 1 0.396582 0.537126 0
507 1 0.411185 0.520489 0
478 1 0.425565 0.50243 0
509 1 0.417009 0.543901 0
480 1 0.431637 0.526138 0
479 1 0.444892 0.507865 0
510 1 0.450495 0.533299 0
1382 1 0.482957 0.521911 0
1381 1 0.464056 0.51503 0
1411 1 0.46936 0.540073 0
1383 1 0.497625 0.504271 0
1408 1 0.0238302 0.570612 0
481 1 0.0377589 0.553243 0
1410 1 0.0434529 0.576964 0
483 1 0.0575324 0.558455 0
482 1 0.0628375 0.58369 0
485 1 0.0912617 0.547204 0
513 1 0.0768066 0.56453 0
484 1 0.0966763 0.570499 0
514 1 0.0823376 0.58907 0
486 1 0.110198 0.554086 0
515 1 0.116294 0.577762 0
487 1 0.130449 0.560409 0
517 1 0.136504 0.584241 0
488 1 0.150306 0.567727 0
489 1 0.164881 0.54956 0
490 1 0.169883 0.574008 0
491 1 0.183721 0.556881 0
521 1 0.188709 0.581727 0
492 1 0.203372 0.564638 0
523 1 0.208668 0.588258 0
494 1 0.222965 0.571346 0
495 1 0.236603 0.553118 0
525 1 0.242517 0.577014 0
496 1 0.25593 0.559297 0
526 1 0.261692 0.583694 0
527 1 0.27551 0.565688 0
528 1 0.281709 0.589614 0
498 1 0.290467 0.547429 0
529 1 0.295189 0.571506 0
500 1 0.309689 0.553144 0
530 1 0.315112 0.578403 0
531 1 0.329817 0.560579 0
532 1 0.334799 0.584579 0
533 1 0.349255 0.566358 0
502 1 0.363978 0.549052 0
534 1 0.368818 0.573929 0
504 1 0.382669 0.556535 0
535 1 0.388776 0.580444 0
508 1 0.40218 0.561392 0
537 1 0.408043 0.586537 0
539 1 0.421167 0.569273 0
540 1 0.435795 0.55115 0
569 1 0.440641 0.575791 0
1441 1 0.455072 0.55845 0
1442 1 0.460793 0.581729 0
1413 1 0.489101 0.546476 0
1443 1 0.480038 0.588367 0
1412 1 0.474927 0.563908 0
1414 1 0.493781 0.570586 0
1439 1 0.0295153 0.595461 0
1440 1 0.0347666 0.619131 0
1438 1 0.0144238 0.611844 0
1469 1 0.00672347 0.634742 0
511 1 0.0493337 0.601446 0
541 1 0.0549 0.625356 0
512 1 0.0688557 0.607323 0
542 1 0.0738632 0.631302 0
543 1 0.0875212 0.614049 0
545 1 0.101801 0.595604 0
546 1 0.107203 0.620398 0
516 1 0.121165 0.602255 0
547 1 0.126457 0.626999 0
518 1 0.140325 0.60935 0
519 1 0.155191 0.592127 0
548 1 0.159924 0.616742 0
520 1 0.174453 0.599026 0
577 1 0.146309 0.63396 0
549 1 0.179822 0.6229 0
522 1 0.19409 0.605447 0
551 1 0.199144 0.630195 0
553 1 0.213868 0.611811 0
524 1 0.228951 0.595178 0
554 1 0.233156 0.61949 0
555 1 0.247838 0.601885 0
552 1 0.218838 0.63617 0
556 1 0.252321 0.626239 0
557 1 0.267363 0.607734 0
587 1 0.272538 0.632726 0
558 1 0.286936 0.614634 0
559 1 0.300747 0.596036 0
560 1 0.306118 0.621884 0
561 1 0.319729 0.603197 0
563 1 0.354953 0.591361 0
591 1 0.325587 0.627737 0
562 1 0.339757 0.608348 0
564 1 0.345855 0.6339 0
565 1 0.359186 0.615122 0
536 1 0.375095 0.599371 0
566 1 0.379288 0.623055 0
567 1 0.39465 0.605824 0
597 1 0.398325 0.630737 0
568 1 0.413134 0.611783 0
538 1 0.427358 0.593403 0
599 1 0.41768 0.636088 0
600 1 0.432682 0.618306 0
570 1 0.44699 0.599039 0
1501 1 0.451631 0.624188 0
1471 1 0.465888 0.605877 0
1472 1 0.471508 0.630724 0
1473 1 0.485131 0.612568 0
1529 1 0.0166292 0.676235 0
1499 1 0.0216138 0.651401 0
1498 1 0.00250695 0.658964 0
1500 1 0.0361426 0.666627 0
1470 1 0.0405446 0.64278 0
571 1 0.059398 0.649945 0
572 1 0.0661987 0.672271 0
573 1 0.0794317 0.654922 0
544 1 0.0941467 0.638399 0
574 1 0.0975437 0.663886 0
603 1 0.0846928 0.682198 0
575 1 0.112519 0.645039 0
605 1 0.118395 0.670374 0
576 1 0.133013 0.651858 0
607 1 0.1377 0.676402 0
578 1 0.151802 0.658819 0
579 1 0.165537 0.641162 0
609 1 0.171357 0.664785 0
550 1 0.18517 0.647861 0
580 1 0.191177 0.673362 0
581 1 0.204478 0.654602 0
611 1 0.210629 0.679035 0
582 1 0.224401 0.660737 0
583 1 0.238615 0.643015 0
584 1 0.244043 0.667527 0
585 1 0.258271 0.649023 0
615 1 0.264082 0.673802 0
586 1 0.278147 0.6563 0
617 1 0.28329 0.681204 0
589 1 0.292106 0.63911 0
588 1 0.297202 0.664274 0
590 1 0.311292 0.647077 0
621 1 0.316962 0.670437 0
593 1 0.330992 0.652446 0
592 1 0.336669 0.677304 0
594 1 0.350424 0.658512 0
595 1 0.36491 0.641824 0
625 1 0.369662 0.66599 0
596 1 0.383596 0.647407 0
627 1 0.389154 0.672053 0
598 1 0.403391 0.654374 0
657 1 0.409411 0.678024 0
628 1 0.423438 0.660464 0
629 1 0.436971 0.642018 0
630 1 0.443562 0.665684 0
1502 1 0.458242 0.647806 0
1533 1 0.46284 0.672372 0
1474 1 0.491184 0.637072 0
1505 1 0.495744 0.662003 0
1503 1 0.477136 0.654537 0
1504 1 0.482841 0.680434 0
1558 1 0.00817301 0.723413 0
1559 1 0.012056 0.700341 0
1530 1 0.0311371 0.691957 0
1560 1 0.0274071 0.716409 0
631 1 0.0466659 0.709052 0
601 1 0.0494955 0.684609 0
602 1 0.0687913 0.699501 0
632 1 0.0621344 0.72429 0
633 1 0.0887351 0.706381 0
604 1 0.102991 0.688324 0
635 1 0.108233 0.713039 0
606 1 0.122662 0.694483 0
636 1 0.128503 0.718596 0
637 1 0.142306 0.700494 0
608 1 0.156823 0.682477 0
638 1 0.162576 0.707229 0
639 1 0.176856 0.690446 0
667 1 0.148184 0.725183 0
641 1 0.182107 0.713954 0
610 1 0.197305 0.697132 0
642 1 0.201977 0.721556 0
612 1 0.216566 0.703845 0
613 1 0.229946 0.684808 0
643 1 0.235829 0.709523 0
614 1 0.249094 0.69216 0
645 1 0.255298 0.715526 0
616 1 0.26924 0.698809 0
647 1 0.274594 0.722946 0
618 1 0.28819 0.70582 0
619 1 0.302442 0.687992 0
620 1 0.308038 0.711993 0
622 1 0.322131 0.694387 0
651 1 0.327436 0.719178 0
653 1 0.341425 0.701544 0
654 1 0.346484 0.725626 0
623 1 0.355516 0.68341 0
624 1 0.361746 0.708016 0
626 1 0.376097 0.690856 0
655 1 0.381318 0.714317 0
656 1 0.395846 0.696149 0
686 1 0.400503 0.720342 0
658 1 0.415427 0.70243 0
659 1 0.430056 0.684573 0
687 1 0.420261 0.72687 0
660 1 0.434992 0.708806 0
1531 1 0.448803 0.690449 0
1561 1 0.454134 0.71597 0
1532 1 0.467934 0.696711 0
1563 1 0.474178 0.721143 0
1534 1 0.488097 0.703369 0
1619 1 0.0174783 0.764529 0
1589 1 0.0227944 0.740509 0
1588 1 0.00346148 0.74672 0
1590 1 0.0373705 0.757454 0
661 1 0.0421517 0.732665 0
663 1 0.0570734 0.749001 0
662 1 0.0711699 0.765695 0
664 1 0.0765791 0.741471 0
695 1 0.0906882 0.759321 0
634 1 0.0948681 0.732673 0
665 1 0.114963 0.735705 0
697 1 0.119445 0.759326 0
666 1 0.134398 0.741946 0
668 1 0.139223 0.765207 0
669 1 0.153791 0.74917 0
640 1 0.168086 0.730624 0
670 1 0.173326 0.756443 0
671 1 0.187854 0.739099 0
672 1 0.194146 0.762667 0
673 1 0.207193 0.744455 0
703 1 0.212678 0.770319 0
644 1 0.221752 0.727419 0
674 1 0.225553 0.752899 0
675 1 0.240375 0.733822 0
705 1 0.244063 0.757792 0
646 1 0.259022 0.740877 0
677 1 0.264181 0.763929 0
648 1 0.278826 0.746167 0
649 1 0.294172 0.729197 0
679 1 0.299115 0.753237 0
650 1 0.31351 0.736251 0
681 1 0.318587 0.761753 0
652 1 0.332527 0.744072 0
682 1 0.338447 0.767879 0
683 1 0.352558 0.750144 0
685 1 0.366112 0.732364 0
684 1 0.372023 0.755897 0
715 1 0.386329 0.738911 0
714 1 0.392315 0.763303 0
717 1 0.405972 0.743138 0
716 1 0.412147 0.768434 0
688 1 0.426068 0.750584 0
689 1 0.440176 0.732935 0
719 1 0.446027 0.756945 0
690 1 0.460383 0.739715 0
1565 1 0.493685 0.727943 0
1591 1 0.465315 0.763737 0
1562 1 0.479421 0.745511 0
1593 1 0.484539 0.769879 0
1564 1 0.498711 0.752415 0
1620 1 0.0316287 0.781538 0
1649 1 0.0271489 0.805229 0
1618 1 0.0119282 0.789067 0
1648 1 0.00738218 0.813243 0
691 1 0.0517011 0.773922 0
721 1 0.0462423 0.798747 0
693 1 0.0659655 0.790596 0
692 1 0.0605232 0.815743 0
723 1 0.0802163 0.807976 0
694 1 0.0856403 0.783584 0
725 1 0.0998315 0.802627 0
696 1 0.105342 0.777693 0
727 1 0.119136 0.794883 0
728 1 0.132684 0.814523 0
698 1 0.138239 0.788883 0
699 1 0.15704 0.775813 0
700 1 0.151441 0.807679 0
731 1 0.168747 0.798377 0
701 1 0.179617 0.779536 0
702 1 0.197918 0.788925 0
763 1 0.204651 0.813773 0
732 1 0.184783 0.812938 0
733 1 0.217234 0.795294 0
704 1 0.232073 0.777317 0
706 1 0.237584 0.801963 0
678 1 0.284991 0.771119 0
676 1 0.251287 0.782152 0
737 1 0.257213 0.806769 0
707 1 0.270973 0.789847 0
738 1 0.276107 0.814243 0
708 1 0.289816 0.79712 0
709 1 0.303876 0.778514 0
710 1 0.31019 0.803689 0
680 1 0.323907 0.784757 0
741 1 0.328873 0.809944 0
711 1 0.34306 0.792668 0
742 1 0.349617 0.817605 0
713 1 0.357962 0.774957 0
712 1 0.363868 0.799235 0
743 1 0.377561 0.780075 0
745 1 0.383289 0.805961 0
746 1 0.397116 0.787154 0
775 1 0.402652 0.811175 0
747 1 0.417667 0.793395 0
718 1 0.432032 0.775531 0
749 1 0.437436 0.798715 0
720 1 0.45205 0.781887 0
1621 1 0.456451 0.806453 0
1623 1 0.489844 0.796723 0
1592 1 0.471277 0.788138 0
1622 1 0.475733 0.813158 0
1679 1 0.0220846 0.829478 0
1678 1 0.0161945 0.853918 0
1677 1 0.00174791 0.837961 0
1709 1 0.0360771 0.847955 0
1650 1 0.0412518 0.822755 0
1680 1 0.0557778 0.839368 0
752 1 0.0690396 0.85731 0
751 1 0.0748657 0.832394 0
753 1 0.0878483 0.85112 0
722 1 0.0940414 0.827644 0
726 1 0.113443 0.820183 0
724 1 0.108239 0.845056 0
757 1 0.127286 0.839002 0
756 1 0.14298 0.85519 0
755 1 0.122358 0.862358 0
729 1 0.147273 0.831608 0
759 1 0.162375 0.847637 0
730 1 0.165957 0.8235 0
761 1 0.182277 0.838449 0
792 1 0.194634 0.857534 0
762 1 0.209199 0.837631 0
735 1 0.223737 0.81992 0
734 1 0.228452 0.843915 0
736 1 0.243058 0.826154 0
765 1 0.248315 0.850857 0
767 1 0.261544 0.832423 0
766 1 0.268145 0.857174 0
768 1 0.281628 0.838771 0
739 1 0.295835 0.821543 0
769 1 0.301496 0.844824 0
740 1 0.315815 0.828142 0
797 1 0.288562 0.864242 0
770 1 0.321513 0.853221 0
771 1 0.334572 0.834737 0
801 1 0.341358 0.859767 0
773 1 0.354709 0.841391 0
744 1 0.36966 0.823336 0
803 1 0.375138 0.847175 0
774 1 0.390143 0.8298 0
748 1 0.422384 0.817394 0
776 1 0.39543 0.854087 0
777 1 0.409013 0.835572 0
778 1 0.414055 0.859699 0
779 1 0.428276 0.842173 0
750 1 0.441981 0.824065 0
780 1 0.447831 0.847394 0
1651 1 0.462096 0.829698 0
1624 1 0.495242 0.820535 0
1652 1 0.46687 0.853984 0
1653 1 0.481064 0.837593 0
1683 1 0.486703 0.861835 0
1710 1 0.0300958 0.872542 0
1739 1 0.0263042 0.89782 0
1708 1 0.010526 0.879931 0
1737 1 0.00658223 0.904854 0
781 1 0.0505462 0.865538 0
811 1 0.0452969 0.889537 0
782 1 0.0644036 0.883429 0
812 1 0.0601065 0.90839 0
813 1 0.0793963 0.899862 0
783 1 0.0837542 0.875381 0
784 1 0.0984894 0.892886 0
754 1 0.103024 0.867985 0
785 1 0.117067 0.885893 0
786 1 0.131885 0.902405 0
787 1 0.136632 0.879613 0
760 1 0.17554 0.865127 0
788 1 0.151363 0.896978 0
758 1 0.156253 0.872464 0
789 1 0.170991 0.888723 0
791 1 0.190839 0.881294 0
823 1 0.203708 0.8989 0
790 1 0.18476 0.906308 0
764 1 0.21542 0.863582 0
793 1 0.221892 0.88888 0
795 1 0.234328 0.86919 0
794 1 0.240829 0.894697 0
796 1 0.254441 0.874956 0
825 1 0.261117 0.899516 0
827 1 0.274015 0.88109 0
826 1 0.280128 0.906269 0
798 1 0.294197 0.88893 0
799 1 0.307563 0.870436 0
829 1 0.313928 0.895053 0
800 1 0.327357 0.877157 0
831 1 0.333492 0.900934 0
802 1 0.348088 0.883934 0
833 1 0.352949 0.908029 0
772 1 0.361874 0.866603 0
804 1 0.367889 0.890718 0
805 1 0.381368 0.872491 0
806 1 0.387323 0.896531 0
807 1 0.400826 0.879202 0
837 1 0.406257 0.903629 0
808 1 0.421062 0.885455 0
809 1 0.434232 0.866584 0
810 1 0.439892 0.891111 0
1681 1 0.453309 0.872911 0
1711 1 0.459447 0.898214 0
1684 1 0.492066 0.886745 0
1682 1 0.472495 0.879879 0
1713 1 0.479128 0.904945 0
1767 1 0.00214432 0.929203 0
1769 1 0.035656 0.939374 0
1738 1 0.0219242 0.922327 0
1768 1 0.0162023 0.94632 0
1740 1 0.0409325 0.914508 0
841 1 0.0552491 0.932071 0
842 1 0.0696303 0.949836 0
843 1 0.0749478 0.925397 0
844 1 0.0890336 0.942473 0
814 1 0.0937928 0.917495 0
845 1 0.10808 0.9351 0
815 1 0.11308 0.910692 0
816 1 0.127112 0.928102 0
847 1 0.141111 0.945563 0
846 1 0.121391 0.952537 0
817 1 0.146314 0.921215 0
818 1 0.16062 0.938223 0
819 1 0.166092 0.91475 0
820 1 0.180886 0.931086 0
851 1 0.194091 0.94867 0
821 1 0.199687 0.924043 0
822 1 0.213779 0.941513 0
824 1 0.218685 0.915818 0
853 1 0.232647 0.934162 0
855 1 0.247588 0.918323 0
854 1 0.251437 0.94225 0
856 1 0.266166 0.924709 0
885 1 0.271277 0.949493 0
857 1 0.285911 0.931462 0
828 1 0.299442 0.913227 0
859 1 0.305412 0.938103 0
830 1 0.319773 0.919227 0
860 1 0.324404 0.943951 0
832 1 0.338473 0.926114 0
861 1 0.343699 0.951081 0
863 1 0.358338 0.932395 0
834 1 0.372321 0.914383 0
865 1 0.37722 0.938184 0
835 1 0.392319 0.920976 0
839 1 0.425932 0.91017 0
836 1 0.397566 0.94549 0
838 1 0.411394 0.927889 0
867 1 0.417091 0.952686 0
869 1 0.430563 0.934402 0
840 1 0.444751 0.916348 0
1741 1 0.450239 0.940313 0
1712 1 0.464591 0.921603 0
1714 1 0.498533 0.910825 0
1743 1 0.484303 0.928486 0
1742 1 0.469782 0.946186 0
1744 1 0.489872 0.952584 0
1799 1 0.0299703 0.964339 0
1798 1 0.0261092 0.989264 0
1797 1 0.0115442 0.971513 0
927 1 0.00674092 0.995926 0
1800 1 0.0454119 0.982502 0
1770 1 0.050642 0.95786 0
871 1 0.0647669 0.975499 0
1 1 0.0597182 0.999955 0
872 1 0.0788031 0.992331 0
873 1 0.0833832 0.967343 0
874 1 0.0974865 0.984807 0
875 1 0.10229 0.960135 0
876 1 0.117079 0.97714 0
7 1 0.131682 0.993917 0
877 1 0.135967 0.969302 0
849 1 0.175002 0.955163 0
878 1 0.150883 0.986624 0
848 1 0.155461 0.962265 0
879 1 0.170044 0.979719 0
850 1 0.18935 0.973407 0
11 1 0.203761 0.990269 0
852 1 0.208548 0.965888 0
881 1 0.184222 0.997711 0
883 1 0.229071 0.959386 0
882 1 0.222642 0.983264 0
884 1 0.242141 0.978046 0
886 1 0.258425 0.966645 0
16 1 0.258153 0.992843 0
17 1 0.277322 0.974317 0
18 1 0.282438 0.998059 0
887 1 0.291437 0.955603 0
888 1 0.296455 0.980985 0
858 1 0.310795 0.962292 0
889 1 0.315705 0.987509 0
891 1 0.329894 0.969373 0
890 1 0.334939 0.993982 0
862 1 0.3493 0.974703 0
864 1 0.363169 0.95713 0
893 1 0.368582 0.982206 0
895 1 0.383531 0.964146 0
896 1 0.388052 0.988672 0
866 1 0.402671 0.97087 0
897 1 0.408037 0.995389 0
868 1 0.42283 0.977158 0
899 1 0.441549 0.98412 0
1772 1 0.461437 0.989257 0
870 1 0.437214 0.9592 0
1771 1 0.456438 0.964812 0
1774 1 0.495123 0.977033 0
903 1 0.481622 0.99572 0
1773 1 0.475282 0.970698 0
892 1 0.354086 1.00027 0
428 1 0.153603 0.501149 0
904 1 0.507654 0.0277959 0
906 1 0.520527 0.00980577 0
935 1 0.526503 0.0350287 0
905 1 0.501187 0.00320675 0
908 1 0.540474 0.0169832 0
937 1 0.544899 0.041298 0
939 1 0.559559 0.0231794 0
941 1 0.572436 0.00371598 0
940 1 0.579258 0.0276857 0
942 1 0.803208 0.0238301 0
944 1 0.818191 0.0409719 0
943 1 0.821967 0.0173948 0
945 1 0.837408 0.0342243 0
914 1 0.842346 0.00969983 0