ITEM: TIMESTEP
37000
ITEM: NUMBER OF ATOMS
1800
ITEM: BOX BOUNDS pp pp pp
-3.0739065709682056e-01 1.6530739065709875e+02
1.1826529217466231e+00 1.6381734707825530e+02
0.0000000000000000e+00 5.5000000000000000e+00
ITEM: ATOMS id type xs ys zs
2 1 0.0164953 0.0126713 0
3 1 0.040256 0.00570934 0
31 1 0.0110664 0.0366573 0
33 1 0.03471 0.0300296 0
4 1 0.0586919 0.0219371 0
6 1 0.081776 0.0161357 0
35 1 0.0759857 0.0406332 0
8 1 0.105291 0.00974834 0
37 1 0.0984436 0.0332684 0
39 1 0.123276 0.0262879 0
880 1 0.128769 0.00274146 0
9 1 0.148083 0.0211732 0
10 1 0.172084 0.0149483 0
40 1 0.166395 0.03919 0
69 1 0.140735 0.0455014 0
41 1 0.189941 0.0331508 0
12 1 0.195585 0.00841507 0
14 1 0.212594 0.0266149 0
13 1 0.219169 0.00261944 0
15 1 0.236919 0.0207358 0
16 1 0.260362 0.0146701 0
46 1 0.253423 0.0397472 0
47 1 0.277941 0.0342994 0
18 1 0.283666 0.0094056 0
49 1 0.313569 0.0351327 0
19 1 0.306955 0.0120857 0
20 1 0.330945 0.0172737 0
21 1 0.357277 0.0221642 0
51 1 0.339809 0.0401339 0
22 1 0.364984 0.045829 0
23 1 0.380886 0.0283289 0
894 1 0.397401 0.00891334 0
24 1 0.405632 0.0331267 0
892 1 0.372757 0.00375411 0
25 1 0.422086 0.0140373 0
27 1 0.446806 0.0197049 0
26 1 0.430175 0.0384707 0
28 1 0.454105 0.0439574 0
29 1 0.470867 0.0248648 0
900 1 0.48644 0.0064235 0
30 1 0.495814 0.0313817 0
898 1 0.463053 0.00104246 0
32 1 0.028186 0.0547656 0
62 1 0.0214399 0.0781934 0
63 1 0.0458512 0.0713599 0
61 1 0.00310356 0.0604203 0
34 1 0.0525404 0.0473066 0
65 1 0.0697696 0.0654313 0
66 1 0.0874232 0.0836426 0
36 1 0.0934423 0.0586691 0
38 1 0.116896 0.051245 0
67 1 0.11014 0.0769227 0
68 1 0.134157 0.0701565 0
71 1 0.158976 0.0642454 0
72 1 0.176455 0.0821246 0
70 1 0.152805 0.0874448 0
42 1 0.182886 0.057144 0
43 1 0.20603 0.0520223 0
73 1 0.199975 0.0763931 0
44 1 0.223528 0.0706009 0
45 1 0.230257 0.0467055 0
75 1 0.247466 0.0640413 0
76 1 0.265421 0.0828146 0
74 1 0.241072 0.0875306 0
77 1 0.271232 0.0586267 0
48 1 0.296055 0.052131 0
79 1 0.306512 0.0750376 0
50 1 0.323297 0.0577326 0
81 1 0.331333 0.0808207 0
52 1 0.347968 0.0630486 0
82 1 0.355259 0.0875193 0
53 1 0.388744 0.0515407 0
83 1 0.37153 0.069967 0
54 1 0.397465 0.075286 0
55 1 0.413562 0.0560967 0
57 1 0.437143 0.0620083 0
56 1 0.421239 0.0806877 0
87 1 0.444728 0.0860974 0
59 1 0.479119 0.0490486 0
58 1 0.461973 0.0676973 0
89 1 0.486335 0.0739737 0
92 1 0.0319892 0.121042 0
93 1 0.0397593 0.0958128 0
91 1 0.0154982 0.102805 0
121 1 0.00847488 0.126805 0
64 1 0.0631349 0.088892 0
94 1 0.0556637 0.11533 0
95 1 0.0790231 0.108405 0
125 1 0.0730469 0.132962 0
96 1 0.0970694 0.125715 0
97 1 0.103315 0.101269 0
98 1 0.121891 0.118634 0
99 1 0.127939 0.0943255 0
100 1 0.146447 0.112772 0
101 1 0.170713 0.106832 0
130 1 0.163382 0.130428 0
129 1 0.139548 0.136144 0
103 1 0.193946 0.0999691 0
102 1 0.188049 0.124477 0
105 1 0.217517 0.0940367 0
104 1 0.212341 0.118484 0
106 1 0.235622 0.111756 0
137 1 0.254254 0.128205 0
107 1 0.268572 0.107669 0
78 1 0.289369 0.091905 0
109 1 0.296247 0.117177 0
108 1 0.278525 0.133656 0
80 1 0.313083 0.0986372 0
110 1 0.320397 0.122686 0
111 1 0.338152 0.105088 0
141 1 0.345128 0.127886 0
113 1 0.362653 0.111539 0
84 1 0.379791 0.0933656 0
112 1 0.387293 0.117292 0
85 1 0.404509 0.0999576 0
143 1 0.369873 0.134493 0
115 1 0.41115 0.123011 0
86 1 0.428259 0.104328 0
116 1 0.435223 0.127688 0
117 1 0.452517 0.109792 0
88 1 0.469488 0.0919868 0
119 1 0.476851 0.115496 0
90 1 0.4939 0.0977773 0
118 1 0.45984 0.135011 0
450 1 0.493431 0.476459 0
151 1 0.000583239 0.151454 0
122 1 0.0260161 0.145904 0
152 1 0.0181436 0.169956 0
153 1 0.0422118 0.164212 0
123 1 0.0496049 0.138539 0
124 1 0.0662739 0.157908 0
155 1 0.0766525 0.17996 0
126 1 0.0912812 0.14969 0
127 1 0.115471 0.142642 0
128 1 0.132331 0.160034 0
157 1 0.108811 0.16694 0
159 1 0.157595 0.160996 0
131 1 0.180552 0.147919 0
132 1 0.181577 0.172263 0
133 1 0.204598 0.142398 0
134 1 0.221394 0.161312 0
163 1 0.205624 0.18059 0
135 1 0.229753 0.138336 0
136 1 0.262035 0.151456 0
165 1 0.24598 0.170239 0
167 1 0.270514 0.17517 0
139 1 0.303807 0.140271 0
138 1 0.287086 0.157823 0
169 1 0.310371 0.164352 0
140 1 0.328212 0.146352 0
142 1 0.352378 0.15303 0
171 1 0.335469 0.169595 0
172 1 0.359952 0.176325 0
114 1 0.393536 0.140456 0
144 1 0.400836 0.164519 0
173 1 0.377327 0.158405 0
145 1 0.418923 0.1469 0
146 1 0.424891 0.170181 0
147 1 0.442874 0.152383 0
177 1 0.449495 0.176927 0
149 1 0.483784 0.139506 0
148 1 0.466866 0.158714 0
150 1 0.490693 0.16375 0
179 1 0.473649 0.18243 0
183 1 0.0339529 0.190486 0
182 1 0.0393538 0.214714 0
181 1 0.0138808 0.206573 0
154 1 0.0580126 0.196308 0
184 1 0.0625287 0.223062 0
185 1 0.080287 0.206306 0
186 1 0.10487 0.215035 0
156 1 0.0994985 0.190291 0
158 1 0.122515 0.198638 0
187 1 0.128264 0.224199 0
160 1 0.142032 0.181673 0
161 1 0.165031 0.189717 0
189 1 0.146495 0.206072 0
191 1 0.170694 0.214455 0
162 1 0.188655 0.197709 0
193 1 0.213371 0.205492 0
192 1 0.195045 0.221589 0
164 1 0.229392 0.187713 0
195 1 0.236994 0.211464 0
166 1 0.253352 0.194118 0
196 1 0.260832 0.218365 0
168 1 0.293882 0.182136 0
197 1 0.277036 0.19968 0
199 1 0.302011 0.206081 0
170 1 0.318514 0.188057 0
198 1 0.284464 0.223948 0
201 1 0.343307 0.193553 0
200 1 0.325173 0.212335 0
202 1 0.349718 0.217656 0
174 1 0.384301 0.182259 0
203 1 0.366821 0.199686 0
233 1 0.374124 0.224589 0
204 1 0.391422 0.206649 0
175 1 0.408786 0.188794 0
205 1 0.416033 0.212751 0
176 1 0.432908 0.195023 0
207 1 0.440118 0.218494 0
178 1 0.457483 0.200229 0
209 1 0.481084 0.206343 0
208 1 0.463923 0.224048 0
180 1 0.497007 0.187849 0
212 1 0.0249369 0.25651 0
211 1 0.0190202 0.230337 0
213 1 0.0422706 0.239693 0
1140 1 0.000672889 0.24908 0
243 1 0.0499075 0.264152 0
215 1 0.0857013 0.231103 0
214 1 0.0670953 0.247107 0
216 1 0.0911409 0.256148 0
217 1 0.110208 0.240959 0
218 1 0.116509 0.26477 0
188 1 0.135247 0.248327 0
190 1 0.153536 0.231968 0
221 1 0.177253 0.239014 0
220 1 0.158465 0.255778 0
222 1 0.183248 0.263087 0
219 1 0.139307 0.273563 0
194 1 0.218904 0.228725 0
223 1 0.201684 0.245734 0
224 1 0.225443 0.253352 0
253 1 0.207066 0.270248 0
225 1 0.242648 0.2352 0
227 1 0.266319 0.242562 0
226 1 0.248829 0.260549 0
257 1 0.273705 0.267262 0
229 1 0.307555 0.231087 0
228 1 0.289729 0.247904 0
230 1 0.313293 0.254691 0
231 1 0.331755 0.235945 0
232 1 0.356852 0.242378 0
261 1 0.338284 0.260212 0
263 1 0.364452 0.265817 0
235 1 0.398998 0.230277 0
234 1 0.381904 0.247978 0
265 1 0.405376 0.254849 0
206 1 0.423499 0.237286 0
237 1 0.447464 0.243675 0
236 1 0.429802 0.260886 0
238 1 0.453839 0.268913 0
210 1 0.487816 0.229751 0
239 1 0.471522 0.249246 0
240 1 0.495523 0.254816 0
269 1 0.47869 0.273836 0
241 1 0.00667136 0.273492 0
242 1 0.0316296 0.28169 0
271 1 0.0119074 0.297717 0
273 1 0.0367637 0.306962 0
245 1 0.0737305 0.273638 0
244 1 0.0548886 0.28994 0
246 1 0.0786795 0.297922 0
275 1 0.0599472 0.314506 0
247 1 0.0976637 0.28119 0
249 1 0.122274 0.289624 0
248 1 0.104014 0.305707 0
279 1 0.128439 0.314403 0
251 1 0.164888 0.280008 0
250 1 0.146222 0.296965 0
281 1 0.170901 0.304716 0
252 1 0.188681 0.287274 0
254 1 0.212578 0.2941 0
283 1 0.194936 0.311865 0
255 1 0.231675 0.277212 0
256 1 0.254915 0.285778 0
285 1 0.235501 0.301967 0
287 1 0.261448 0.309819 0
259 1 0.297677 0.273278 0
258 1 0.279024 0.291855 0
288 1 0.28619 0.31575 0
289 1 0.304528 0.298337 0
260 1 0.321946 0.279505 0
262 1 0.345535 0.284548 0
291 1 0.328381 0.303894 0
292 1 0.352278 0.307852 0
264 1 0.388461 0.272934 0
293 1 0.369408 0.289831 0
295 1 0.394824 0.298165 0
294 1 0.377136 0.315762 0
266 1 0.412304 0.27927 0
267 1 0.436505 0.286133 0
297 1 0.419515 0.303072 0
298 1 0.444486 0.310301 0
268 1 0.461767 0.292803 0
270 1 0.486185 0.296877 0
299 1 0.468194 0.315805 0
449 1 0.475804 0.493834 0
1200 1 0.0178262 0.322717 0
272 1 0.0416148 0.330665 0
301 1 0.0236982 0.347208 0
303 1 0.0472428 0.354872 0
276 1 0.0845615 0.321673 0
274 1 0.0662629 0.337917 0
305 1 0.0913838 0.345967 0
277 1 0.109373 0.329524 0
307 1 0.114944 0.353416 0
278 1 0.135235 0.339069 0
280 1 0.153321 0.320775 0
282 1 0.177446 0.329306 0
311 1 0.158848 0.344462 0
309 1 0.141099 0.362621 0
312 1 0.182633 0.353093 0
284 1 0.218139 0.320568 0
313 1 0.201254 0.337763 0
315 1 0.225218 0.344467 0
314 1 0.206787 0.361644 0
286 1 0.242664 0.326761 0
317 1 0.268093 0.333759 0
316 1 0.250686 0.351351 0
290 1 0.310709 0.321507 0
318 1 0.274529 0.358455 0
319 1 0.292302 0.33993 0
320 1 0.31681 0.345845 0
321 1 0.334511 0.327249 0
323 1 0.358881 0.33341 0
322 1 0.341908 0.351649 0
296 1 0.401396 0.322048 0
324 1 0.366009 0.357443 0
325 1 0.384102 0.340354 0
326 1 0.408037 0.345818 0
327 1 0.426661 0.327147 0
328 1 0.433135 0.350591 0
329 1 0.451148 0.333266 0
300 1 0.492102 0.320515 0
359 1 0.457562 0.356926 0
330 1 0.475062 0.340055 0
360 1 0.482505 0.363551 0
1201 1 0.49903 0.344178 0
1230 1 0.00566107 0.364533 0
302 1 0.0302048 0.372468 0
332 1 0.0365769 0.396667 0
331 1 0.0119969 0.388789 0
304 1 0.0735949 0.363626 0
333 1 0.0539103 0.379333 0
335 1 0.0797911 0.387991 0
334 1 0.0606458 0.404829 0
306 1 0.0972048 0.370791 0
308 1 0.120864 0.3783 0
337 1 0.10401 0.395804 0
338 1 0.12769 0.403284 0
310 1 0.164988 0.369086 0
339 1 0.146888 0.387108 0
341 1 0.170686 0.394785 0
343 1 0.189114 0.378465 0
342 1 0.195923 0.402819 0
344 1 0.213602 0.386829 0
345 1 0.231275 0.36804 0
347 1 0.255158 0.375668 0
346 1 0.237558 0.393421 0
377 1 0.263725 0.400786 0
349 1 0.298725 0.365291 0
348 1 0.280618 0.382159 0
350 1 0.305867 0.389601 0
378 1 0.287213 0.406596 0
351 1 0.322988 0.37077 0
381 1 0.330726 0.393878 0
353 1 0.347673 0.375035 0
352 1 0.355383 0.399476 0
355 1 0.389453 0.363471 0
354 1 0.372005 0.381855 0
385 1 0.379314 0.406786 0
356 1 0.397011 0.387001 0
387 1 0.422134 0.39366 0
357 1 0.414857 0.369237 0
358 1 0.43953 0.375296 0
389 1 0.44714 0.398719 0
1232 1 0.464094 0.380886 0
1262 1 0.489685 0.387003 0
1261 1 0.472005 0.404666 0
361 1 0.018019 0.412949 0
362 1 0.0240139 0.43691 0
363 1 0.0431309 0.421507 0
336 1 0.0850163 0.412983 0
364 1 0.0477226 0.445025 0
365 1 0.0663956 0.428953 0
366 1 0.0906593 0.436726 0
367 1 0.11031 0.420374 0
368 1 0.115232 0.444844 0
369 1 0.134364 0.427446 0
340 1 0.15252 0.410778 0
371 1 0.17776 0.418716 0
370 1 0.158756 0.434456 0
399 1 0.140329 0.451823 0
373 1 0.220158 0.411099 0
401 1 0.183951 0.444367 0
372 1 0.201346 0.427404 0
374 1 0.226355 0.43549 0
403 1 0.207577 0.451664 0
375 1 0.244531 0.417251 0
376 1 0.270013 0.425021 0
405 1 0.250498 0.442254 0
379 1 0.3124 0.41364 0
407 1 0.275536 0.450606 0
409 1 0.294128 0.431011 0
380 1 0.31848 0.43807 0
382 1 0.337117 0.417524 0
413 1 0.343025 0.443168 0
383 1 0.361307 0.424987 0
386 1 0.40413 0.410494 0
414 1 0.37 0.447777 0
384 1 0.38779 0.430701 0
415 1 0.395647 0.453794 0
417 1 0.413177 0.4346 0
388 1 0.4303 0.416658 0
418 1 0.436537 0.44055 0
419 1 0.454344 0.422459 0
1293 1 0.496043 0.410527 0
390 1 0.461165 0.446807 0
1291 1 0.478592 0.429108 0
1321 1 0.486298 0.453113 0
392 1 0.0052443 0.453357 0
393 1 0.0291452 0.461618 0
422 1 0.0117225 0.478651 0
423 1 0.0353504 0.485519 0
395 1 0.0715938 0.453542 0
394 1 0.0540514 0.469498 0
396 1 0.0785733 0.478086 0
425 1 0.0597517 0.494955 0
397 1 0.0968905 0.460968 0
398 1 0.122279 0.469185 0
427 1 0.102844 0.485432 0
428 1 0.126584 0.493682 0
400 1 0.164855 0.460091 0
429 1 0.146294 0.475527 0
431 1 0.169706 0.486249 0
402 1 0.188629 0.46914 0
432 1 0.193835 0.49292 0
433 1 0.214269 0.476293 0
404 1 0.232849 0.459849 0
406 1 0.256086 0.467529 0
435 1 0.238054 0.484221 0
436 1 0.261176 0.493573 0
410 1 0.30017 0.454914 0
408 1 0.280831 0.474245 0
441 1 0.306429 0.479878 0
439 1 0.286529 0.498277 0
411 1 0.324314 0.461565 0
412 1 0.354299 0.465605 0
442 1 0.338238 0.482641 0
473 1 0.361471 0.489901 0
443 1 0.379069 0.471674 0
444 1 0.386484 0.495975 0
445 1 0.403096 0.477908 0
448 1 0.451402 0.489805 0
416 1 0.419957 0.459282 0
447 1 0.444727 0.465684 0
446 1 0.427721 0.483283 0
420 1 0.468348 0.470341 0
391 1 -0.000574572 0.428963 0
454 1 0.0227165 0.528283 0
453 1 0.0165437 0.503132 0
424 1 0.0398049 0.511284 0
485 1 0.0459584 0.536324 0
455 1 0.0651109 0.519834 0
426 1 0.0826781 0.504211 0
456 1 0.0883014 0.528403 0
486 1 0.0693912 0.544859 0
457 1 0.107335 0.510526 0
458 1 0.110886 0.537178 0
459 1 0.131236 0.517515 0
489 1 0.135517 0.541799 0
460 1 0.155386 0.525209 0
461 1 0.174639 0.50952 0
430 1 0.149235 0.500894 0
462 1 0.179432 0.533383 0
493 1 0.202391 0.541834 0
463 1 0.198385 0.517505 0
434 1 0.218533 0.501377 0
464 1 0.222526 0.527069 0
466 1 0.246337 0.537658 0
465 1 0.24251 0.509342 0
437 1 0.264677 0.520163 0
467 1 0.287452 0.534032 0
438 1 0.304131 0.516719 0
468 1 0.310159 0.543553 0
440 1 0.320999 0.500126 0
469 1 0.327077 0.52642 0
470 1 0.351119 0.533806 0
471 1 0.344633 0.508727 0
472 1 0.369295 0.51511 0
503 1 0.374873 0.540248 0
474 1 0.392828 0.520287 0
505 1 0.40042 0.543926 0
475 1 0.409839 0.50167 0
476 1 0.416942 0.525544 0
477 1 0.434826 0.507466 0
507 1 0.441777 0.5304 0
478 1 0.459307 0.513356 0
480 1 0.46618 0.536659 0
479 1 0.481956 0.51866 0
510 1 0.490557 0.543679 0
483 1 0.00392205 0.545473 0
513 1 0.0278747 0.553014 0
514 1 0.0328839 0.577505 0
482 1 0.00886368 0.569856 0
484 1 0.0511837 0.561792 0
515 1 0.0752126 0.57133 0
545 1 0.0573671 0.588473 0
487 1 0.0921498 0.553499 0
488 1 0.11649 0.560955 0
517 1 0.0995924 0.57859 0
519 1 0.120937 0.591345 0
491 1 0.159471 0.54983 0
490 1 0.14008 0.56537 0
521 1 0.164289 0.573564 0
520 1 0.144932 0.590431 0
492 1 0.183629 0.557534 0
523 1 0.18862 0.582507 0
494 1 0.207335 0.566841 0
495 1 0.22681 0.551488 0
496 1 0.249549 0.562653 0
525 1 0.228925 0.577685 0
497 1 0.268369 0.548351 0
526 1 0.25217 0.588654 0
527 1 0.271912 0.574253 0
498 1 0.291724 0.559826 0
529 1 0.296579 0.585437 0
500 1 0.315127 0.5687 0
499 1 0.33317 0.552165 0
501 1 0.35628 0.558357 0
531 1 0.339775 0.576009 0
533 1 0.365085 0.582545 0
502 1 0.381765 0.564175 0
534 1 0.389585 0.586954 0
504 1 0.406711 0.567887 0
506 1 0.424365 0.550466 0
508 1 0.431896 0.573988 0
509 1 0.448193 0.554351 0
1441 1 0.497706 0.567472 0
539 1 0.456036 0.57929 0
540 1 0.473614 0.560908 0
569 1 0.480723 0.584878 0
512 1 0.0136744 0.593991 0
542 1 0.0176391 0.619491 0
543 1 0.0375624 0.603327 0
544 1 0.041047 0.628558 0
516 1 0.0802979 0.596604 0
546 1 0.060891 0.614235 0
547 1 0.0836756 0.624168 0
518 1 0.10417 0.610357 0
548 1 0.126475 0.623535 0
522 1 0.168303 0.598397 0
549 1 0.148309 0.613649 0
551 1 0.171615 0.623213 0
524 1 0.21096 0.592464 0
553 1 0.191404 0.607847 0
554 1 0.213186 0.618631 0
552 1 0.193284 0.632932 0
555 1 0.23341 0.603186 0
556 1 0.235677 0.629452 0
557 1 0.255246 0.614526 0
528 1 0.275459 0.600357 0
559 1 0.299673 0.610133 0
558 1 0.279673 0.625271 0
530 1 0.320877 0.594898 0
561 1 0.326864 0.621452 0
532 1 0.345769 0.60137 0
562 1 0.355515 0.625087 0
563 1 0.374007 0.605778 0
565 1 0.381853 0.630577 0
536 1 0.397946 0.610763 0
566 1 0.406594 0.636165 0
535 1 0.414071 0.591526 0
537 1 0.439885 0.59754 0
567 1 0.42292 0.616695 0
568 1 0.447298 0.621696 0
538 1 0.464164 0.603644 0
570 1 0.488004 0.608748 0
600 1 0.471983 0.627992 0
1501 1 0.496563 0.632645 0
573 1 0.0201075 0.644209 0
603 1 0.0244881 0.66817 0
572 1 0.000448742 0.660276 0
574 1 0.0438477 0.653897 0
575 1 0.0643354 0.639074 0
605 1 0.065923 0.664305 0
576 1 0.0865025 0.650933 0
604 1 0.0473887 0.678894 0
607 1 0.0879207 0.675491 0
577 1 0.106004 0.638078 0
578 1 0.108795 0.662618 0
579 1 0.129322 0.649324 0
609 1 0.130773 0.674658 0
550 1 0.150422 0.637534 0
581 1 0.173233 0.647393 0
580 1 0.15205 0.661455 0
611 1 0.173908 0.672341 0
583 1 0.21568 0.644062 0
582 1 0.195113 0.657823 0
584 1 0.217149 0.669571 0
587 1 0.258703 0.639202 0
585 1 0.237307 0.655303 0
586 1 0.259742 0.664681 0
615 1 0.23899 0.680614 0
560 1 0.304053 0.636566 0
589 1 0.281267 0.650501 0
588 1 0.282515 0.675323 0
590 1 0.303564 0.662414 0
591 1 0.325178 0.649671 0
593 1 0.349969 0.668108 0
621 1 0.325949 0.675068 0
564 1 0.366149 0.649232 0
594 1 0.376009 0.674453 0
595 1 0.391122 0.655431 0
625 1 0.399915 0.679501 0
596 1 0.416082 0.660271 0
597 1 0.430806 0.641179 0
598 1 0.440455 0.666543 0
599 1 0.455208 0.646035 0
629 1 0.480402 0.651733 0
628 1 0.464899 0.670809 0
630 1 0.488584 0.676084 0
602 1 0.00663854 0.701117 0
632 1 0.000458607 0.724324 0
633 1 0.0277595 0.69205 0
634 1 0.0254309 0.71739 0
635 1 0.0474438 0.704769 0
606 1 0.0687669 0.690581 0
636 1 0.0690955 0.716525 0
637 1 0.0899556 0.701787 0
608 1 0.110206 0.688113 0
638 1 0.112629 0.712558 0
639 1 0.132794 0.699756 0
640 1 0.13435 0.724735 0
667 1 0.0924658 0.727067 0
610 1 0.153348 0.686309 0
641 1 0.155551 0.711142 0
612 1 0.175794 0.696938 0
642 1 0.177394 0.722377 0
613 1 0.195779 0.682667 0
614 1 0.218464 0.696262 0
643 1 0.197643 0.70941 0
645 1 0.219713 0.720241 0
617 1 0.261925 0.689995 0
616 1 0.2404 0.705919 0
647 1 0.26238 0.71677 0
619 1 0.303809 0.687666 0
618 1 0.282567 0.703109 0
620 1 0.305724 0.713884 0
592 1 0.359867 0.692124 0
622 1 0.325567 0.699836 0
653 1 0.345709 0.712361 0
623 1 0.383977 0.698025 0
624 1 0.368781 0.716661 0
655 1 0.39152 0.722779 0
626 1 0.407515 0.704634 0
627 1 0.423758 0.685347 0
657 1 0.44812 0.690212 0
656 1 0.43196 0.710247 0
686 1 0.415948 0.728735 0
658 1 0.456609 0.714174 0
659 1 0.473216 0.695846 0
660 1 0.4805 0.719172 0
1531 1 0.497439 0.700145 0
662 1 0.0124344 0.766057 0
664 1 0.019405 0.742039 0
665 1 0.0458771 0.730039 0
666 1 0.0698984 0.741524 0
695 1 0.040115 0.756444 0
697 1 0.0735742 0.766552 0
668 1 0.093248 0.751741 0
669 1 0.114925 0.738827 0
699 1 0.115845 0.763951 0
670 1 0.136229 0.750168 0
671 1 0.157008 0.737778 0
672 1 0.157955 0.762974 0
673 1 0.178498 0.748329 0
644 1 0.199274 0.73497 0
674 1 0.200778 0.759625 0
675 1 0.221152 0.745373 0
705 1 0.223299 0.76969 0
646 1 0.242752 0.731506 0
677 1 0.243261 0.757576 0
648 1 0.263319 0.742725 0
678 1 0.265758 0.768546 0
649 1 0.283486 0.728003 0
650 1 0.305306 0.739924 0
679 1 0.286082 0.754203 0
681 1 0.30903 0.765889 0
651 1 0.325955 0.726779 0
652 1 0.329639 0.752741 0
683 1 0.356601 0.76024 0
654 1 0.349904 0.735987 0
685 1 0.374076 0.741085 0
715 1 0.399039 0.746945 0
684 1 0.381904 0.763772 0
714 1 0.406659 0.770318 0
687 1 0.440991 0.732795 0
717 1 0.423337 0.751421 0
688 1 0.448038 0.756735 0
689 1 0.465782 0.738636 0
690 1 0.489813 0.743899 0
719 1 0.473302 0.762219 0
1591 1 0.497797 0.768023 0
694 1 0.0296428 0.782863 0
693 1 0.00623446 0.789441 0
723 1 0.0236433 0.806862 0
696 1 0.052322 0.776793 0
725 1 0.0471212 0.80005 0
727 1 0.0735583 0.791746 0
726 1 0.0654114 0.816683 0
728 1 0.0943871 0.806601 0
698 1 0.094547 0.779159 0
700 1 0.116005 0.790743 0
701 1 0.137055 0.776775 0
731 1 0.138576 0.802487 0
703 1 0.180454 0.772761 0
702 1 0.159521 0.788539 0
732 1 0.160363 0.813788 0
733 1 0.182371 0.79837 0
704 1 0.201977 0.785615 0
735 1 0.204591 0.810597 0
706 1 0.225002 0.797158 0
676 1 0.245064 0.782145 0
737 1 0.247255 0.807216 0
707 1 0.267012 0.792829 0
709 1 0.288214 0.779526 0
708 1 0.288591 0.804771 0
710 1 0.31038 0.814958 0
680 1 0.313714 0.789675 0
682 1 0.337586 0.777341 0
711 1 0.345874 0.799869 0
713 1 0.36482 0.782998 0
712 1 0.374355 0.805951 0
743 1 0.389522 0.787529 0
745 1 0.398613 0.811518 0
716 1 0.431274 0.774921 0
747 1 0.440309 0.798438 0
746 1 0.414622 0.793109 0
775 1 0.423571 0.816158 0
718 1 0.456092 0.780244 0
720 1 0.481611 0.786385 0
749 1 0.465031 0.803464 0
1621 1 0.489188 0.810519 0
751 1 0.0175167 0.830638 0
752 1 0.0113401 0.854441 0
753 1 0.0357559 0.848765 0
722 1 0.0415817 0.824474 0
724 1 0.0588563 0.841532 0
755 1 0.0756512 0.860367 0
757 1 0.0817972 0.835364 0
729 1 0.117636 0.816302 0
756 1 0.0992027 0.852069 0
759 1 0.12074 0.842583 0
730 1 0.14041 0.827742 0
761 1 0.161484 0.838579 0
760 1 0.141496 0.855504 0
763 1 0.182259 0.824265 0
762 1 0.18386 0.850056 0
734 1 0.20502 0.836065 0
764 1 0.205869 0.862131 0
736 1 0.224997 0.822952 0
765 1 0.226768 0.847934 0
738 1 0.269132 0.819234 0
767 1 0.248991 0.832998 0
766 1 0.248942 0.858181 0
768 1 0.270974 0.846586 0
739 1 0.29044 0.830395 0
769 1 0.294847 0.855667 0
740 1 0.313515 0.838626 0
741 1 0.33384 0.821318 0
742 1 0.358131 0.82494 0
771 1 0.341191 0.844143 0
770 1 0.32376 0.861615 0
773 1 0.365898 0.848476 0
744 1 0.382686 0.830383 0
803 1 0.390211 0.854079 0
774 1 0.407128 0.834399 0
748 1 0.44869 0.821754 0
777 1 0.430785 0.839948 0
776 1 0.414838 0.858293 0
779 1 0.455535 0.84576 0
1651 1 0.497164 0.833462 0
750 1 0.471627 0.827382 0
780 1 0.480052 0.851261 0
783 1 0.0288264 0.873265 0
782 1 0.00523128 0.878481 0
813 1 0.022607 0.897855 0
784 1 0.0468071 0.890711 0
754 1 0.0524367 0.866088 0
785 1 0.070776 0.884234 0
786 1 0.0892307 0.90075 0
815 1 0.0641456 0.908638 0
758 1 0.118615 0.868032 0
787 1 0.0947716 0.876094 0
788 1 0.112391 0.892788 0
789 1 0.137257 0.885199 0
791 1 0.161523 0.880901 0
790 1 0.156513 0.904786 0
823 1 0.180324 0.898595 0
792 1 0.185069 0.874658 0
793 1 0.204057 0.890843 0
794 1 0.222121 0.910896 0
795 1 0.228118 0.874421 0
796 1 0.253054 0.882012 0
827 1 0.269641 0.899191 0
825 1 0.246438 0.906499 0
797 1 0.281251 0.876047 0
799 1 0.306208 0.878891 0
798 1 0.292917 0.899325 0
829 1 0.315717 0.905064 0
800 1 0.332145 0.886112 0
801 1 0.349163 0.866891 0
802 1 0.35724 0.890868 0
831 1 0.340549 0.910098 0
772 1 0.373371 0.87232 0
805 1 0.399235 0.877079 0
804 1 0.382599 0.894924 0
806 1 0.405826 0.901413 0
778 1 0.439192 0.863097 0
807 1 0.422708 0.883291 0
808 1 0.446054 0.887525 0
837 1 0.431308 0.906419 0
809 1 0.463879 0.869535 0
1681 1 0.489285 0.875028 0
810 1 0.472317 0.892793 0
1711 1 0.496748 0.898674 0
842 1 0.0106175 0.945729 0
843 1 0.0158503 0.921522 0
844 1 0.0340799 0.938787 0
814 1 0.0402359 0.914264 0
816 1 0.0826201 0.925478 0
845 1 0.0577497 0.931764 0
846 1 0.0763703 0.949155 0
819 1 0.131107 0.909922 0
817 1 0.107476 0.917401 0
818 1 0.125394 0.935884 0
847 1 0.101458 0.942152 0
821 1 0.174358 0.922818 0
820 1 0.149415 0.928227 0
851 1 0.16566 0.946728 0
824 1 0.198371 0.917085 0
822 1 0.190283 0.941681 0
853 1 0.21561 0.936761 0
855 1 0.23981 0.929723 0
826 1 0.265235 0.924222 0
856 1 0.258012 0.947904 0
854 1 0.23393 0.954876 0
828 1 0.299556 0.924458 0
857 1 0.282989 0.942175 0
859 1 0.306943 0.947661 0
830 1 0.324096 0.928912 0
832 1 0.348752 0.933281 0
860 1 0.331636 0.951762 0
833 1 0.365701 0.9145 0
863 1 0.373562 0.938182 0
834 1 0.38988 0.91939 0
865 1 0.397677 0.943475 0
835 1 0.414672 0.925905 0
838 1 0.439297 0.930209 0
836 1 0.42323 0.948844 0
839 1 0.455729 0.911092 0
1741 1 0.487877 0.940743 0
840 1 0.479736 0.917254 0
869 1 0.464097 0.935433 0
872 1 0.0226104 0.988155 0
873 1 0.0289252 0.963577 0
871 1 0.00464239 0.970268 0
874 1 0.0467892 0.980282 0
875 1 0.0530672 0.956251 0
876 1 0.0717512 0.973561 0
7 1 0.0882378 0.991397 0
5 1 0.0638413 0.997922 0
877 1 0.0950243 0.965943 0
848 1 0.118141 0.959609 0
878 1 0.111942 0.984159 0
879 1 0.136211 0.97895 0
849 1 0.142512 0.955304 0
850 1 0.16057 0.972224 0
11 1 0.178181 0.990214 0
881 1 0.154048 0.996546 0
852 1 0.184055 0.965868 0
882 1 0.201677 0.984988 0
883 1 0.207975 0.960562 0
884 1 0.226312 0.978334 0
885 1 0.251746 0.971499 0
17 1 0.267885 0.989806 0
886 1 0.243807 0.995681 0
887 1 0.275402 0.966883 0
858 1 0.313754 0.970726 0
888 1 0.293677 0.986663 0
861 1 0.355845 0.957461 0
889 1 0.323233 0.992985 0
891 1 0.339038 0.974962 0
890 1 0.347422 0.998979 0
862 1 0.364168 0.9808 0
864 1 0.380806 0.962444 0
893 1 0.389417 0.985054 0
895 1 0.405937 0.966822 0
867 1 0.447961 0.954027 0
897 1 0.439303 0.995624 0
896 1 0.414281 0.990283 0
866 1 0.431557 0.97285 0
1771 1 0.49646 0.96485 0
868 1 0.455294 0.977109 0
870 1 0.472211 0.959249 0
899 1 0.479428 0.9826 0
902 1 0.53554 0.0192101 0
931 1 0.519273 0.0368677 0
901 1 0.511459 0.0135351 0
933 1 0.544173 0.0426086 0
904 1 0.56052 0.02412 0
906 1 0.577536 0.00616427 0
935 1 0.585763 0.0302985 0
905 1 0.552274 0.000594422 0
908 1 0.60118 0.0110785 0
937 1 0.609277 0.0358677 0
939 1 0.625953 0.0167132 0
938 1 0.634409 0.0407472 0
940 1 0.651556 0.0233388 0
971 1 0.670494 0.0392629 0
942 1 0.676213 0.014018 0
944 1 0.694902 0.0314897 0
945 1 0.719005 0.0249012 0
943 1 0.700525 0.00741468 0
947 1 0.743677 0.0190977 0
948 1 0.762318 0.0375533 0
918 1 0.767783 0.0135634 0
946 1 0.737595 0.0427882 0
914 1 0.725995 0.000491684 0
919 1 0.79211 0.00723138 0
949 1 0.786096 0.0307219 0
920 1 0.810287 0.024758 0
951 1 0.834086 0.0168432 0
952 1 0.852215 0.0354802 0
922 1 0.859137 0.0113021 0
950 1 0.82708 0.0419878 0
953 1 0.876825 0.0293681 0
955 1 0.900862 0.0219069 0
924 1 0.883788 0.00416186 0
954 1 0.895538 0.0451926 0
926 1 0.924543 0.0147805 0
928 1 0.950334 0.00863189 0
957 1 0.943171 0.0325614 0
956 1 0.919346 0.0389935 0
930 1 0.992175 0.0186167 0
959 1 0.968062 0.0265662 0
929 1 0.97494 0.00171303 0
960 1 0.98555 0.0433666 0
932 1 0.527431 0.0606143 0
962 1 0.534504 0.0847493 0
961 1 0.510727 0.0794273 0
60 1 0.502467 0.0555044 0
934 1 0.56805 0.0474309 0
963 1 0.552211 0.0667601 0
965 1 0.575865 0.0715066 0
964 1 0.558853 0.0904969 0
936 1 0.592035 0.0537343 0
966 1 0.600057 0.0773476 0
967 1 0.617026 0.0591174 0
968 1 0.62324 0.0823565 0
969 1 0.643085 0.0672059 0
970 1 0.667334 0.0632116 0
999 1 0.659284 0.0863403 0
972 1 0.684274 0.081892 0
975 1 0.713887 0.050118 0
973 1 0.690992 0.0567933 0
1003 1 0.707784 0.0750436 0
974 1 0.731237 0.0675446 0
976 1 0.754842 0.0614081 0
1005 1 0.749043 0.0853951 0
1007 1 0.773035 0.0801396 0
979 1 0.802775 0.0495391 0
977 1 0.779543 0.0558427 0
978 1 0.797677 0.0740248 0
1009 1 0.8155 0.0917502 0
980 1 0.822262 0.0678444 0
981 1 0.846703 0.0599607 0
1011 1 0.839427 0.0845517 0
982 1 0.863787 0.0773339 0
983 1 0.871633 0.0536169 0
984 1 0.889509 0.0698568 0
1015 1 0.907259 0.0875172 0
985 1 0.913328 0.0628524 0
986 1 0.932598 0.081623 0
987 1 0.937025 0.0568586 0
988 1 0.955516 0.074723 0
958 1 0.96126 0.0507487 0
989 1 0.979136 0.0680951 0
990 1 0.997173 0.0861774 0
991 1 0.518032 0.103197 0
992 1 0.524892 0.127638 0
993 1 0.542764 0.108276 0
994 1 0.566098 0.114133 0
995 1 0.582556 0.0963625 0
1023 1 0.549291 0.13282 0
996 1 0.590326 0.119481 0
997 1 0.607203 0.101311 0
1027 1 0.615078 0.125855 0
998 1 0.63162 0.107181 0
1000 1 0.655289 0.112089 0
1001 1 0.678119 0.105349 0
1029 1 0.639308 0.13154 0
1004 1 0.725933 0.092031 0
1031 1 0.694927 0.123131 0
1002 1 0.702063 0.0988424 0
1033 1 0.720449 0.118703 0
1035 1 0.742884 0.110156 0
1006 1 0.766407 0.10477 0
1036 1 0.761171 0.130126 0
1034 1 0.737933 0.135798 0
1008 1 0.79168 0.0987654 0
1037 1 0.784889 0.122139 0
1039 1 0.810018 0.116093 0
1040 1 0.827819 0.132785 0
1010 1 0.834403 0.10927 0
1012 1 0.857492 0.1022 0
1041 1 0.851932 0.126147 0
1043 1 0.875635 0.118882 0
1013 1 0.882406 0.0948157 0
1014 1 0.901144 0.111849 0
1016 1 0.91798 0.129235 0
1017 1 0.924912 0.105598 0
1018 1 0.948943 0.0997244 0
1047 1 0.942239 0.123792 0
1019 1 0.972267 0.0920963 0
1020 1 0.99062 0.110188 0
1049 1 0.965981 0.116671 0
1050 1 0.983263 0.133897 0
1021 1 0.509276 0.145907 0
1022 1 0.532851 0.152452 0
1053 1 0.539987 0.175642 0
1051 1 0.515696 0.170046 0
1025 1 0.573739 0.1377 0
1024 1 0.55604 0.156335 0
1055 1 0.580056 0.163149 0
1054 1 0.563753 0.181373 0
1026 1 0.597859 0.144663 0
1028 1 0.621491 0.149467 0
1057 1 0.605866 0.167462 0
1058 1 0.63115 0.173091 0
1030 1 0.670398 0.133691 0
1059 1 0.647283 0.154895 0
1061 1 0.671547 0.161621 0
1060 1 0.65506 0.178994 0
1032 1 0.691229 0.147043 0
1063 1 0.714676 0.142881 0
1062 1 0.708682 0.167513 0
1064 1 0.732515 0.161061 0
1065 1 0.756283 0.154706 0
1095 1 0.75079 0.180236 0
1066 1 0.773733 0.171908 0
1038 1 0.804224 0.139032 0
1067 1 0.780124 0.147348 0
1068 1 0.798148 0.164275 0
1069 1 0.821437 0.156738 0
1071 1 0.845861 0.150015 0
1070 1 0.839929 0.173668 0
1072 1 0.863722 0.167629 0
1044 1 0.89409 0.136025 0
1042 1 0.870331 0.143043 0
1073 1 0.887926 0.160037 0
1074 1 0.905118 0.177952 0
1045 1 0.912247 0.154474 0
1075 1 0.929992 0.172159 0
1046 1 0.935758 0.147583 0
1077 1 0.953221 0.16594 0
1048 1 0.959467 0.141791 0
1079 1 0.977917 0.158348 0
1080 1 0.995109 0.175052 0
1052 1 0.522271 0.193542 0
1082 1 0.529183 0.218394 0
1081 1 0.505152 0.211512 0
1083 1 0.546326 0.199399 0
1085 1 0.572593 0.205266 0
1084 1 0.553975 0.222928 0
1056 1 0.589231 0.186571 0
1086 1 0.59722 0.210657 0
1087 1 0.613513 0.191153 0
1088 1 0.621738 0.215852 0
1089 1 0.638032 0.196586 0
1090 1 0.662427 0.202727 0
1119 1 0.64583 0.221711 0
1091 1 0.682948 0.185007 0
1092 1 0.688309 0.209334 0
1093 1 0.706997 0.192219 0
1123 1 0.715923 0.215648 0
1094 1 0.732605 0.196933 0
1096 1 0.755242 0.204636 0
1125 1 0.738268 0.223029 0
1126 1 0.762541 0.228671 0
1099 1 0.815615 0.181827 0
1097 1 0.793552 0.190705 0
1127 1 0.778929 0.210698 0
1098 1 0.803717 0.215566 0
1129 1 0.829007 0.221751 0
1100 1 0.834301 0.198344 0
1101 1 0.858053 0.190934 0
1131 1 0.852497 0.215639 0
1102 1 0.876613 0.207861 0
1103 1 0.881711 0.184458 0
1104 1 0.900405 0.202209 0
1135 1 0.918567 0.220633 0
1105 1 0.924945 0.195627 0
1076 1 0.948959 0.191173 0
1107 1 0.969683 0.214628 0
1078 1 0.971615 0.182732 0
1109 1 0.990511 0.199261 0
1110 1 0.995353 0.223004 0
1111 1 0.512739 0.23738 0
1113 1 0.538277 0.241695 0
1112 1 0.520287 0.26025 0
1143 1 0.544517 0.265837 0
1115 1 0.580804 0.228885 0
1114 1 0.562697 0.246932 0
1116 1 0.587876 0.253157 0
1145 1 0.569176 0.271028 0
1117 1 0.605387 0.234165 0
1118 1 0.629311 0.239575 0
1147 1 0.612235 0.258106 0
1149 1 0.6371 0.262962 0
1121 1 0.67025 0.226723 0
1120 1 0.654091 0.245809 0
1151 1 0.678192 0.250581 0
1150 1 0.661094 0.269526 0
1122 1 0.69579 0.232835 0
1124 1 0.720683 0.240475 0
1153 1 0.702141 0.258019 0
1154 1 0.727924 0.264052 0
1155 1 0.745386 0.247381 0
1156 1 0.752663 0.271399 0
1157 1 0.769476 0.253698 0
1128 1 0.788074 0.234654 0
1159 1 0.8115 0.240737 0
1158 1 0.79444 0.259017 0
1160 1 0.818841 0.264993 0
1130 1 0.836272 0.24648 0
1191 1 0.843259 0.271726 0
1161 1 0.860094 0.255695 0
1132 1 0.870369 0.232931 0
1133 1 0.893563 0.225809 0
1163 1 0.889238 0.260845 0
1134 1 0.909558 0.244222 0