ITEM: TIMESTEP
370000
ITEM: NUMBER OF ATOMS
1800
ITEM: BOX BOUNDS pp pp pp
-1.3717782866687813e+01 1.7871778286668973e+02
1.1826529217466231e+00 1.6381734707825530e+02
0.0000000000000000e+00 5.5000000000000000e+00
ITEM: ATOMS id type xs ys zs
929 1 0.0273767 0.00673925 0
959 1 0.0221082 0.0319988 0
928 1 0.00768627 0.0139123 0
957 1 0.00238843 0.0397056 0
930 1 0.0422616 0.0257635 0
31 1 0.0575761 0.0422741 0
2 1 0.0617959 0.0172998 0
33 1 0.0776989 0.0343234 0
3 1 0.0817966 0.0103365 0
4 1 0.0976984 0.0262499 0
5 1 0.102302 0.00190733 0
35 1 0.113275 0.0432181 0
6 1 0.117713 0.0184867 0
37 1 0.133513 0.0356128 0
8 1 0.137987 0.0117174 0
39 1 0.154062 0.0283195 0
880 1 0.158156 0.00444152 0
9 1 0.173248 0.0215041 0
40 1 0.188167 0.0392188 0
10 1 0.19325 0.0151605 0
41 1 0.208417 0.0339398 0
12 1 0.213295 0.0090742 0
14 1 0.228846 0.0270129 0
13 1 0.233553 0.00375851 0
15 1 0.248946 0.0193609 0
46 1 0.269105 0.017762 0
45 1 0.244218 0.043798 0
77 1 0.273989 0.0423172 0
47 1 0.288767 0.0229062 0
19 1 0.302988 0.00522762 0
49 1 0.309043 0.0298877 0
20 1 0.323968 0.0118147 0
51 1 0.329484 0.0364141 0
21 1 0.343763 0.0183374 0
23 1 0.364245 0.0253647 0
22 1 0.349598 0.0431594 0
894 1 0.378488 0.00689538 0
24 1 0.385144 0.0320869 0
892 1 0.35821 6.33168e-05 0
25 1 0.399142 0.0123335 0
26 1 0.405524 0.0390461 0
27 1 0.418859 0.0203318 0
898 1 0.434002 0.00271608 0
29 1 0.440276 0.0265337 0
900 1 0.454947 0.00850168 0
30 1 0.459992 0.0346191 0
28 1 0.425263 0.0447004 0
902 1 0.494782 0.0232027 0
901 1 0.474471 0.0153452 0
931 1 0.479968 0.0400918 0
988 1 0.0121187 0.0800976 0
960 1 0.0377459 0.049276 0
989 1 0.0330691 0.0739417 0
958 1 0.0176988 0.0560334 0
61 1 0.0530486 0.0668525 0
62 1 0.0677135 0.084337 0
32 1 0.0736107 0.0589207 0
990 1 0.0475526 0.0913347 0
63 1 0.0876114 0.0765522 0
34 1 0.0934791 0.0503303 0
65 1 0.108441 0.068381 0
66 1 0.123514 0.0851443 0
36 1 0.127693 0.0608435 0
67 1 0.143345 0.0772608 0
38 1 0.147741 0.0537676 0
69 1 0.168271 0.0463584 0
68 1 0.162623 0.0708962 0
71 1 0.183112 0.0630463 0
70 1 0.178328 0.0875013 0
72 1 0.198056 0.0810348 0
42 1 0.202704 0.0569677 0
43 1 0.224011 0.0503751 0
73 1 0.217864 0.0734395 0
44 1 0.239039 0.0674914 0
74 1 0.263433 0.084919 0
75 1 0.259205 0.0595949 0
76 1 0.27872 0.0673775 0
48 1 0.294101 0.0482991 0
79 1 0.299656 0.073095 0
50 1 0.314753 0.0555162 0
81 1 0.319436 0.079979 0
52 1 0.334716 0.0614493 0
82 1 0.339554 0.0868035 0
83 1 0.354905 0.0681133 0
53 1 0.370508 0.0505708 0
54 1 0.376108 0.0749203 0
55 1 0.390798 0.0563464 0
56 1 0.396413 0.0819061 0
57 1 0.410568 0.063603 0
87 1 0.416387 0.0884388 0
58 1 0.430256 0.0696195 0
59 1 0.444947 0.052697 0
89 1 0.450996 0.0765854 0
932 1 0.485617 0.0641971 0
60 1 0.465331 0.0582581 0
961 1 0.471038 0.0830891 0
962 1 0.492022 0.0880286 0
1047 1 0.00299374 0.1287 0
1019 1 0.027228 0.0973183 0
1049 1 0.0224984 0.122362 0
1018 1 0.00730353 0.104641 0
1020 1 0.0426212 0.115411 0
121 1 0.0580904 0.133812 0
91 1 0.0626199 0.10861 0
92 1 0.0777947 0.125935 0
93 1 0.0831461 0.100554 0
64 1 0.102607 0.0933587 0
94 1 0.0978401 0.118176 0
125 1 0.112895 0.134884 0
95 1 0.118352 0.108996 0
96 1 0.132679 0.126521 0
97 1 0.137983 0.102247 0
98 1 0.152454 0.120365 0
99 1 0.158018 0.0950785 0
100 1 0.172209 0.112481 0
130 1 0.188777 0.130265 0
129 1 0.168223 0.13736 0
101 1 0.192865 0.105698 0
102 1 0.208587 0.121849 0
103 1 0.213333 0.0981314 0
105 1 0.232806 0.0917376 0
104 1 0.229344 0.117362 0
106 1 0.249022 0.105098 0
137 1 0.254428 0.128943 0
107 1 0.268882 0.11062 0
78 1 0.283795 0.09142 0
109 1 0.289995 0.11664 0
108 1 0.275737 0.134459 0
80 1 0.304997 0.0984636 0
110 1 0.310482 0.122167 0
111 1 0.32533 0.104896 0
141 1 0.330871 0.129285 0
113 1 0.345826 0.110464 0
84 1 0.361334 0.0936019 0
112 1 0.36602 0.118129 0
85 1 0.381702 0.100141 0
143 1 0.351289 0.135659 0
115 1 0.386233 0.125243 0
86 1 0.401911 0.106194 0
116 1 0.40673 0.131036 0
117 1 0.422263 0.113189 0
88 1 0.436417 0.0948819 0
119 1 0.441866 0.11878 0
90 1 0.457373 0.102013 0
118 1 0.427516 0.137887 0
120 1 0.462497 0.125876 0
991 1 0.477651 0.107923 0
992 1 0.482728 0.13257 0
993 1 0.49842 0.113949 0
1050 1 0.0378989 0.140581 0
1079 1 0.0327856 0.165479 0
1048 1 0.0176167 0.147554 0
1077 1 0.0127277 0.172057 0
151 1 0.0527758 0.158035 0
122 1 0.0729728 0.151025 0
152 1 0.0682805 0.175014 0
153 1 0.0878221 0.168316 0
123 1 0.0927502 0.143346 0
124 1 0.107793 0.159844 0
155 1 0.123883 0.174787 0
126 1 0.128653 0.150809 0
157 1 0.143628 0.169608 0
127 1 0.148617 0.145428 0
128 1 0.164364 0.162582 0
159 1 0.183827 0.153662 0
132 1 0.190372 0.176526 0
131 1 0.204608 0.157032 0
133 1 0.220442 0.140519 0
134 1 0.224718 0.164154 0
135 1 0.240548 0.147537 0
165 1 0.24569 0.171163 0
136 1 0.261098 0.152867 0
167 1 0.266821 0.17648 0
138 1 0.281469 0.158892 0
139 1 0.296002 0.14088 0
169 1 0.301598 0.164944 0
140 1 0.316936 0.147017 0
171 1 0.321145 0.171617 0
142 1 0.336389 0.154221 0
172 1 0.341643 0.17799 0
173 1 0.356141 0.160276 0
114 1 0.371757 0.14277 0
144 1 0.376601 0.167427 0
145 1 0.392088 0.149528 0
146 1 0.397841 0.172967 0
147 1 0.412687 0.154477 0
177 1 0.417593 0.17952 0
148 1 0.432473 0.162156 0
149 1 0.447763 0.144223 0
150 1 0.453204 0.168395 0
1051 1 0.473135 0.174157 0
1021 1 0.467254 0.150025 0
1022 1 0.488398 0.155811 0
1053 1 0.493994 0.181291 0
1106 1 0.00228497 0.222659 0
1076 1 0.00809301 0.197128 0
1107 1 0.0223259 0.215178 0
1078 1 0.0282616 0.191291 0
1080 1 0.0482061 0.183414 0
1109 1 0.0428753 0.209052 0
181 1 0.0642755 0.198686 0
182 1 0.0693395 0.222779 0
183 1 0.0842857 0.204417 0
154 1 0.103199 0.18623 0
185 1 0.104766 0.213229 0
156 1 0.120226 0.198324 0
186 1 0.124862 0.221453 0
158 1 0.141135 0.202873 0
160 1 0.157522 0.187203 0
189 1 0.160615 0.210931 0
161 1 0.17647 0.194331 0
191 1 0.181096 0.21857 0
163 1 0.211118 0.182351 0
162 1 0.196558 0.200997 0
192 1 0.201285 0.224983 0
193 1 0.216132 0.207239 0
164 1 0.230626 0.188575 0
195 1 0.236441 0.213277 0
166 1 0.251171 0.195085 0
196 1 0.25672 0.21976 0
168 1 0.286356 0.182431 0
197 1 0.272084 0.201611 0
199 1 0.291597 0.206571 0
198 1 0.277501 0.225858 0
170 1 0.307032 0.188855 0
200 1 0.311369 0.214774 0
201 1 0.326894 0.19635 0
202 1 0.332247 0.221543 0
174 1 0.362164 0.184962 0
203 1 0.347855 0.20272 0
204 1 0.367941 0.20907 0
175 1 0.382589 0.191162 0
205 1 0.389035 0.215931 0
176 1 0.403294 0.197114 0
207 1 0.409429 0.222795 0
179 1 0.43846 0.186206 0
178 1 0.424028 0.203485 0
209 1 0.443329 0.211253 0
180 1 0.458213 0.192115 0
1081 1 0.463347 0.216932 0
1052 1 0.478614 0.199218 0
1082 1 0.484203 0.222883 0
1083 1 0.498845 0.205019 0
1110 1 0.034165 0.234046 0
1108 1 0.0167519 0.24911 0
1137 1 0.00364008 0.268871 0
1140 1 0.0391507 0.258493 0
211 1 0.0548661 0.240523 0
212 1 0.059261 0.265995 0
213 1 0.0743022 0.247551 0
184 1 0.0895475 0.230074 0
214 1 0.0942714 0.254843 0
215 1 0.109782 0.238484 0
216 1 0.115211 0.263016 0
243 1 0.0793854 0.272043 0
187 1 0.145756 0.227643 0
217 1 0.129507 0.245518 0
218 1 0.135314 0.269825 0
188 1 0.150439 0.25166 0
190 1 0.165929 0.234707 0
220 1 0.17111 0.259588 0
221 1 0.187089 0.24215 0
222 1 0.191717 0.266581 0
223 1 0.206743 0.248825 0
194 1 0.221664 0.231596 0
224 1 0.22745 0.255554 0
225 1 0.241918 0.237585 0
226 1 0.247859 0.261665 0
227 1 0.262156 0.243554 0
257 1 0.267706 0.267971 0
228 1 0.281643 0.25039 0
229 1 0.297161 0.232459 0
230 1 0.302428 0.256823 0
231 1 0.316975 0.238398 0
261 1 0.323183 0.262732 0
232 1 0.338665 0.244859 0
263 1 0.344171 0.268789 0
233 1 0.353098 0.226817 0
234 1 0.35939 0.252366 0
235 1 0.373872 0.233205 0
265 1 0.378513 0.258891 0
206 1 0.394104 0.240578 0
236 1 0.398907 0.265425 0
237 1 0.414046 0.247011 0
238 1 0.419858 0.271181 0
208 1 0.428854 0.228408 0
239 1 0.434297 0.25291 0
210 1 0.44898 0.235534 0
240 1 0.454653 0.259028 0
1111 1 0.46939 0.24121 0
1112 1 0.474716 0.265388 0
1113 1 0.490435 0.24776 0
1142 1 0.495667 0.271925 0
1138 1 0.00868271 0.293076 0
1139 1 0.0237561 0.275765 0
1169 1 0.0285825 0.30012 0
1168 1 0.0135104 0.318562 0
241 1 0.0441895 0.28219 0
271 1 0.0486674 0.307189 0
242 1 0.0642566 0.289884 0
273 1 0.069882 0.314348 0
244 1 0.0838853 0.29594 0
245 1 0.0995804 0.279359 0
246 1 0.104874 0.303579 0
247 1 0.120361 0.286441 0
248 1 0.125737 0.309885 0
249 1 0.141078 0.294255 0
219 1 0.156368 0.276737 0
250 1 0.16136 0.300662 0
251 1 0.176495 0.283387 0
281 1 0.181921 0.307357 0
253 1 0.212854 0.272891 0
252 1 0.197224 0.290391 0
283 1 0.20248 0.314093 0
254 1 0.217524 0.297138 0
255 1 0.232706 0.279537 0
285 1 0.237673 0.304135 0
256 1 0.252997 0.285755 0
287 1 0.258198 0.31009 0
259 1 0.287539 0.274128 0
258 1 0.273633 0.292286 0
289 1 0.29327 0.298724 0
288 1 0.278778 0.316748 0
260 1 0.308074 0.28126 0
291 1 0.313434 0.305503 0
262 1 0.328633 0.287469 0
292 1 0.333433 0.311864 0
293 1 0.348724 0.293681 0
264 1 0.363495 0.277003 0
295 1 0.369932 0.300439 0
266 1 0.384448 0.282979 0
297 1 0.38979 0.306468 0
267 1 0.404728 0.28866 0
298 1 0.41 0.312985 0
268 1 0.424808 0.295732 0
269 1 0.440633 0.277138 0
270 1 0.444603 0.302631 0
1141 1 0.460446 0.283854 0
300 1 0.465705 0.308504 0
1171 1 0.480775 0.290814 0
1172 1 0.486237 0.315099 0
1170 1 0.0334228 0.325288 0
1199 1 0.0186142 0.34187 0
1228 1 0.00362059 0.360905 0
1229 1 0.0396851 0.349054 0
1200 1 0.0545321 0.331484 0
301 1 0.0602726 0.356073 0
272 1 0.0756071 0.339042 0
275 1 0.0903902 0.320755 0
274 1 0.0955379 0.344536 0
276 1 0.111307 0.326913 0
303 1 0.0807516 0.363722 0
305 1 0.116576 0.351433 0
279 1 0.147077 0.318147 0
277 1 0.132172 0.335139 0
278 1 0.152204 0.342751 0
307 1 0.137069 0.35892 0
280 1 0.167366 0.325513 0
311 1 0.172827 0.34931 0
282 1 0.187805 0.331839 0
312 1 0.192867 0.35641 0
313 1 0.207643 0.338536 0
284 1 0.222313 0.321327 0
315 1 0.228007 0.345822 0
286 1 0.242429 0.327835 0
316 1 0.248627 0.351765 0
317 1 0.26297 0.334622 0
318 1 0.269342 0.358551 0
319 1 0.283529 0.340205 0
290 1 0.298773 0.322958 0
320 1 0.304126 0.347004 0
321 1 0.319275 0.329368 0
322 1 0.324218 0.353794 0
323 1 0.339509 0.335985 0
324 1 0.344351 0.360589 0
294 1 0.354432 0.317904 0
325 1 0.359028 0.342767 0
296 1 0.374682 0.325154 0
326 1 0.380417 0.348441 0
327 1 0.395639 0.331024 0
328 1 0.400076 0.356361 0
329 1 0.415351 0.337773 0
358 1 0.419997 0.362694 0
299 1 0.430119 0.319412 0
359 1 0.434896 0.344996 0
330 1 0.449665 0.327396 0
360 1 0.455659 0.351385 0
1202 1 0.491564 0.33943 0
1201 1 0.470671 0.333485 0
1231 1 0.477315 0.3578 0
1259 1 0.0254067 0.366881 0
1260 1 0.0305432 0.39136 0
1258 1 0.00941551 0.384917 0
1289 1 0.0151139 0.409683 0
1230 1 0.0451045 0.373973 0
331 1 0.0511016 0.398717 0
302 1 0.0657785 0.381849 0
332 1 0.0711359 0.405703 0
333 1 0.0861708 0.38808 0
304 1 0.102107 0.369641 0
335 1 0.10654 0.395213 0
306 1 0.121527 0.377007 0
337 1 0.126882 0.401714 0
308 1 0.142473 0.383724 0
309 1 0.158227 0.367381 0
339 1 0.162898 0.390994 0
310 1 0.177866 0.374329 0
341 1 0.182938 0.398434 0
314 1 0.213078 0.362653 0
343 1 0.198172 0.381227 0
342 1 0.204053 0.40497 0
344 1 0.218556 0.387218 0
345 1 0.233834 0.370066 0
346 1 0.239444 0.393608 0
347 1 0.254062 0.376145 0
377 1 0.259844 0.40105 0
349 1 0.289009 0.365859 0
348 1 0.274279 0.382493 0
350 1 0.294927 0.389242 0
378 1 0.279856 0.406784 0
351 1 0.309701 0.372299 0
381 1 0.314894 0.39671 0
353 1 0.329808 0.378183 0
352 1 0.335094 0.402675 0
354 1 0.350588 0.385261 0
355 1 0.365517 0.366587 0
356 1 0.370445 0.391736 0
357 1 0.384929 0.374358 0
386 1 0.390336 0.398009 0
387 1 0.405258 0.38082 0
388 1 0.410737 0.404056 0
389 1 0.42613 0.386981 0
1232 1 0.440303 0.368459 0
1261 1 0.446502 0.392423 0
1233 1 0.497217 0.364507 0
1262 1 0.461475 0.374779 0
1293 1 0.467541 0.400298 0
1263 1 0.482411 0.382703 0
1294 1 0.487745 0.405836 0
1319 1 0.0201459 0.434749 0
1290 1 0.0354338 0.416897 0
1318 1 0.00548043 0.451635 0
391 1 0.0404481 0.441464 0
361 1 0.0563065 0.424254 0
362 1 0.0610009 0.448702 0
363 1 0.0765699 0.430012 0
334 1 0.0915835 0.412998 0
365 1 0.0964452 0.437566 0
336 1 0.112558 0.419889 0
338 1 0.147459 0.408812 0
366 1 0.117764 0.444338 0
367 1 0.132398 0.427031 0
369 1 0.152861 0.433146 0
368 1 0.137438 0.45058 0
340 1 0.168364 0.415677 0
370 1 0.173458 0.440265 0
371 1 0.189075 0.422802 0
401 1 0.19395 0.447306 0
372 1 0.209032 0.429878 0
373 1 0.224256 0.41117 0
374 1 0.228614 0.435957 0
375 1 0.244382 0.418614 0
405 1 0.248886 0.44324 0
376 1 0.264573 0.426512 0
407 1 0.26938 0.450685 0
409 1 0.2848 0.432665 0
379 1 0.299444 0.413811 0
380 1 0.305233 0.437917 0
382 1 0.320107 0.420721 0
413 1 0.324636 0.445371 0
383 1 0.339952 0.426788 0
412 1 0.34507 0.451094 0
385 1 0.354889 0.409698 0
414 1 0.360597 0.434428 0
384 1 0.375564 0.41651 0
415 1 0.380297 0.440274 0
417 1 0.396349 0.421676 0
416 1 0.400534 0.446341 0
418 1 0.416554 0.428503 0
447 1 0.420793 0.453744 0
419 1 0.431669 0.410073 0
390 1 0.436429 0.434619 0
1291 1 0.451649 0.416313 0
1321 1 0.45658 0.44021 0
1323 1 0.493097 0.430364 0
1292 1 0.472434 0.423976 0
1322 1 0.476646 0.448234 0
1320 1 0.026109 0.459435 0
421 1 0.031089 0.48431 0
1349 1 0.0101182 0.476806 0
392 1 0.0460042 0.465956 0
422 1 0.051749 0.490121 0
393 1 0.0668545 0.473154 0
423 1 0.0722272 0.496976 0
364 1 0.0817976 0.454512 0
394 1 0.0867953 0.479115 0
395 1 0.102656 0.462262 0
396 1 0.107229 0.486385 0
397 1 0.122899 0.468205 0
427 1 0.127825 0.493827 0
398 1 0.14279 0.474958 0
399 1 0.157668 0.456887 0
429 1 0.163057 0.482562 0
400 1 0.178243 0.464076 0
431 1 0.183013 0.488231 0
403 1 0.214428 0.454266 0
402 1 0.198912 0.471644 0
432 1 0.203639 0.496314 0
433 1 0.219134 0.478725 0
404 1 0.234713 0.461245 0
435 1 0.238857 0.485591 0
406 1 0.254749 0.468465 0
436 1 0.259596 0.492595 0
408 1 0.275099 0.474343 0
410 1 0.289933 0.456472 0
441 1 0.295698 0.481314 0
439 1 0.280126 0.500108 0
411 1 0.309871 0.462242 0
440 1 0.315103 0.487534 0
442 1 0.330237 0.469621 0
471 1 0.335404 0.49404 0
473 1 0.350733 0.476205 0
443 1 0.365842 0.458088 0
444 1 0.370815 0.482937 0
445 1 0.385351 0.465197 0
475 1 0.39094 0.489978 0
446 1 0.405183 0.472695 0
477 1 0.411791 0.496435 0
448 1 0.425841 0.477982 0
420 1 0.440497 0.459527 0
449 1 0.446805 0.483688 0
1352 1 0.48725 0.496483 0
1353 1 0.481994 0.472311 0
1351 1 0.467196 0.489735 0
450 1 0.461225 0.465577 0
1324 1 0.49733 0.453958 0
451 1 0.0364335 0.50833 0
1380 1 0.0208434 0.526087 0
1350 1 0.0154723 0.50129 0
1409 1 0.00589598 0.544168 0
452 1 0.0413182 0.532262 0
453 1 0.0564654 0.51468 0
454 1 0.0628062 0.538827 0
424 1 0.0766504 0.521244 0
425 1 0.0916127 0.503557 0
455 1 0.0973696 0.528303 0
426 1 0.11263 0.511429 0
456 1 0.11813 0.535308 0
457 1 0.133088 0.518065 0
459 1 0.153186 0.525098 0
458 1 0.138672 0.542704 0
428 1 0.14855 0.499454 0
430 1 0.168505 0.50722 0
460 1 0.174109 0.531609 0
461 1 0.188845 0.513373 0
462 1 0.19501 0.538017 0
463 1 0.209993 0.520938 0
434 1 0.224471 0.503385 0
464 1 0.230483 0.527839 0
465 1 0.24472 0.509462 0
466 1 0.25044 0.534444 0
437 1 0.265224 0.516994 0
497 1 0.269923 0.541062 0
467 1 0.285588 0.523739 0
438 1 0.300517 0.506321 0
468 1 0.306218 0.530382 0
469 1 0.321918 0.512229 0
499 1 0.326466 0.537228 0
470 1 0.341171 0.519173 0
501 1 0.347383 0.544371 0
503 1 0.361597 0.524912 0
474 1 0.377053 0.507492 0
505 1 0.382135 0.531213 0
472 1 0.355685 0.500371 0
476 1 0.397304 0.514156 0
506 1 0.40253 0.538046 0
507 1 0.417774 0.520415 0
509 1 0.423517 0.544703 0
480 1 0.438073 0.52702 0
479 1 0.452548 0.507975 0
510 1 0.458525 0.532247 0
478 1 0.432359 0.501975 0
1382 1 0.492547 0.521359 0
1381 1 0.47312 0.514351 0
1411 1 0.478456 0.539982 0
481 1 0.026867 0.550393 0
1410 1 0.0328467 0.574777 0
1408 1 0.0111836 0.568722 0
483 1 0.0467383 0.556431 0
482 1 0.0529203 0.58199 0
513 1 0.0678174 0.564268 0
514 1 0.0729457 0.588278 0
485 1 0.0830077 0.546323 0
484 1 0.0877152 0.570509 0
486 1 0.103493 0.553764 0
515 1 0.108976 0.577555 0
487 1 0.124054 0.559477 0
517 1 0.128867 0.583961 0
488 1 0.143512 0.566397 0
489 1 0.159022 0.548768 0
490 1 0.163998 0.573974 0
491 1 0.179316 0.556429 0
521 1 0.184575 0.581356 0
493 1 0.214531 0.545098 0
492 1 0.199443 0.562905 0
523 1 0.204688 0.58641 0
494 1 0.220073 0.569212 0
495 1 0.235336 0.551868 0
525 1 0.240641 0.576066 0
496 1 0.255689 0.557956 0
526 1 0.261383 0.583565 0
527 1 0.275561 0.566021 0
498 1 0.29098 0.547556 0
529 1 0.296096 0.571693 0
528 1 0.282275 0.589811 0
500 1 0.311684 0.554928 0
530 1 0.317235 0.579203 0
531 1 0.332455 0.561533 0
532 1 0.338035 0.585608 0
533 1 0.352874 0.567631 0
502 1 0.367362 0.54953 0
534 1 0.373465 0.574362 0
504 1 0.388051 0.556185 0
535 1 0.393108 0.579874 0
508 1 0.407874 0.562429 0
537 1 0.413673 0.586139 0
539 1 0.428712 0.568158 0
540 1 0.443574 0.551129 0
569 1 0.449051 0.576422 0
1443 1 0.488925 0.588807 0
1442 1 0.468417 0.582126 0
1441 1 0.463741 0.557566 0
1412 1 0.484082 0.56493 0
1413 1 0.498318 0.547244 0
511 1 0.0370304 0.599429 0
1440 1 0.0216426 0.617687 0
1439 1 0.0171989 0.592812 0
541 1 0.0429107 0.624096 0
512 1 0.057444 0.606741 0
542 1 0.0632905 0.63129 0
543 1 0.0776728 0.612824 0
545 1 0.0934237 0.594217 0
546 1 0.098586 0.618861 0
516 1 0.113827 0.601834 0
519 1 0.149567 0.591419 0
547 1 0.119006 0.626348 0
518 1 0.134252 0.609391 0
577 1 0.139374 0.63448 0
548 1 0.154209 0.615689 0
520 1 0.16978 0.598526 0
549 1 0.174999 0.622598 0
522 1 0.190539 0.604424 0
551 1 0.19475 0.629038 0
553 1 0.210432 0.611014 0
524 1 0.225231 0.594021 0
554 1 0.22999 0.618133 0
555 1 0.246285 0.600456 0
556 1 0.251364 0.624067 0
557 1 0.267139 0.607613 0
558 1 0.287058 0.614061 0
587 1 0.2727 0.632206 0
559 1 0.302554 0.596286 0
560 1 0.308031 0.62055 0
561 1 0.323174 0.6036 0
591 1 0.328337 0.627407 0
562 1 0.343079 0.609339 0
563 1 0.358409 0.591464 0
565 1 0.363824 0.615831 0
536 1 0.378567 0.598142 0
564 1 0.348242 0.633284 0
566 1 0.384462 0.622144 0
567 1 0.398577 0.60382 0
597 1 0.403806 0.628857 0
568 1 0.41891 0.610741 0
538 1 0.434299 0.592736 0
600 1 0.438537 0.618462 0
570 1 0.454184 0.600817 0
1501 1 0.459462 0.625074 0
599 1 0.423743 0.635725 0
1471 1 0.474519 0.60691 0
1472 1 0.479834 0.630642 0
1473 1 0.494855 0.613258 0
1529 1 0.00276696 0.675177 0
1470 1 0.0271242 0.642494 0
1500 1 0.0237558 0.666817 0
1499 1 0.00821717 0.650458 0
571 1 0.0480571 0.64867 0
572 1 0.0548442 0.672977 0
573 1 0.0690798 0.655296 0
603 1 0.0742534 0.679501 0
544 1 0.0840019 0.637251 0
574 1 0.0893892 0.661272 0
575 1 0.103961 0.643562 0
605 1 0.109519 0.669485 0
576 1 0.124046 0.650948 0
607 1 0.129426 0.675228 0
578 1 0.144237 0.657939 0
579 1 0.159874 0.639734 0
609 1 0.165284 0.664466 0
550 1 0.180524 0.647572 0
580 1 0.185424 0.670725 0
552 1 0.215294 0.636367 0
581 1 0.200664 0.654195 0
582 1 0.222261 0.660319 0
611 1 0.206137 0.678184 0
583 1 0.236163 0.641662 0
584 1 0.241927 0.666666 0
585 1 0.257116 0.649365 0
615 1 0.262929 0.673476 0
586 1 0.27839 0.65641 0
589 1 0.293411 0.638031 0
588 1 0.298939 0.663352 0
617 1 0.282268 0.68082 0
590 1 0.313383 0.644599 0
621 1 0.318998 0.669255 0
593 1 0.333954 0.651564 0
592 1 0.339549 0.676578 0
594 1 0.353722 0.658596 0
595 1 0.368765 0.639846 0
625 1 0.37461 0.665143 0
596 1 0.389351 0.64703 0
627 1 0.395077 0.671822 0
598 1 0.409453 0.653292 0
657 1 0.415191 0.678816 0
628 1 0.429326 0.661294 0
629 1 0.443505 0.642509 0
630 1 0.450374 0.667 0
1503 1 0.485575 0.654466 0
1502 1 0.464866 0.648842 0
1533 1 0.470916 0.67308 0
1504 1 0.491256 0.679026 0
631 1 0.0340282 0.709319 0
1530 1 0.0185348 0.691447 0
1560 1 0.0139699 0.71573 0
601 1 0.0381545 0.685493 0
602 1 0.054456 0.700558 0
632 1 0.0516505 0.725659 0
633 1 0.0764159 0.703701 0
604 1 0.094002 0.686442 0
635 1 0.0979241 0.710903 0
606 1 0.114619 0.693704 0
608 1 0.149506 0.682492 0
636 1 0.119223 0.717818 0
637 1 0.134832 0.699702 0
667 1 0.139515 0.724078 0
638 1 0.154911 0.705956 0
639 1 0.170362 0.689105 0
641 1 0.176034 0.713047 0
610 1 0.190879 0.694769 0
642 1 0.196789 0.719612 0
612 1 0.21263 0.70169 0
613 1 0.227191 0.685328 0
643 1 0.232737 0.708873 0
614 1 0.248322 0.691168 0
645 1 0.253173 0.716327 0
616 1 0.267606 0.698722 0
647 1 0.27375 0.722557 0
618 1 0.288275 0.70461 0
619 1 0.303289 0.687558 0
620 1 0.308908 0.711017 0
622 1 0.324527 0.694155 0
651 1 0.330341 0.719487 0
653 1 0.345502 0.701196 0
623 1 0.360651 0.684065 0
624 1 0.365827 0.709315 0
626 1 0.380704 0.690445 0
654 1 0.350181 0.72637 0
655 1 0.385522 0.715533 0
656 1 0.401033 0.697224 0
686 1 0.405845 0.721025 0
658 1 0.421117 0.702734 0
659 1 0.435883 0.684781 0
660 1 0.441622 0.708947 0
1531 1 0.456081 0.691362 0
1561 1 0.461699 0.715831 0
1532 1 0.476584 0.696963 0
1563 1 0.482392 0.722758 0
1534 1 0.497108 0.703448 0
1619 1 0.00351738 0.76461 0
1589 1 0.00855854 0.739265 0
661 1 0.030761 0.733198 0
1590 1 0.0231599 0.756129 0
663 1 0.0457126 0.749686 0
662 1 0.0604756 0.767815 0
664 1 0.0663379 0.744333 0
695 1 0.0862313 0.753128 0
634 1 0.0821887 0.727797 0
665 1 0.103658 0.735772 0
697 1 0.108884 0.759538 0
666 1 0.124137 0.741698 0
668 1 0.130169 0.765212 0
669 1 0.145496 0.74834 0
640 1 0.16 0.729794 0
670 1 0.165897 0.75498 0
671 1 0.181372 0.736772 0
672 1 0.187903 0.762213 0
644 1 0.216712 0.726 0
673 1 0.201631 0.743014 0
674 1 0.222547 0.75068 0
703 1 0.207296 0.76863 0
675 1 0.237778 0.73322 0
705 1 0.24276 0.758768 0
646 1 0.257987 0.740442 0
677 1 0.262639 0.764603 0
648 1 0.278394 0.746208 0
649 1 0.294422 0.729022 0
679 1 0.299081 0.754134 0
650 1 0.315315 0.736985 0
681 1 0.321277 0.761391 0
652 1 0.335569 0.744912 0
682 1 0.340442 0.768845 0
683 1 0.355821 0.750314 0
685 1 0.37079 0.73398 0
684 1 0.376732 0.758513 0
715 1 0.39117 0.739267 0
714 1 0.397147 0.763078 0
717 1 0.411758 0.744495 0
716 1 0.417318 0.769412 0
687 1 0.426701 0.726655 0
688 1 0.431958 0.75077 0
689 1 0.447199 0.734141 0
719 1 0.45246 0.75845 0
690 1 0.467075 0.740723 0
1591 1 0.472804 0.764683 0
1562 1 0.488716 0.74662 0
1593 1 0.493844 0.771392 0
721 1 0.0340955 0.798282 0
1620 1 0.0182168 0.781552 0
1649 1 0.0137464 0.806203 0
691 1 0.0387136 0.773205 0
693 1 0.0542073 0.792308 0
723 1 0.0693904 0.809385 0
694 1 0.0757571 0.785512 0
692 1 0.048969 0.816716 0
725 1 0.089934 0.803109 0
696 1 0.0956975 0.778345 0
727 1 0.111173 0.795051 0
699 1 0.152107 0.772533 0
728 1 0.124819 0.813055 0
698 1 0.131096 0.789567 0
700 1 0.144142 0.808687 0
731 1 0.160307 0.795813 0
701 1 0.173057 0.77792 0
732 1 0.178888 0.8063 0
702 1 0.193844 0.787448 0
763 1 0.198573 0.814234 0
733 1 0.213356 0.794539 0
704 1 0.227043 0.77621 0
706 1 0.234027 0.801216 0
676 1 0.247714 0.783049 0
737 1 0.254875 0.807181 0
707 1 0.269294 0.789045 0
678 1 0.283341 0.770853 0
738 1 0.274762 0.813753 0
708 1 0.289617 0.796031 0
709 1 0.30501 0.778488 0
710 1 0.309923 0.802753 0
680 1 0.325044 0.785816 0
741 1 0.329795 0.810597 0
711 1 0.345428 0.793541 0
713 1 0.360314 0.774799 0
712 1 0.366124 0.799559 0
743 1 0.381357 0.782521 0
742 1 0.351398 0.817387 0
745 1 0.386946 0.805776 0
746 1 0.402337 0.786948 0
775 1 0.408774 0.812028 0
747 1 0.422871 0.794522 0
718 1 0.437759 0.775882 0
749 1 0.443723 0.799867 0
720 1 0.458522 0.782513 0
1623 1 0.499498 0.794948 0
1621 1 0.463886 0.806535 0
1592 1 0.478831 0.789199 0
1622 1 0.484916 0.813209 0
1650 1 0.028324 0.824335 0
1709 1 0.0223832 0.848841 0
1679 1 0.00793795 0.830768 0
1678 1 0.00262883 0.856142 0
1680 1 0.04384 0.841589 0
752 1 0.0584831 0.858267 0
751 1 0.0640524 0.833641 0
753 1 0.0796585 0.85183 0
722 1 0.0839243 0.827821 0
726 1 0.104797 0.820333 0
724 1 0.0997513 0.844354 0
755 1 0.115366 0.862259 0
757 1 0.120124 0.838305 0
756 1 0.135692 0.855833 0
729 1 0.140278 0.831788 0
759 1 0.156664 0.847506 0
730 1 0.161844 0.822354 0
761 1 0.182398 0.831171 0
792 1 0.191015 0.855234 0
735 1 0.219901 0.818968 0
762 1 0.204665 0.837914 0
734 1 0.225788 0.843376 0
764 1 0.21099 0.862731 0
736 1 0.240842 0.82512 0
765 1 0.245301 0.850546 0
767 1 0.260674 0.832145 0
766 1 0.266003 0.857014 0
768 1 0.281085 0.838823 0
739 1 0.29611 0.820984 0
769 1 0.301004 0.845434 0
740 1 0.315737 0.827743 0
770 1 0.322195 0.853192 0
771 1 0.336814 0.835579 0
801 1 0.341885 0.859395 0
773 1 0.358131 0.841099 0
744 1 0.372807 0.824003 0
803 1 0.378834 0.848221 0
774 1 0.394055 0.830135 0
776 1 0.398821 0.855027 0
777 1 0.414758 0.836813 0
778 1 0.419767 0.861049 0
748 1 0.42878 0.819484 0
779 1 0.435149 0.844299 0
750 1 0.449367 0.825937 0
780 1 0.455091 0.850077 0
1651 1 0.469515 0.831756 0
1652 1 0.475429 0.856141 0
1653 1 0.489529 0.837924 0
1683 1 0.495128 0.863334 0
781 1 0.0383603 0.865843 0
1710 1 0.018089 0.873358 0
811 1 0.0324137 0.890761 0
1739 1 0.0126891 0.898488 0
782 1 0.0527752 0.883263 0
813 1 0.0681102 0.900323 0
783 1 0.0734276 0.874972 0
812 1 0.0486337 0.907516 0
784 1 0.0891811 0.892903 0
754 1 0.0952489 0.868415 0
785 1 0.110127 0.886507 0
786 1 0.12556 0.903582 0
787 1 0.130605 0.879526 0
788 1 0.146197 0.896335 0
758 1 0.150612 0.872662 0
760 1 0.170949 0.865175 0
789 1 0.166604 0.889559 0
791 1 0.18718 0.882521 0
790 1 0.17974 0.907961 0
823 1 0.200186 0.901572 0
793 1 0.216782 0.887372 0
795 1 0.231214 0.869337 0
794 1 0.236767 0.893441 0
796 1 0.251482 0.875693 0
825 1 0.257356 0.89998 0
797 1 0.286237 0.863332 0
827 1 0.27197 0.88187 0
826 1 0.278319 0.905786 0
798 1 0.292347 0.888523 0
799 1 0.307038 0.871208 0
829 1 0.3131 0.895464 0
800 1 0.327116 0.877563 0
831 1 0.334405 0.90181 0
802 1 0.348722 0.883923 0
772 1 0.363325 0.865356 0
804 1 0.368971 0.889143 0
833 1 0.354716 0.908148 0
805 1 0.384046 0.872777 0
806 1 0.389328 0.896964 0
807 1 0.40492 0.879441 0
837 1 0.410176 0.902775 0
809 1 0.440693 0.86865 0
808 1 0.425209 0.886699 0
810 1 0.445324 0.893859 0
1681 1 0.460337 0.87514 0
1711 1 0.466141 0.899934 0
1682 1 0.480571 0.881884 0
1713 1 0.487237 0.905624 0
1740 1 0.0282396 0.914856 0
1769 1 0.0234303 0.938822 0
1738 1 0.00791122 0.922174 0
1768 1 0.00169368 0.946684 0
841 1 0.0433202 0.932535 0
842 1 0.0586564 0.949345 0
843 1 0.0637877 0.925755 0
844 1 0.0778313 0.943139 0
814 1 0.083704 0.918249 0
815 1 0.104393 0.911041 0
845 1 0.098282 0.935422 0
846 1 0.113613 0.952477 0
816 1 0.118804 0.928293 0
847 1 0.134715 0.946168 0
817 1 0.139975 0.920861 0
818 1 0.154339 0.938948 0
819 1 0.15993 0.913659 0
820 1 0.175032 0.932482 0
851 1 0.189826 0.950183 0
821 1 0.195387 0.925502 0
824 1 0.2202 0.912018 0
822 1 0.209481 0.943227 0
853 1 0.228664 0.935594 0
855 1 0.242767 0.918382 0
854 1 0.249339 0.943023 0
856 1 0.263155 0.92414 0
885 1 0.26923 0.948108 0
857 1 0.284267 0.930363 0
828 1 0.299825 0.913678 0
859 1 0.30505 0.937741 0
830 1 0.319528 0.91961 0
860 1 0.325603 0.943681 0
832 1 0.339768 0.926236 0
861 1 0.346146 0.950689 0
863 1 0.360436 0.932647 0
834 1 0.375213 0.914705 0
865 1 0.381097 0.939714 0
835 1 0.395113 0.920682 0
836 1 0.401749 0.94603 0
838 1 0.41592 0.928464 0
867 1 0.421931 0.953364 0
839 1 0.430274 0.910411 0
869 1 0.436375 0.934803 0
840 1 0.451239 0.917855 0
1741 1 0.457261 0.9417 0
1743 1 0.492441 0.929897 0
1712 1 0.47209 0.923439 0
1742 1 0.477527 0.948049 0
1744 1 0.498526 0.954251 0
1770 1 0.037865 0.957135 0
1799 1 0.0172925 0.963761 0
1800 1 0.03182 0.981733 0
1798 1 0.0123282 0.988874 0
871 1 0.0526023 0.975109 0
872 1 0.0678321 0.991918 0
873 1 0.0729139 0.966595 0
1 1 0.0475697 0.999021 0
874 1 0.0874201 0.983367 0
875 1 0.0932715 0.959194 0
876 1 0.108457 0.976256 0
7 1 0.123215 0.994094 0
877 1 0.128917 0.969593 0
878 1 0.143997 0.98657 0
848 1 0.149385 0.962864 0
849 1 0.170431 0.956597 0
879 1 0.164471 0.980213 0
850 1 0.185084 0.973847 0
881 1 0.178576 0.997542 0
11 1 0.199139 0.991443 0
852 1 0.204891 0.966838 0
883 1 0.226172 0.96069 0
882 1 0.219528 0.984815 0
884 1 0.24029 0.980561 0
886 1 0.256362 0.966647 0
16 1 0.258496 0.995254 0
887 1 0.290005 0.955783 0
17 1 0.275715 0.974912 0
888 1 0.297216 0.981103 0
18 1 0.282536 0.998208 0
858 1 0.310334 0.96176 0
889 1 0.317296 0.987561 0
891 1 0.33117 0.968945 0
890 1 0.337698 0.993688 0
862 1 0.351156 0.975568 0
864 1 0.366445 0.957135 0
893 1 0.371991 0.981852 0
895 1 0.387365 0.963565 0
896 1 0.392777 0.988519 0
866 1 0.40793 0.970652 0
897 1 0.41368 0.994728 0
870 1 0.442141 0.960933 0
868 1 0.428106 0.978281 0
899 1 0.448149 0.984215 0
1771 1 0.462717 0.966176 0
903 1 0.489044 0.99749 0
1772 1 0.468709 0.990897 0
1773 1 0.483675 0.972721 0
904 1 0.515705 0.0292152 0
905 1 0.510075 0.00486848 0
906 1 0.530383 0.0119795 0
935 1 0.536599 0.035342 0
933 1 0.500727 0.0472401 0
908 1 0.551009 0.0167879 0
937 1 0.55661 0.0410111 0
939 1 0.571613 0.0227315 0
940 1 0.591159 0.0288211 0
941 1 0.586214 0.00406778 0
942 1 0.777229 0.0248171 0
943 1 0.796979 0.0167625 0
944 1 0.792459 0.042289 0
945 1 0.812872 0.0346568 0
914 1 0.81852 0.00965963 0
947 1 0.833606 0.0271092 0
916 1 0.839295 0.00317268 0
918 1 0.854193 0.0203736 0
949 1 0.870354 0.0373164 0
919 1 0.874728 0.0137452 0
948 1 0.849158 0.0445437 0
920 1 0.889899 0.0306641 0
1790 1 0.895378 0.00701309 0
951 1 0.91081 0.0240952 0
952 1 0.925179 0.0410411 0
922 1 0.930646 0.0166317 0
953 1 0.945756 0.0342849 0
924 1 0.951537 0.00991328 0
955 1 0.9665 0.0277789 0
925 1 0.972575 0.00281318 0
926 1 0.987362 0.0211651 0
956 1 0.981996 0.0445447 0
963 1 0.506601 0.070691 0
934 1 0.521262 0.0527262 0
965 1 0.526939 0.0769468 0
936 1 0.542202 0.0586912 0
966 1 0.547171 0.0832728 0
967 1 0.562886 0.0651106 0
968 1 0.567596 0.0902166 0
938 1 0.576444 0.0475486 0
969 1 0.583122 0.0711527 0
970 1 0.765807 0.0730316 0
971 1 0.772674 0.048586 0
973 1 0.787186 0.0654965 0
1003 1 0.802156 0.0819221 0
972 1 0.781521 0.0903222 0
975 1 0.807764 0.0583192 0
974 1 0.82206 0.0752047 0
946 1 0.82854 0.051387 0
976 1 0.843631 0.0686651 0
977 1 0.864904 0.0611232 0
978 1 0.879867 0.0799001 0
1007 1 0.859342 0.0850238 0
979 1 0.8855 0.0566519 0
950 1 0.905517 0.0485792 0
980 1 0.900899 0.0735998 0
981 1 0.920389 0.0650554 0
1011 1 0.916531 0.0907139 0
982 1 0.935643 0.0834887 0
983 1 0.940731 0.0586313 0
984 1 0.955934 0.0759206 0
954 1 0.96104 0.0518765 0
985 1 0.976212 0.0691485 0
987 1 0.996823 0.0634698 0
986 1 0.992332 0.0866758 0
964 1 0.513037 0.0953805 0
994 1 0.519684 0.120112 0