ITEM: TIMESTEP
56000
ITEM: NUMBER OF ATOMS
1800
ITEM: BOX BOUNDS pp pp pp
3.4816113954684624e-01 1.6465183886045418e+02
2.3332427476993729e+00 1.6266675725230337e+02
0.0000000000000000e+00 5.5000000000000000e+00
ITEM: ATOMS id type xs ys zs
2 1 0.0149309 0.011873 0
3 1 0.0383807 0.00546975 0
31 1 0.00820982 0.0361762 0
33 1 0.0316161 0.0299723 0
4 1 0.0558619 0.0225575 0
6 1 0.0796825 0.0169912 0
35 1 0.0734464 0.0413184 0
8 1 0.103671 0.0105392 0
37 1 0.0974312 0.0344258 0
39 1 0.121662 0.0278231 0
880 1 0.128261 0.00346182 0
9 1 0.146079 0.0226713 0
10 1 0.169755 0.0164552 0
40 1 0.163361 0.0409149 0
41 1 0.187861 0.0354961 0
12 1 0.194097 0.0108505 0
14 1 0.211276 0.0287782 0
13 1 0.217827 0.00507087 0
15 1 0.235134 0.0230239 0
16 1 0.259098 0.0171281 0
46 1 0.252384 0.0424894 0
47 1 0.276416 0.035322 0
18 1 0.282524 0.0113825 0
49 1 0.312728 0.036054 0
19 1 0.30683 0.0119132 0
20 1 0.330525 0.018378 0
21 1 0.354792 0.0232853 0
51 1 0.338559 0.0413925 0
23 1 0.380226 0.0296786 0
894 1 0.396948 0.0118038 0
24 1 0.404192 0.0372023 0
892 1 0.371643 0.00578713 0
25 1 0.420966 0.0184617 0
27 1 0.444996 0.0234049 0
26 1 0.428002 0.0419548 0
29 1 0.469341 0.0301564 0
900 1 0.486277 0.0102095 0
30 1 0.493771 0.0341354 0
898 1 0.461964 0.00561073 0
32 1 0.0259226 0.0542269 0
62 1 0.0188688 0.0785038 0
63 1 0.0425527 0.0722087 0
61 1 0.00189637 0.0600449 0
34 1 0.050192 0.047258 0
65 1 0.0668517 0.0669188 0
66 1 0.0842161 0.0834636 0
36 1 0.090243 0.0589918 0
38 1 0.114645 0.0524738 0
67 1 0.108776 0.077867 0
68 1 0.131883 0.0704347 0
69 1 0.139657 0.0473305 0
71 1 0.156826 0.0646086 0
72 1 0.173611 0.0833434 0
70 1 0.149977 0.088231 0
42 1 0.181128 0.0587952 0
43 1 0.204817 0.054119 0
73 1 0.19692 0.0782941 0
44 1 0.221582 0.0732437 0
45 1 0.22861 0.0474332 0
75 1 0.245321 0.0669746 0
76 1 0.263213 0.085586 0
77 1 0.27071 0.0613558 0
74 1 0.239009 0.0907484 0
48 1 0.294008 0.0537767 0
79 1 0.304243 0.0761631 0
22 1 0.363206 0.0475807 0
50 1 0.321037 0.0591529 0
81 1 0.327937 0.0833358 0
52 1 0.345374 0.0651225 0
82 1 0.351761 0.0897017 0
53 1 0.386853 0.055328 0
83 1 0.369423 0.0721242 0
54 1 0.393561 0.0783204 0
28 1 0.452161 0.0487 0
55 1 0.411595 0.0610614 0
57 1 0.435013 0.0666712 0
56 1 0.418398 0.0848752 0
87 1 0.44288 0.0901727 0
59 1 0.476347 0.054572 0
58 1 0.458818 0.0714827 0
89 1 0.483446 0.0789737 0
449 1 0.479725 0.490235 0
92 1 0.0299613 0.121335 0
93 1 0.0364355 0.0967748 0
91 1 0.0124134 0.102811 0
121 1 0.00596035 0.127486 0
64 1 0.0599096 0.0904702 0
94 1 0.0538463 0.115353 0
95 1 0.0784784 0.108542 0
125 1 0.0710437 0.133636 0
96 1 0.094626 0.126319 0
97 1 0.102416 0.101342 0
98 1 0.119625 0.120044 0
99 1 0.125757 0.096032 0
100 1 0.143779 0.112836 0
101 1 0.167139 0.107869 0
130 1 0.160616 0.132966 0
103 1 0.191434 0.101741 0
102 1 0.18496 0.125555 0
105 1 0.21492 0.0973806 0
104 1 0.208683 0.121345 0
106 1 0.232427 0.114476 0
137 1 0.251838 0.129897 0
107 1 0.267966 0.110846 0
78 1 0.286527 0.093378 0
109 1 0.293613 0.118061 0
80 1 0.310904 0.101014 0
110 1 0.317297 0.12546 0
108 1 0.27673 0.135617 0
111 1 0.334772 0.107522 0
141 1 0.342224 0.131967 0
113 1 0.358807 0.113598 0
84 1 0.376177 0.0961026 0
112 1 0.382933 0.119644 0
85 1 0.400864 0.101888 0
115 1 0.407121 0.125732 0
86 1 0.425938 0.108018 0
116 1 0.431217 0.13315 0
117 1 0.449888 0.114304 0
120 1 0.497071 0.126851 0
88 1 0.467093 0.096285 0
119 1 0.472532 0.122446 0
90 1 0.49027 0.102836 0
122 1 0.0224805 0.145721 0
152 1 0.0166554 0.171849 0
153 1 0.0401961 0.165439 0
123 1 0.0462247 0.140106 0
124 1 0.0636325 0.158334 0
155 1 0.0809629 0.17517 0
126 1 0.0882091 0.151507 0
127 1 0.111956 0.143841 0
128 1 0.12885 0.160612 0
157 1 0.106224 0.168888 0
129 1 0.137268 0.137676 0
159 1 0.156004 0.162956 0
131 1 0.17824 0.149773 0
132 1 0.180031 0.173298 0
133 1 0.202422 0.14639 0
134 1 0.219733 0.163851 0
163 1 0.202811 0.181178 0
135 1 0.226599 0.140234 0
136 1 0.260592 0.152984 0
165 1 0.243166 0.171205 0
167 1 0.267136 0.177632 0
139 1 0.300738 0.142804 0
138 1 0.284808 0.160333 0
169 1 0.307969 0.166716 0
140 1 0.324504 0.149393 0
142 1 0.348633 0.156217 0
171 1 0.331452 0.174279 0
172 1 0.354971 0.181083 0
143 1 0.366411 0.138115 0
114 1 0.391283 0.144844 0
144 1 0.395254 0.169015 0
173 1 0.371382 0.161665 0
145 1 0.414625 0.151795 0
146 1 0.420488 0.175531 0
147 1 0.438241 0.157991 0
177 1 0.444403 0.181602 0
118 1 0.454732 0.138994 0
149 1 0.479282 0.14574 0
148 1 0.462317 0.163794 0
150 1 0.486014 0.170486 0
183 1 0.0336868 0.189923 0
182 1 0.038232 0.214766 0
181 1 0.0139562 0.206405 0
154 1 0.0573367 0.182675 0
184 1 0.0613181 0.222982 0
185 1 0.0767339 0.201191 0
186 1 0.102352 0.216056 0
156 1 0.0989759 0.192215 0
158 1 0.121483 0.199098 0
187 1 0.126086 0.223671 0
160 1 0.140094 0.183078 0
161 1 0.162929 0.190176 0
189 1 0.144547 0.20807 0
191 1 0.167975 0.215773 0
162 1 0.186712 0.198745 0
193 1 0.20986 0.205998 0
192 1 0.192321 0.223318 0
164 1 0.225679 0.18849 0
195 1 0.232955 0.213638 0
166 1 0.249724 0.196142 0
196 1 0.256315 0.21998 0
168 1 0.290239 0.185149 0
197 1 0.273568 0.203006 0
199 1 0.297096 0.21051 0
170 1 0.314692 0.191555 0
201 1 0.337526 0.198569 0
200 1 0.320766 0.216566 0
202 1 0.345214 0.223068 0
203 1 0.361789 0.204767 0
174 1 0.378909 0.186558 0
204 1 0.385076 0.210972 0
175 1 0.402894 0.193692 0
205 1 0.410245 0.217776 0
176 1 0.42776 0.199707 0
207 1 0.4342 0.224789 0
178 1 0.451506 0.207524 0
179 1 0.468714 0.189674 0
209 1 0.475122 0.212697 0
180 1 0.492646 0.195157 0
420 1 0.47304 0.463692 0
212 1 0.0250505 0.256559 0
211 1 0.020326 0.231646 0
1140 1 0.00177596 0.249411 0
213 1 0.043143 0.240184 0
243 1 0.0488214 0.264917 0
215 1 0.0846162 0.231188 0
214 1 0.0663996 0.248281 0
216 1 0.0900741 0.257239 0
217 1 0.108431 0.239888 0
218 1 0.113967 0.264461 0
188 1 0.132392 0.24797 0
190 1 0.150856 0.232451 0
221 1 0.173779 0.241048 0
220 1 0.155695 0.256797 0
222 1 0.180314 0.26532 0
194 1 0.2156 0.230993 0
223 1 0.197995 0.247219 0
224 1 0.220823 0.255507 0
253 1 0.202924 0.27199 0
225 1 0.239056 0.238366 0
227 1 0.263023 0.245228 0
226 1 0.245507 0.26324 0
257 1 0.268954 0.269704 0
198 1 0.279985 0.228111 0
229 1 0.303789 0.2339 0
228 1 0.285937 0.252657 0
230 1 0.309473 0.258946 0
231 1 0.327389 0.240793 0
232 1 0.350849 0.247076 0
261 1 0.334003 0.265433 0
263 1 0.357909 0.272055 0
233 1 0.368355 0.229791 0
235 1 0.392976 0.236119 0
234 1 0.374721 0.253571 0
265 1 0.39893 0.260981 0
206 1 0.416843 0.242099 0
237 1 0.440236 0.249407 0
236 1 0.422365 0.266047 0
208 1 0.459235 0.230856 0
210 1 0.482083 0.237554 0
239 1 0.464992 0.255527 0
240 1 0.488353 0.261843 0
241 1 0.00704827 0.274315 0
242 1 0.0315003 0.282756 0
271 1 0.0124352 0.298784 0
273 1 0.0361954 0.308717 0
245 1 0.0718205 0.273854 0
244 1 0.054162 0.291038 0
246 1 0.0776598 0.298617 0
275 1 0.0601207 0.315464 0
247 1 0.0954864 0.282106 0
249 1 0.119764 0.290214 0
248 1 0.101197 0.305941 0
279 1 0.125542 0.314077 0
219 1 0.138172 0.273482 0
251 1 0.162702 0.282056 0
250 1 0.143923 0.298583 0
281 1 0.167664 0.306369 0
252 1 0.185563 0.289829 0
254 1 0.209675 0.29817 0
283 1 0.190739 0.314341 0
255 1 0.226903 0.279149 0
256 1 0.250349 0.287153 0
285 1 0.234267 0.305341 0
287 1 0.257421 0.311445 0
259 1 0.292436 0.27691 0
258 1 0.275029 0.294408 0
289 1 0.298508 0.301266 0
260 1 0.315328 0.282921 0
262 1 0.340688 0.290418 0
291 1 0.322435 0.308275 0
292 1 0.346641 0.31416 0
264 1 0.380931 0.27972 0
293 1 0.364389 0.297288 0
295 1 0.387602 0.304355 0
266 1 0.404843 0.286164 0
238 1 0.446127 0.273422 0
267 1 0.428994 0.290607 0
297 1 0.411654 0.310329 0
298 1 0.43477 0.315571 0
268 1 0.453006 0.298278 0
269 1 0.470386 0.280552 0
270 1 0.476679 0.305021 0
1141 1 0.494138 0.286501 0
1200 1 0.017104 0.324199 0
272 1 0.0417607 0.333089 0
301 1 0.0233026 0.349501 0
303 1 0.0478033 0.357837 0
276 1 0.0834816 0.323516 0
274 1 0.0653463 0.341239 0
305 1 0.0898758 0.349262 0
277 1 0.107633 0.330544 0
307 1 0.113412 0.356663 0
278 1 0.131455 0.338937 0
280 1 0.149852 0.323298 0
282 1 0.173939 0.331066 0
311 1 0.155048 0.346795 0
312 1 0.180029 0.35563 0
284 1 0.215906 0.321507 0
313 1 0.197464 0.338477 0
315 1 0.221294 0.346902 0
314 1 0.203887 0.363604 0
286 1 0.239034 0.329768 0
317 1 0.262735 0.336308 0
316 1 0.244813 0.355048 0
318 1 0.269066 0.360488 0
288 1 0.281176 0.318357 0
290 1 0.305318 0.326184 0
319 1 0.287049 0.342743 0
320 1 0.311455 0.349546 0
321 1 0.330416 0.332762 0
323 1 0.353122 0.33962 0
322 1 0.335548 0.357576 0
294 1 0.370237 0.32232 0
296 1 0.394864 0.327775 0
325 1 0.376889 0.346945 0
326 1 0.400555 0.353353 0
327 1 0.418121 0.334573 0
328 1 0.424699 0.359408 0
329 1 0.441944 0.341525 0
299 1 0.458735 0.322442 0
359 1 0.465912 0.347129 0
330 1 0.482756 0.329948 0
360 1 0.490088 0.353673 0
1230 1 0.00577971 0.365954 0
302 1 0.0297916 0.374516 0
332 1 0.0356279 0.398603 0
331 1 0.0121285 0.391483 0
304 1 0.0715675 0.365409 0
333 1 0.053835 0.381761 0
335 1 0.0779697 0.390798 0
334 1 0.0587753 0.406496 0
306 1 0.0946889 0.37395 0
308 1 0.120334 0.382018 0
337 1 0.101893 0.397894 0
338 1 0.125729 0.406624 0
309 1 0.137257 0.36447 0
310 1 0.161522 0.373114 0
339 1 0.143173 0.389003 0
341 1 0.166795 0.398323 0
343 1 0.185227 0.381308 0
342 1 0.191566 0.406087 0
344 1 0.209283 0.388629 0
345 1 0.227101 0.371391 0
347 1 0.253125 0.377955 0
346 1 0.234665 0.395967 0
377 1 0.258299 0.404868 0
349 1 0.293565 0.368101 0
348 1 0.276477 0.384795 0
350 1 0.299639 0.393142 0
351 1 0.317058 0.375406 0
324 1 0.359935 0.363402 0
381 1 0.324005 0.400403 0
353 1 0.341581 0.381821 0
352 1 0.347808 0.406526 0
355 1 0.382759 0.371104 0
354 1 0.364862 0.388997 0
356 1 0.388504 0.395807 0
357 1 0.406381 0.377648 0
387 1 0.429864 0.38467 0
358 1 0.44835 0.365866 0
386 1 0.412186 0.402663 0
388 1 0.435647 0.408876 0
389 1 0.454402 0.39108 0
1232 1 0.471692 0.372985 0
1262 1 0.496421 0.378921 0
1261 1 0.478643 0.396982 0
361 1 0.0177654 0.415596 0
362 1 0.0228317 0.441277 0
363 1 0.0410134 0.423877 0
336 1 0.0834471 0.414875 0
364 1 0.0475116 0.448388 0
365 1 0.0644779 0.431502 0
366 1 0.0890592 0.439789 0
367 1 0.10739 0.423652 0
368 1 0.113285 0.448101 0
369 1 0.130068 0.430941 0
340 1 0.149588 0.415342 0
371 1 0.17295 0.422391 0
370 1 0.154992 0.439252 0
401 1 0.18024 0.447578 0
373 1 0.216279 0.412751 0
372 1 0.198213 0.430948 0
374 1 0.222175 0.438026 0
375 1 0.239723 0.420714 0
376 1 0.264362 0.428182 0
405 1 0.24653 0.445583 0
407 1 0.270793 0.452685 0
378 1 0.282118 0.409786 0
379 1 0.305722 0.417448 0
409 1 0.288358 0.435433 0
380 1 0.311356 0.442881 0
382 1 0.329923 0.425202 0
413 1 0.334944 0.450024 0
383 1 0.353028 0.431667 0
385 1 0.370886 0.414043 0
414 1 0.376557 0.438824 0
384 1 0.395532 0.421307 0
415 1 0.401031 0.445141 0
417 1 0.418213 0.427464 0
418 1 0.442549 0.433243 0
416 1 0.425055 0.45228 0
419 1 0.460149 0.415414 0
390 1 0.467275 0.439494 0
1291 1 0.48546 0.421167 0
1321 1 0.491031 0.445736 0
392 1 0.00570456 0.458681 0
393 1 0.0302199 0.465983 0
422 1 0.0122648 0.48378 0
423 1 0.0363794 0.491435 0
395 1 0.0707351 0.456122 0
394 1 0.0537048 0.474411 0
396 1 0.0769332 0.481397 0
425 1 0.0604007 0.498718 0
397 1 0.0950872 0.46395 0
398 1 0.118598 0.473221 0
427 1 0.0999322 0.489049 0
428 1 0.125037 0.497086 0
399 1 0.136425 0.45666 0
400 1 0.16141 0.463988 0
429 1 0.143496 0.480374 0
431 1 0.16729 0.488734 0
403 1 0.204804 0.455885 0
402 1 0.185314 0.471311 0
432 1 0.190857 0.495763 0
433 1 0.209745 0.479681 0
404 1 0.228512 0.462631 0
406 1 0.251925 0.470248 0
435 1 0.234798 0.488168 0
436 1 0.257986 0.495658 0
410 1 0.293853 0.461255 0
408 1 0.276267 0.478811 0
441 1 0.300145 0.485652 0
411 1 0.318071 0.467975 0
412 1 0.360217 0.457103 0
442 1 0.342535 0.474269 0
440 1 0.324272 0.493182 0
471 1 0.348178 0.499547 0
473 1 0.365889 0.481868 0
443 1 0.383278 0.463738 0
444 1 0.389485 0.488778 0
445 1 0.407499 0.469101 0
475 1 0.413639 0.494353 0
447 1 0.448975 0.457694 0
446 1 0.432303 0.476298 0
450 1 0.496678 0.470893 0
448 1 0.456325 0.482114 0
1081 1 0.498965 0.219714 0
1229 1 -0.000397449 0.341283 0
454 1 0.0227206 0.531291 0
453 1 0.0171886 0.507654 0
424 1 0.0416029 0.515679 0
485 1 0.0468453 0.540165 0
455 1 0.0655238 0.52354 0
426 1 0.0830146 0.507286 0
456 1 0.0884408 0.531481 0
457 1 0.107138 0.514125 0
458 1 0.11161 0.54021 0
459 1 0.129935 0.522206 0
460 1 0.154689 0.529908 0
461 1 0.172884 0.513027 0
430 1 0.149119 0.505164 0
462 1 0.179187 0.537386 0
434 1 0.215793 0.504409 0
463 1 0.19692 0.520604 0
464 1 0.221845 0.528803 0
466 1 0.245856 0.537547 0
465 1 0.240066 0.513038 0
437 1 0.263437 0.520237 0
467 1 0.287674 0.526798 0
438 1 0.306571 0.510171 0
468 1 0.311973 0.535334 0
439 1 0.281748 0.502994 0
469 1 0.329714 0.51833 0
470 1 0.353774 0.524493 0
499 1 0.336097 0.543438 0
472 1 0.37212 0.506773 0
503 1 0.378501 0.53125 0
474 1 0.396487 0.513261 0
505 1 0.402758 0.537745 0
476 1 0.420518 0.51964 0
477 1 0.43771 0.500933 0
507 1 0.443831 0.525577 0
506 1 0.427282 0.543816 0
478 1 0.461447 0.507674 0
480 1 0.468502 0.531415 0
479 1 0.485366 0.513547 0
510 1 0.494255 0.537766 0
483 1 0.00477122 0.549224 0
513 1 0.0283844 0.557041 0
514 1 0.0340831 0.582037 0
482 1 0.0101797 0.575181 0
486 1 0.0708162 0.547932 0
484 1 0.052173 0.566021 0
515 1 0.0756658 0.573538 0
487 1 0.0936221 0.556296 0
488 1 0.118492 0.563509 0
517 1 0.0999297 0.58103 0
519 1 0.124382 0.589027 0
489 1 0.136189 0.546318 0
491 1 0.160874 0.553828 0
490 1 0.142171 0.571045 0
521 1 0.165976 0.578319 0
493 1 0.203236 0.544962 0
492 1 0.18516 0.561682 0
523 1 0.19008 0.586812 0
494 1 0.21002 0.570614 0
495 1 0.227777 0.553551 0
496 1 0.252003 0.56304 0
525 1 0.234567 0.579678 0
497 1 0.269891 0.544351 0
526 1 0.257727 0.588119 0
527 1 0.276076 0.56994 0
498 1 0.294515 0.552422 0
529 1 0.300039 0.579443 0
500 1 0.317028 0.560801 0
501 1 0.360759 0.549393 0
531 1 0.343046 0.567553 0
530 1 0.325073 0.584952 0
533 1 0.367756 0.573088 0
502 1 0.384803 0.556359 0
534 1 0.392785 0.58104 0
504 1 0.410174 0.56288 0
508 1 0.434871 0.567588 0
509 1 0.452059 0.5499 0
535 1 0.416983 0.587759 0
539 1 0.45836 0.575745 0
540 1 0.476285 0.557078 0
569 1 0.482216 0.580554 0
1771 1 0.495766 0.967624 0
512 1 0.0147803 0.599238 0
542 1 0.0209298 0.623302 0
543 1 0.0395191 0.607286 0
544 1 0.0446748 0.631838 0
545 1 0.0574107 0.590009 0
516 1 0.0811862 0.598357 0
546 1 0.0637314 0.616226 0
547 1 0.0868396 0.623892 0
518 1 0.105355 0.606438 0
548 1 0.128361 0.61451 0
577 1 0.110363 0.631849 0
520 1 0.146904 0.595553 0
522 1 0.170634 0.602631 0
549 1 0.152085 0.619489 0
551 1 0.175163 0.627872 0
524 1 0.215022 0.595501 0
553 1 0.194929 0.610854 0
554 1 0.219065 0.619954 0
552 1 0.199488 0.635216 0
555 1 0.238579 0.603982 0
556 1 0.242634 0.630212 0
557 1 0.263002 0.614566 0
528 1 0.281593 0.596132 0
559 1 0.306571 0.602748 0
558 1 0.28733 0.621583 0
560 1 0.313698 0.62671 0
561 1 0.331868 0.609379 0
532 1 0.35055 0.591437 0
562 1 0.357008 0.61635 0
591 1 0.340061 0.633149 0
563 1 0.375412 0.598518 0
565 1 0.381606 0.624433 0
536 1 0.399261 0.605656 0
566 1 0.406966 0.630643 0
537 1 0.440153 0.593473 0
567 1 0.423845 0.612583 0
568 1 0.447583 0.618306 0
597 1 0.431654 0.63674 0
538 1 0.46407 0.600184 0
570 1 0.489029 0.605472 0
600 1 0.472207 0.623849 0
1501 1 0.496275 0.630339 0
571 1 0.0018075 0.640643 0
573 1 0.0263112 0.647215 0
603 1 0.0305729 0.672803 0
572 1 0.00820531 0.664519 0
574 1 0.0504142 0.658188 0
575 1 0.0686335 0.640978 0
605 1 0.0733469 0.665374 0
576 1 0.0923451 0.648886 0
607 1 0.0955663 0.676188 0
578 1 0.115418 0.659407 0
579 1 0.133901 0.64015 0
609 1 0.136847 0.675373 0
550 1 0.156748 0.642962 0
581 1 0.18039 0.652008 0
580 1 0.160006 0.667637 0
611 1 0.18251 0.676303 0
583 1 0.221448 0.645632 0
582 1 0.201873 0.661581 0
584 1 0.224482 0.671308 0
587 1 0.26796 0.641896 0
585 1 0.245043 0.656259 0
586 1 0.26684 0.667394 0
589 1 0.294357 0.645093 0
588 1 0.285577 0.682413 0
590 1 0.306321 0.667313 0
593 1 0.346942 0.658421 0
621 1 0.322627 0.650632 0
622 1 0.329434 0.676099 0
564 1 0.365197 0.643174 0
594 1 0.371934 0.667648 0
595 1 0.389552 0.64861 0
625 1 0.395981 0.673786 0
596 1 0.413415 0.655313 0
598 1 0.4389 0.661705 0
627 1 0.421774 0.679463 0
599 1 0.455352 0.642604 0
629 1 0.479742 0.64834 0
628 1 0.462762 0.667749 0
630 1 0.487857 0.673326 0
632 1 0.00289514 0.717374 0
633 1 0.0299913 0.696809 0
634 1 0.0290405 0.722583 0
602 1 0.00672417 0.691183 0
604 1 0.0525153 0.682899 0
635 1 0.0525214 0.706527 0
606 1 0.0748363 0.691007 0
636 1 0.0754476 0.715515 0
637 1 0.0973522 0.70185 0
608 1 0.116933 0.688271 0
638 1 0.118717 0.716271 0
639 1 0.137412 0.701151 0
610 1 0.160799 0.690938 0
641 1 0.160476 0.714893 0
612 1 0.18282 0.701202 0
642 1 0.182554 0.727306 0
613 1 0.20379 0.686634 0
614 1 0.224831 0.69692 0
643 1 0.204006 0.712693 0
645 1 0.226562 0.723645 0
615 1 0.246015 0.682935 0
617 1 0.266289 0.695592 0
616 1 0.246624 0.709757 0
647 1 0.268718 0.720329 0
619 1 0.310546 0.692538 0
618 1 0.288097 0.706559 0
620 1 0.309776 0.718115 0
592 1 0.354375 0.685912 0
653 1 0.333975 0.701691 0
651 1 0.331378 0.726408 0
623 1 0.379822 0.692559 0
624 1 0.359151 0.709865 0
626 1 0.404476 0.698283 0
655 1 0.387888 0.716362 0
657 1 0.445399 0.684886 0
656 1 0.428835 0.703542 0
686 1 0.412719 0.723203 0
658 1 0.453677 0.709805 0
659 1 0.469993 0.691938 0
660 1 0.478667 0.715528 0
1531 1 0.494901 0.697494 0
662 1 0.0116275 0.762587 0
664 1 0.031283 0.747681 0
665 1 0.053169 0.730527 0
666 1 0.0763422 0.7419 0
695 1 0.0540942 0.755213 0
697 1 0.0774497 0.767584 0
667 1 0.0971588 0.72824 0
668 1 0.0976207 0.755261 0
669 1 0.119084 0.741531 0
699 1 0.119056 0.767312 0
640 1 0.139919 0.728298 0
670 1 0.13983 0.754767 0
671 1 0.161282 0.740978 0
672 1 0.162496 0.76582 0
673 1 0.182681 0.752629 0
644 1 0.205713 0.737325 0
674 1 0.205296 0.762584 0
675 1 0.227517 0.748962 0
646 1 0.248333 0.734903 0
677 1 0.249678 0.759989 0
648 1 0.270098 0.745658 0
678 1 0.271644 0.77125 0
649 1 0.289905 0.732071 0
650 1 0.312324 0.743094 0
679 1 0.292551 0.758094 0
681 1 0.317408 0.768943 0
652 1 0.336725 0.751014 0
683 1 0.360609 0.757686 0
654 1 0.353767 0.733797 0
685 1 0.376452 0.739361 0
715 1 0.400423 0.743574 0
684 1 0.384347 0.763583 0
714 1 0.408436 0.768478 0
687 1 0.437693 0.729148 0
717 1 0.423552 0.74977 0
688 1 0.448004 0.755491 0
716 1 0.432016 0.774035 0
689 1 0.46247 0.734952 0
690 1 0.487291 0.740368 0
719 1 0.471604 0.76092 0
1591 1 0.495152 0.766353 0
694 1 0.0303739 0.778936 0
693 1 0.00602001 0.786882 0
723 1 0.0236509 0.804304 0
899 1 0.479118 0.986282 0
725 1 0.047347 0.80078 0
696 1 0.0556828 0.778804 0
727 1 0.0764316 0.79263 0
726 1 0.067111 0.816013 0
728 1 0.0962269 0.807394 0
698 1 0.0980733 0.78089 0
700 1 0.119559 0.794326 0
701 1 0.141116 0.780342 0
731 1 0.141993 0.806539 0
702 1 0.163015 0.791009 0
732 1 0.164879 0.816321 0
703 1 0.184573 0.777499 0
705 1 0.228039 0.774079 0
733 1 0.185136 0.803196 0
704 1 0.206394 0.787764 0
735 1 0.208216 0.813516 0
706 1 0.228139 0.799462 0
676 1 0.250038 0.785199 0
737 1 0.249723 0.811143 0
707 1 0.271066 0.796995 0
709 1 0.29589 0.78298 0
708 1 0.291456 0.806996 0
710 1 0.313961 0.814387 0
680 1 0.326737 0.793694 0
682 1 0.342944 0.775618 0
711 1 0.350551 0.801398 0
713 1 0.366238 0.782112 0
712 1 0.374614 0.807704 0
743 1 0.39158 0.788052 0
745 1 0.398945 0.812002 0
747 1 0.440412 0.799037 0
746 1 0.415553 0.793199 0
775 1 0.423199 0.817358 0
718 1 0.456566 0.780162 0
720 1 0.480115 0.78532 0
749 1 0.463606 0.804375 0
1621 1 0.488367 0.809844 0
751 1 0.0173252 0.829041 0
752 1 0.0116899 0.853862 0
753 1 0.034822 0.84821 0
722 1 0.0417059 0.823603 0
724 1 0.0597682 0.84104 0
755 1 0.0772682 0.859068 0
757 1 0.0851015 0.832735 0
729 1 0.119758 0.81999 0
756 1 0.101769 0.852033 0
759 1 0.124313 0.844568 0
730 1 0.144574 0.830604 0
761 1 0.16499 0.842658 0
760 1 0.145112 0.860936 0
763 1 0.186613 0.828506 0
762 1 0.187539 0.852543 0
734 1 0.210018 0.840552 0
736 1 0.229556 0.824848 0
765 1 0.233068 0.852012 0
738 1 0.273029 0.822567 0
767 1 0.252571 0.835781 0
766 1 0.255423 0.861519 0
768 1 0.27675 0.847695 0
739 1 0.295735 0.831299 0
769 1 0.299259 0.856642 0
740 1 0.317881 0.839699 0
741 1 0.336249 0.820759 0
742 1 0.358715 0.825669 0
771 1 0.343185 0.844992 0
770 1 0.325227 0.862897 0
773 1 0.366182 0.849507 0
744 1 0.384113 0.831211 0
803 1 0.390763 0.85544 0
774 1 0.407512 0.836305 0
748 1 0.448481 0.823658 0
777 1 0.431392 0.841786 0
776 1 0.41403 0.861477 0
779 1 0.456433 0.84759 0
1651 1 0.496312 0.834138 0
750 1 0.471949 0.828544 0
780 1 0.479925 0.853432 0
783 1 0.0298362 0.87213 0
782 1 0.00503849 0.877741 0
813 1 0.0235023 0.895006 0
784 1 0.048378 0.890316 0
754 1 0.0536183 0.865868 0
785 1 0.0727505 0.883029 0
786 1 0.0906763 0.900634 0
815 1 0.0656583 0.907706 0
758 1 0.121067 0.869097 0
787 1 0.0962463 0.876451 0
788 1 0.114417 0.893686 0
789 1 0.13818 0.886578 0
791 1 0.161776 0.880696 0
823 1 0.180116 0.900519 0
790 1 0.155259 0.905326 0
764 1 0.211151 0.866838 0
792 1 0.185618 0.876489 0
793 1 0.203765 0.893196 0
795 1 0.22858 0.887805 0
796 1 0.25231 0.884878 0
827 1 0.269182 0.901671 0
825 1 0.245292 0.908009 0
797 1 0.276903 0.875784 0
799 1 0.308408 0.880706 0
798 1 0.292952 0.89944 0
829 1 0.316051 0.905318 0
800 1 0.332968 0.887932 0
801 1 0.348269 0.869002 0
802 1 0.35734 0.892261 0
772 1 0.37352 0.873673 0
805 1 0.398188 0.879837 0
804 1 0.381388 0.897743 0
806 1 0.406006 0.903443 0
778 1 0.440289 0.866892 0
807 1 0.423652 0.884504 0
808 1 0.447518 0.890938 0
837 1 0.430224 0.909204 0
809 1 0.463507 0.871496 0
1681 1 0.488796 0.876695 0
810 1 0.4715 0.895763 0
1711 1 0.495272 0.902203 0
842 1 0.0102991 0.945052 0
843 1 0.0170095 0.919674 0
844 1 0.0334744 0.938451 0
814 1 0.0412815 0.91424 0
816 1 0.082492 0.925308 0
845 1 0.058775 0.932558 0
846 1 0.0759667 0.950138 0
819 1 0.131666 0.912634 0
817 1 0.106893 0.919194 0
818 1 0.124067 0.937713 0
847 1 0.0995578 0.943666 0
821 1 0.172488 0.925025 0
820 1 0.149214 0.931704 0
851 1 0.166448 0.949444 0
794 1 0.221124 0.912281 0
824 1 0.197037 0.918795 0
822 1 0.190072 0.943568 0
853 1 0.213639 0.938315 0
855 1 0.237477 0.931772 0
826 1 0.262501 0.925546 0
856 1 0.255985 0.951431 0
828 1 0.297647 0.923113 0
857 1 0.280407 0.942955 0
859 1 0.304432 0.947822 0
831 1 0.340305 0.911169 0
830 1 0.321972 0.929386 0
832 1 0.347132 0.935238 0
860 1 0.329482 0.952924 0
833 1 0.364281 0.91578 0
863 1 0.373527 0.939123 0
834 1 0.389546 0.920895 0
865 1 0.397574 0.945459 0
835 1 0.413726 0.926415 0
838 1 0.438595 0.932746 0
836 1 0.422112 0.951235 0
839 1 0.455292 0.914699 0
1741 1 0.486834 0.944519 0
840 1 0.479122 0.919951 0
869 1 0.463019 0.938444 0
872 1 0.0211209 0.986938 0
873 1 0.0280074 0.963044 0
871 1 0.0041654 0.969361 0
874 1 0.0445491 0.981532 0
875 1 0.052481 0.956949 0
876 1 0.0690193 0.974744 0
7 1 0.0867338 0.992766 0
870 1 0.470502 0.962319 0
877 1 0.0937522 0.968785 0
848 1 0.117936 0.961952 0
878 1 0.111416 0.985608 0
879 1 0.135816 0.979027 0
849 1 0.14143 0.955183 0
850 1 0.159229 0.97354 0
11 1 0.176734 0.991691 0
881 1 0.152905 0.998784 0
852 1 0.183406 0.967438 0
882 1 0.200157 0.986388 0
883 1 0.207177 0.962328 0
884 1 0.225015 0.98061 0
886 1 0.243255 0.998868 0
854 1 0.232415 0.957384 0
885 1 0.249827 0.975497 0
17 1 0.268225 0.992811 0
887 1 0.276383 0.968376 0
858 1 0.312096 0.971917 0
888 1 0.294683 0.9896 0
861 1 0.356043 0.957686 0
889 1 0.322262 0.994629 0
891 1 0.338656 0.975527 0
862 1 0.364277 0.981286 0
890 1 0.34748 0.999458 0
864 1 0.380552 0.963563 0
893 1 0.388615 0.988214 0
895 1 0.405354 0.969281 0
896 1 0.413478 0.994034 0
867 1 0.446416 0.956846 0
868 1 0.454164 0.981786 0
866 1 0.429188 0.975232 0
897 1 0.437478 1.00011 0
1441 1 0.499538 0.562536 0
5 1 0.0626741 0.99872 0
692 1 -0.000486664 0.810662 0
902 1 0.536065 0.0228376 0
931 1 0.519038 0.0415729 0
901 1 0.512214 0.0169453 0
904 1 0.55914 0.0281513 0
906 1 0.57595 0.0102621 0
935 1 0.58249 0.0347783 0
905 1 0.55186 0.00458625 0
908 1 0.599743 0.0167879 0
937 1 0.607557 0.0411645 0
939 1 0.625944 0.0222811 0
940 1 0.649288 0.0285737 0
971 1 0.672464 0.0351796 0
942 1 0.667094 0.00930986 0
941 1 0.64196 0.00331068 0
944 1 0.695812 0.0307666 0
945 1 0.719357 0.0241625 0
943 1 0.700943 0.00548962 0
947 1 0.743125 0.0158898 0
948 1 0.762199 0.0336038 0
918 1 0.767595 0.00922277 0
946 1 0.737506 0.0412091 0
919 1 0.791309 0.00249998 0
949 1 0.78498 0.026205 0
920 1 0.809837 0.02109 0
951 1 0.833912 0.0135804 0
952 1 0.852624 0.0317038 0
922 1 0.85872 0.0070036 0
950 1 0.827129 0.0379708 0
953 1 0.876458 0.0255954 0
955 1 0.900496 0.0186522 0
924 1 0.88215 0.00128625 0
954 1 0.894282 0.0430554 0
926 1 0.924406 0.0122684 0
928 1 0.948684 0.00575341 0
957 1 0.941792 0.0300878 0
956 1 0.917912 0.0373837 0
930 1 0.989509 0.0176805 0
959 1 0.966463 0.0248586 0
60 1 0.50044 0.0603212 0
960 1 0.984217 0.0424187 0
933 1 0.542434 0.0479478 0
932 1 0.524844 0.0663834 0
962 1 0.5318 0.0906683 0
961 1 0.507694 0.0847319 0
934 1 0.567182 0.0540191 0
963 1 0.549204 0.0721016 0
965 1 0.573075 0.0785654 0
936 1 0.590573 0.059856 0
938 1 0.631925 0.0471274 0
966 1 0.597351 0.0852082 0
967 1 0.61418 0.065948 0
968 1 0.621246 0.0909166 0
969 1 0.637361 0.071791 0
970 1 0.656422 0.0533815 0
999 1 0.661016 0.0777047 0
975 1 0.713044 0.0486732 0
972 1 0.685354 0.0808287 0
973 1 0.688737 0.0557191 0
1003 1 0.708043 0.0733914 0
1004 1 0.725514 0.0898211 0
974 1 0.731587 0.0651612 0
976 1 0.755553 0.0580201 0
1005 1 0.749372 0.0825965 0
979 1 0.802205 0.0444276 0
1007 1 0.773255 0.0758187 0
977 1 0.778589 0.0505418 0
978 1 0.796945 0.0690204 0
1009 1 0.815026 0.0861055 0
980 1 0.820448 0.0622823 0
981 1 0.844707 0.0560876 0
1011 1 0.840138 0.0801194 0
982 1 0.863418 0.0741724 0
983 1 0.87066 0.050537 0
984 1 0.888232 0.0682614 0
1015 1 0.905353 0.0872338 0
985 1 0.911567 0.0632804 0
986 1 0.929788 0.0804011 0
987 1 0.93553 0.0562509 0
988 1 0.953028 0.0735444 0
958 1 0.959043 0.049517 0
989 1 0.977696 0.0667714 0
990 1 0.994762 0.0843821 0
991 1 0.514581 0.108329 0
992 1 0.520926 0.133621 0
993 1 0.537152 0.115797 0
964 1 0.555821 0.0976252 0
994 1 0.562472 0.121568 0
995 1 0.580249 0.103824 0
996 1 0.586455 0.129216 0
997 1 0.604079 0.110429 0
1027 1 0.609985 0.134778 0
998 1 0.628107 0.115776 0
1000 1 0.646664 0.0976271 0
1001 1 0.671506 0.103087 0
1030 1 0.651608 0.123273 0
1032 1 0.674895 0.130822 0
1031 1 0.696469 0.121319 0
1002 1 0.702706 0.0975712 0
1033 1 0.719917 0.114334 0
1035 1 0.74387 0.107304 0
1006 1 0.767047 0.100531 0
1036 1 0.761071 0.124955 0
1034 1 0.737522 0.131707 0
1008 1 0.791715 0.0933089 0
1037 1 0.785372 0.118028 0
1039 1 0.808987 0.111318 0
1040 1 0.826241 0.127659 0
1010 1 0.833256 0.10401 0
1012 1 0.857112 0.0987425 0
1041 1 0.850394 0.12246 0
1043 1 0.87492 0.117297 0
1013 1 0.881981 0.0924039 0
1014 1 0.898525 0.110888 0
1016 1 0.917002 0.130147 0
1017 1 0.923277 0.104827 0
1018 1 0.947194 0.0981284 0
1047 1 0.940703 0.12339 0
1019 1 0.970829 0.092147 0
1020 1 0.988099 0.109868 0
1049 1 0.964693 0.117594 0
1050 1 0.982236 0.135808 0
1023 1 0.545054 0.138738 0
1021 1 0.503068 0.151767 0
1022 1 0.527926 0.157323 0
1051 1 0.509674 0.176556 0
1025 1 0.569337 0.146562 0
1024 1 0.551334 0.163603 0
1055 1 0.576087 0.170543 0
1029 1 0.634436 0.140814 0
1026 1 0.593236 0.153565 0
1028 1 0.616708 0.159632 0
1057 1 0.599107 0.178301 0
1058 1 0.64058 0.167041 0
1059 1 0.658145 0.149365 0
1060 1 0.665583 0.173559 0
1063 1 0.713463 0.138798 0
1061 1 0.683528 0.155193 0
1062 1 0.707108 0.162883 0
1091 1 0.689689 0.180154 0
1064 1 0.731586 0.156443 0
1065 1 0.755987 0.149071 0
1095 1 0.751043 0.174556 0
1066 1 0.774215 0.166787 0
1038 1 0.803111 0.135273 0
1067 1 0.7805 0.142645 0
1068 1 0.797478 0.159277 0
1099 1 0.814537 0.176851 0
1069 1 0.821365 0.152492 0
1071 1 0.844588 0.14624 0
1070 1 0.83892 0.171179 0
1072 1 0.862731 0.165222 0
1044 1 0.894043 0.134949 0
1042 1 0.868784 0.141269 0
1073 1 0.887151 0.159161 0
1074 1 0.90433 0.178952 0
1045 1 0.911361 0.15367 0
1075 1 0.928515 0.171668 0
1046 1 0.935073 0.148015 0
1077 1 0.952192 0.166026 0
1048 1 0.958359 0.141025 0
1079 1 0.975266 0.16012 0
1080 1 0.992919 0.177367 0
151 1 0.999577 0.152629 0
1053 1 0.533791 0.182741 0
1052 1 0.517061 0.201011 0
1082 1 0.523316 0.226724 0
1083 1 0.540955 0.207317 0
1054 1 0.557714 0.188203 0
1085 1 0.563988 0.212985 0
1056 1 0.581818 0.195622 0
1115 1 0.588583 0.220471 0
1086 1 0.606197 0.202836 0
1087 1 0.622906 0.184112 0
1088 1 0.629851 0.208553 0
1117 1 0.613027 0.227172 0
1089 1 0.647564 0.190897 0
1090 1 0.672073 0.197859 0
1119 1 0.654224 0.215329 0
1121 1 0.679039 0.22167 0
1093 1 0.712921 0.186734 0
1092 1 0.695821 0.204502 0
1123 1 0.719709 0.21262 0
1094 1 0.736742 0.193844 0
1096 1 0.761985 0.197758 0
1125 1 0.744489 0.217592 0
1126 1 0.767917 0.225433 0
1097 1 0.790341 0.184541 0
1127 1 0.78474 0.208113 0
1098 1 0.808998 0.201937 0
1129 1 0.827398 0.219937 0
1100 1 0.833314 0.194663 0
1101 1 0.856389 0.188686 0
1131 1 0.850032 0.21273 0
1102 1 0.873239 0.208508 0
1103 1 0.881303 0.183368 0
1104 1 0.897452 0.204234 0
1135 1 0.938711 0.215181 0
1105 1 0.921562 0.197548 0
1076 1 0.945183 0.19072 0
1107 1 0.963185 0.208816 0
1078 1 0.969007 0.184505 0
1109 1 0.986565 0.2027 0
1110 1 0.996015 0.225257 0
1111 1 0.50591 0.24471 0
1113 1 0.530019 0.251279 0
1112 1 0.513111 0.269473 0
1084 1 0.546662 0.232776 0
1143 1 0.554009 0.256289 0
1114 1 0.571809 0.239354 0
1145 1 0.577806 0.263411 0
1116 1 0.595659 0.244976 0
1147 1 0.61948 0.251713 0
1146 1 0.601636 0.270439 0
1118 1 0.63655 0.234194 0
1149 1 0.64283 0.258287 0
1120 1 0.659936 0.240963 0
1150 1 0.667773 0.265426 0
1151 1 0.684961 0.246867 0
1122 1 0.702209 0.230055 0
1153 1 0.708968 0.254648 0
1152 1 0.69129 0.271714 0
1124 1 0.727445 0.236486 0
1154 1 0.733197 0.261223 0
1155 1 0.75132 0.243666 0
1156 1 0.757732 0.267813 0
1157 1 0.775696 0.250293 0
1128 1 0.793307 0.233043 0
1158 1 0.799503 0.257248 0
1159 1 0.816653 0.241483 0
1160 1 0.824181 0.265245 0
1130 1 0.841803 0.245518 0
1191 1 0.849157 0.271257 0
1132 1 0.863384 0.232259 0
1161 1 0.868595 0.256026 0
1133 1 0.88687 0.234968 0