ITEM: TIMESTEP
505000
ITEM: NUMBER OF ATOMS
1800
ITEM: BOX BOUNDS pp pp pp
-1.7727942266649379e+01 1.8272794226665104e+02
2.1646264274946674e+00 1.6283537357250748e+02
0.0000000000000000e+00 5.5000000000000000e+00
ITEM: ATOMS id type xs ys zs
928 1 0.015771 0.0124517 0
957 1 0.0111528 0.0371324 0
959 1 0.0300442 0.0301412 0
929 1 0.0351515 0.00418682 0
930 1 0.0488929 0.0225792 0
31 1 0.0642905 0.0400403 0
2 1 0.069106 0.0163376 0
33 1 0.0838719 0.0330309 0
3 1 0.0890263 0.00772632 0
4 1 0.103755 0.0258648 0
6 1 0.123155 0.0187964 0
37 1 0.137498 0.0363657 0
35 1 0.1172 0.0434071 0
5 1 0.108731 0.000899448 0
8 1 0.142719 0.011253 0
39 1 0.156974 0.0286717 0
880 1 0.161873 0.00476999 0
9 1 0.176695 0.0214899 0
40 1 0.191258 0.0398904 0
10 1 0.196265 0.0156287 0
41 1 0.21025 0.03366 0
12 1 0.215755 0.0096251 0
14 1 0.230364 0.0264241 0
45 1 0.245097 0.0449129 0
15 1 0.249115 0.0201536 0
46 1 0.268866 0.0174951 0
77 1 0.272946 0.0424966 0
47 1 0.287954 0.0246775 0
19 1 0.301723 0.00610183 0
49 1 0.307213 0.0307271 0
20 1 0.322297 0.0131697 0
51 1 0.327405 0.0374171 0
21 1 0.341921 0.0190566 0
22 1 0.347717 0.0432585 0
892 1 0.355826 0.000831387 0
23 1 0.361215 0.0255931 0
894 1 0.375341 0.00761007 0
24 1 0.381333 0.0316801 0
25 1 0.395053 0.0139253 0
26 1 0.400513 0.0380424 0
27 1 0.414461 0.0196792 0
28 1 0.420376 0.0457429 0
29 1 0.434164 0.0271329 0
900 1 0.449001 0.0091811 0
30 1 0.455156 0.0339365 0
898 1 0.428738 0.0013909 0
902 1 0.487796 0.0213673 0
901 1 0.468571 0.0148351 0
931 1 0.474382 0.0401029 0
988 1 0.0201135 0.0798114 0
958 1 0.0255706 0.0551252 0
987 1 0.00630555 0.0621366 0
986 1 0.0011624 0.0864636 0
960 1 0.0441157 0.0472572 0
989 1 0.0395781 0.0724581 0
61 1 0.0590459 0.0636081 0
990 1 0.0541121 0.089293 0
62 1 0.0735895 0.0812099 0
32 1 0.0793754 0.056849 0
63 1 0.0934404 0.0746171 0
34 1 0.0984432 0.0511242 0
65 1 0.112499 0.0681136 0
66 1 0.127384 0.0853783 0
36 1 0.13196 0.0607521 0
69 1 0.17104 0.046251 0
67 1 0.145822 0.0780915 0
38 1 0.151667 0.0535101 0
68 1 0.16613 0.0711373 0
71 1 0.185536 0.0639234 0
72 1 0.200244 0.0815096 0
42 1 0.205185 0.0577529 0
70 1 0.180619 0.0886316 0
43 1 0.22527 0.0505897 0
73 1 0.219829 0.0748284 0
44 1 0.239726 0.0688487 0
74 1 0.264546 0.0856617 0
75 1 0.25948 0.0621776 0
76 1 0.279537 0.0671239 0
48 1 0.292369 0.0489691 0
79 1 0.298555 0.0730491 0
50 1 0.312426 0.0546125 0
81 1 0.317973 0.0797303 0
52 1 0.332159 0.0622692 0
82 1 0.337823 0.0860863 0
83 1 0.352115 0.0686566 0
53 1 0.366637 0.0504608 0
54 1 0.371693 0.0746366 0
55 1 0.386183 0.0569667 0
56 1 0.392159 0.0809611 0
57 1 0.405845 0.0623524 0
87 1 0.411069 0.0875145 0
58 1 0.425624 0.0694644 0
59 1 0.439907 0.0508187 0
89 1 0.445977 0.0758872 0
60 1 0.459936 0.0580366 0
933 1 0.493869 0.0466399 0
961 1 0.46513 0.0812926 0
963 1 0.498945 0.0705977 0
932 1 0.479368 0.064524 0
962 1 0.484285 0.0891031 0
1047 1 0.0119694 0.129721 0
1018 1 0.015982 0.105634 0
1049 1 0.0303139 0.123331 0
1019 1 0.0346893 0.0964223 0
1020 1 0.0502871 0.116088 0
121 1 0.0645779 0.133321 0
91 1 0.0692977 0.106505 0
92 1 0.0836446 0.123853 0
93 1 0.08865 0.0991756 0
94 1 0.101962 0.117612 0
64 1 0.108409 0.0933646 0
95 1 0.122981 0.110269 0
96 1 0.137269 0.127504 0
125 1 0.116333 0.134684 0
97 1 0.142402 0.103081 0
98 1 0.156769 0.120323 0
99 1 0.1614 0.0952855 0
100 1 0.17603 0.112812 0
130 1 0.190433 0.129992 0
101 1 0.195042 0.105936 0
102 1 0.209765 0.122316 0
105 1 0.233651 0.0933937 0
103 1 0.214408 0.0985603 0
104 1 0.236149 0.119076 0
78 1 0.28437 0.0906884 0
106 1 0.250694 0.102937 0
137 1 0.255971 0.127813 0
107 1 0.270733 0.109247 0
108 1 0.276228 0.134332 0
109 1 0.289619 0.116409 0
80 1 0.30402 0.097067 0
110 1 0.310193 0.12223 0
111 1 0.323947 0.103538 0
141 1 0.329661 0.127495 0
113 1 0.343895 0.110119 0
143 1 0.34882 0.135739 0
84 1 0.35844 0.0934858 0
112 1 0.363371 0.117907 0
85 1 0.377359 0.098505 0
115 1 0.382922 0.122805 0
86 1 0.396641 0.105724 0
116 1 0.40184 0.1294 0
117 1 0.416886 0.111246 0
118 1 0.421572 0.136358 0
88 1 0.430894 0.0932108 0
119 1 0.435781 0.117821 0
90 1 0.451233 0.0998893 0
120 1 0.455484 0.12482 0
991 1 0.470552 0.106901 0
992 1 0.475837 0.130982 0
993 1 0.489912 0.113549 0
1075 1 0.00212365 0.179461 0
1048 1 0.0264247 0.147432 0
1077 1 0.0217321 0.172593 0
1046 1 0.00665584 0.154569 0
1079 1 0.0408445 0.165112 0
1050 1 0.0458079 0.140415 0
151 1 0.0604825 0.157866 0
152 1 0.0750687 0.175734 0
122 1 0.0791459 0.150353 0
153 1 0.0936659 0.168396 0
123 1 0.0972817 0.142183 0
124 1 0.112222 0.15813 0
126 1 0.13207 0.151179 0
155 1 0.126991 0.175478 0
129 1 0.17088 0.137852 0
157 1 0.146771 0.169745 0
127 1 0.151886 0.144628 0
128 1 0.16702 0.162451 0
159 1 0.185895 0.153851 0
132 1 0.194016 0.176417 0
131 1 0.206432 0.15633 0
133 1 0.222508 0.141457 0
134 1 0.227411 0.164573 0
135 1 0.241439 0.146021 0
165 1 0.247145 0.170281 0
136 1 0.2614 0.151746 0
167 1 0.266956 0.176204 0
138 1 0.281297 0.157494 0
139 1 0.295594 0.140358 0
169 1 0.300826 0.164502 0
140 1 0.314909 0.146173 0
171 1 0.320419 0.170449 0
142 1 0.334239 0.152359 0
172 1 0.340283 0.177699 0
173 1 0.354427 0.160118 0
114 1 0.368431 0.141322 0
144 1 0.374014 0.1655 0
145 1 0.388142 0.148157 0
146 1 0.393815 0.173224 0
147 1 0.40733 0.15421 0
177 1 0.413547 0.17906 0
148 1 0.427478 0.160908 0
149 1 0.441278 0.141824 0
150 1 0.44719 0.166083 0
1021 1 0.461826 0.148603 0
1051 1 0.465658 0.173477 0
1023 1 0.495846 0.1378 0
1022 1 0.481426 0.156001 0
1053 1 0.485849 0.180894 0
1076 1 0.0158799 0.197441 0
1106 1 0.0122835 0.222668 0
1107 1 0.0305611 0.213732 0
1080 1 0.0556429 0.181658 0
1078 1 0.0362393 0.189946 0
1109 1 0.0516025 0.208438 0
181 1 0.0705887 0.199141 0
182 1 0.0766886 0.223369 0
183 1 0.091061 0.204885 0
154 1 0.107366 0.187301 0
185 1 0.111183 0.213393 0
156 1 0.126736 0.198715 0
186 1 0.13156 0.223164 0
158 1 0.145972 0.204783 0
160 1 0.160733 0.186663 0
189 1 0.166088 0.211658 0
161 1 0.17927 0.192779 0
191 1 0.18484 0.217887 0
162 1 0.198757 0.200546 0
192 1 0.204483 0.224804 0
163 1 0.213038 0.181416 0
193 1 0.218676 0.206461 0
164 1 0.232134 0.188683 0
195 1 0.237944 0.21239 0
166 1 0.252346 0.193395 0
196 1 0.257664 0.21934 0
197 1 0.271572 0.200582 0
198 1 0.277154 0.22464 0
168 1 0.286049 0.183134 0
199 1 0.291349 0.207742 0
170 1 0.305468 0.189322 0
200 1 0.310974 0.213979 0
201 1 0.325191 0.195319 0
202 1 0.330923 0.22026 0
203 1 0.345125 0.201918 0
233 1 0.351239 0.22715 0
174 1 0.359824 0.184363 0
204 1 0.36543 0.208801 0
175 1 0.379523 0.190508 0
205 1 0.385064 0.215327 0
176 1 0.398709 0.198021 0
207 1 0.404988 0.221095 0
178 1 0.419007 0.20248 0
179 1 0.433791 0.184651 0
209 1 0.438636 0.209166 0
180 1 0.452868 0.191495 0
1081 1 0.457626 0.215946 0
1052 1 0.471655 0.197821 0
1082 1 0.476834 0.223442 0
1083 1 0.491796 0.20499 0
1108 1 0.0281419 0.252492 0
1136 1 0.00662705 0.246729 0
1137 1 0.0140251 0.270985 0
1110 1 0.0439438 0.233211 0
1140 1 0.0479813 0.260249 0
211 1 0.0628736 0.242034 0
212 1 0.0678095 0.266667 0
213 1 0.0821277 0.248361 0
184 1 0.0964828 0.231598 0
214 1 0.101567 0.255945 0
215 1 0.11624 0.238591 0
216 1 0.12115 0.263296 0
217 1 0.136028 0.24669 0
218 1 0.141092 0.270516 0
187 1 0.151233 0.228634 0
188 1 0.155777 0.252857 0
190 1 0.170433 0.235324 0
220 1 0.174759 0.259533 0
221 1 0.190285 0.24175 0
222 1 0.194239 0.265706 0
223 1 0.209897 0.248747 0
194 1 0.224367 0.230533 0
224 1 0.229555 0.255424 0
225 1 0.243269 0.236741 0
226 1 0.248447 0.261491 0
253 1 0.214794 0.272708 0
227 1 0.263445 0.243906 0
257 1 0.268363 0.267962 0
228 1 0.282991 0.250857 0
229 1 0.296744 0.231999 0
230 1 0.302767 0.256517 0
231 1 0.316527 0.238313 0
261 1 0.322306 0.263158 0
232 1 0.33666 0.245075 0
263 1 0.342098 0.269324 0
234 1 0.35618 0.252401 0
235 1 0.369921 0.233958 0
265 1 0.376198 0.25799 0
206 1 0.389759 0.239472 0
208 1 0.423861 0.226314 0
236 1 0.395266 0.264351 0
237 1 0.40952 0.244973 0
238 1 0.414531 0.270778 0
239 1 0.428705 0.251864 0
210 1 0.443687 0.233312 0
240 1 0.449125 0.258383 0
1111 1 0.463235 0.240919 0
1112 1 0.468233 0.265368 0
1113 1 0.482946 0.248162 0
1084 1 0.496547 0.229728 0
1142 1 0.488371 0.27258 0
1167 1 0.000235749 0.289025 0
1138 1 0.0198666 0.295805 0
1197 1 0.00482533 0.312921 0
1139 1 0.0337696 0.277153 0
1169 1 0.0388172 0.302652 0
241 1 0.0534423 0.284322 0
271 1 0.0586382 0.309707 0
243 1 0.087493 0.27329 0
242 1 0.0730337 0.290684 0
244 1 0.0923777 0.297948 0
273 1 0.0781705 0.316169 0
245 1 0.107436 0.280927 0
246 1 0.112006 0.305414 0
247 1 0.125795 0.288772 0
248 1 0.131942 0.312143 0
249 1 0.145949 0.295579 0
219 1 0.159938 0.277351 0
250 1 0.166171 0.301866 0
251 1 0.180104 0.284473 0
281 1 0.185014 0.308255 0
252 1 0.199976 0.290082 0
283 1 0.20472 0.314574 0
254 1 0.219566 0.296541 0
255 1 0.2341 0.279346 0
285 1 0.239142 0.304121 0
256 1 0.253861 0.286412 0
287 1 0.258954 0.310897 0
258 1 0.273351 0.29273 0
288 1 0.278765 0.317143 0
259 1 0.287868 0.274715 0
289 1 0.293015 0.299196 0
260 1 0.306979 0.280811 0
291 1 0.312987 0.305658 0
262 1 0.326587 0.287646 0
292 1 0.332305 0.311625 0
293 1 0.346807 0.292928 0
294 1 0.351447 0.317852 0
264 1 0.362008 0.276341 0
295 1 0.3666 0.300767 0
266 1 0.380796 0.282155 0
297 1 0.386502 0.307498 0
267 1 0.400545 0.287761 0
298 1 0.405765 0.31339 0
268 1 0.419438 0.295742 0
269 1 0.433598 0.276477 0
270 1 0.439977 0.299757 0
1141 1 0.454623 0.284802 0
300 1 0.460217 0.308121 0
1171 1 0.473754 0.290268 0
1172 1 0.479597 0.314593 0
1173 1 0.494016 0.296922 0
1168 1 0.0247187 0.321144 0
1199 1 0.0300538 0.34531 0
1198 1 0.00963424 0.337843 0
1228 1 0.0156089 0.362713 0
1170 1 0.0444777 0.327829 0
1229 1 0.0498511 0.352893 0
1200 1 0.0642104 0.334386 0
301 1 0.0685799 0.35926 0
272 1 0.0833437 0.341557 0
275 1 0.0969581 0.322679 0
274 1 0.103529 0.348375 0
276 1 0.116864 0.329824 0
305 1 0.12295 0.354165 0
277 1 0.13645 0.336651 0
307 1 0.141898 0.36145 0
279 1 0.151952 0.319824 0
278 1 0.156746 0.344683 0
280 1 0.170691 0.327199 0
311 1 0.176382 0.350827 0
282 1 0.190609 0.332646 0
312 1 0.196002 0.35672 0
313 1 0.210736 0.338828 0
284 1 0.22466 0.321204 0
315 1 0.230046 0.345696 0
286 1 0.243939 0.328912 0
316 1 0.249556 0.35298 0
317 1 0.263797 0.335254 0
318 1 0.269135 0.359568 0
319 1 0.283528 0.341299 0
290 1 0.297974 0.32359 0
320 1 0.302973 0.347819 0
321 1 0.31748 0.331004 0
322 1 0.322836 0.354042 0
323 1 0.337257 0.336051 0
324 1 0.342398 0.361493 0
325 1 0.357169 0.342695 0
296 1 0.370929 0.324637 0
326 1 0.376658 0.350717 0
327 1 0.390926 0.332393 0
299 1 0.426719 0.319584 0
328 1 0.396741 0.355965 0
329 1 0.411423 0.337726 0
358 1 0.416556 0.361997 0
359 1 0.431756 0.343586 0
330 1 0.44543 0.324741 0
360 1 0.450975 0.350203 0
1201 1 0.465407 0.332944 0
1202 1 0.485001 0.339826 0
1231 1 0.470514 0.358093 0
1203 1 0.499122 0.321534 0
1287 1 0.00597251 0.406587 0
1258 1 0.0192505 0.388776 0
1259 1 0.0351729 0.369519 0
1257 1 0.000381566 0.381202 0
1260 1 0.0391194 0.394019 0
1230 1 0.0534578 0.377584 0
331 1 0.0590002 0.401735 0
303 1 0.0893528 0.36573 0
302 1 0.0732945 0.383281 0
333 1 0.0935202 0.39041 0
332 1 0.0789101 0.408768 0
304 1 0.108524 0.372497 0
335 1 0.113852 0.398366 0
306 1 0.127745 0.38045 0
337 1 0.133079 0.405045 0
308 1 0.14724 0.387175 0
309 1 0.161103 0.37005 0
339 1 0.167286 0.39347 0
310 1 0.181427 0.375314 0
341 1 0.18709 0.39964 0
343 1 0.201598 0.381685 0
342 1 0.20642 0.406254 0
314 1 0.215964 0.363336 0
344 1 0.220599 0.388823 0
345 1 0.235053 0.371133 0
346 1 0.239994 0.39632 0
347 1 0.254503 0.378953 0
377 1 0.260727 0.402351 0
348 1 0.274999 0.385113 0
378 1 0.280561 0.409387 0
349 1 0.288876 0.365457 0
350 1 0.29484 0.390448 0
351 1 0.308478 0.372249 0
381 1 0.313822 0.397725 0
353 1 0.328597 0.377961 0
352 1 0.333939 0.402537 0
354 1 0.347662 0.384705 0
355 1 0.362251 0.367727 0
356 1 0.367923 0.391973 0
357 1 0.382192 0.374233 0
386 1 0.387699 0.399115 0
387 1 0.402054 0.380729 0
388 1 0.407642 0.404082 0
389 1 0.421871 0.387008 0
1232 1 0.43593 0.368441 0
1261 1 0.441392 0.394108 0
1262 1 0.455045 0.374645 0
1293 1 0.461576 0.400138 0
1233 1 0.489783 0.362864 0
1263 1 0.475685 0.382664 0
1294 1 0.481491 0.406706 0
1264 1 0.495262 0.387267 0
1289 1 0.02494 0.412211 0
1319 1 0.0304561 0.437002 0
1288 1 0.0104229 0.430708 0
1318 1 0.0154058 0.455385 0
1290 1 0.0440841 0.418517 0
391 1 0.0498008 0.443999 0
361 1 0.0638286 0.425848 0
362 1 0.0694874 0.45061 0
363 1 0.0846231 0.433429 0
334 1 0.0986154 0.41517 0
365 1 0.104301 0.441051 0
336 1 0.118955 0.422288 0
366 1 0.122936 0.446347 0
367 1 0.138196 0.42938 0
368 1 0.143231 0.45399 0
338 1 0.152599 0.410952 0
369 1 0.157538 0.435645 0
340 1 0.172505 0.417745 0
370 1 0.178074 0.441481 0
371 1 0.19237 0.424528 0
401 1 0.19699 0.448943 0
372 1 0.211768 0.430701 0
373 1 0.225694 0.413399 0
374 1 0.231051 0.438246 0
375 1 0.24526 0.41941 0
405 1 0.251185 0.445033 0
376 1 0.26483 0.426392 0
407 1 0.27067 0.451462 0
409 1 0.284526 0.433677 0
379 1 0.299572 0.415313 0
380 1 0.304979 0.440171 0
382 1 0.31868 0.421363 0
385 1 0.353051 0.409675 0
413 1 0.324378 0.44587 0
383 1 0.337774 0.427337 0
412 1 0.343977 0.451487 0
414 1 0.357753 0.434182 0
384 1 0.372484 0.416212 0
415 1 0.377699 0.440157 0
417 1 0.393406 0.423298 0
419 1 0.42709 0.41073 0
416 1 0.397833 0.447471 0
418 1 0.413297 0.429146 0
447 1 0.417319 0.453841 0
390 1 0.432683 0.436076 0
1291 1 0.44722 0.418062 0
1321 1 0.451793 0.44218 0
1292 1 0.466706 0.424628 0
1323 1 0.486734 0.430812 0
1322 1 0.472376 0.448685 0
1352 1 0.481542 0.497736 0
1348 1 0.00131491 0.473873 0
1349 1 0.021444 0.480353 0
1379 1 0.00672012 0.497154 0
1320 1 0.0358495 0.462085 0
421 1 0.0409876 0.486387 0
392 1 0.055999 0.468843 0
422 1 0.060156 0.493146 0
393 1 0.075203 0.475532 0
364 1 0.0894312 0.458088 0
394 1 0.0947589 0.482358 0
395 1 0.109118 0.465846 0
396 1 0.114239 0.489348 0
397 1 0.128959 0.47124 0
427 1 0.133932 0.495231 0
398 1 0.148982 0.477889 0
399 1 0.163195 0.459604 0
429 1 0.168326 0.48461 0
400 1 0.182648 0.465795 0
431 1 0.187931 0.491094 0
402 1 0.202288 0.473777 0
432 1 0.207249 0.498083 0
403 1 0.215992 0.455838 0
433 1 0.221766 0.480789 0
404 1 0.23621 0.462671 0
435 1 0.241635 0.486167 0
406 1 0.256004 0.468453 0
436 1 0.260741 0.492956 0
408 1 0.276436 0.475368 0
13 1 0.235106 0.00191856 0
410 1 0.290551 0.457095 0
441 1 0.295507 0.481743 0
411 1 0.309906 0.463746 0
440 1 0.315863 0.488098 0
442 1 0.329828 0.46947 0
471 1 0.335521 0.495079 0
473 1 0.349139 0.476599 0
443 1 0.363637 0.458308 0
444 1 0.368285 0.482036 0
445 1 0.382828 0.465166 0
475 1 0.388286 0.48964 0
448 1 0.42295 0.47858 0
446 1 0.403278 0.471631 0
477 1 0.408576 0.496693 0
1351 1 0.462476 0.491253 0
420 1 0.437522 0.460556 0
449 1 0.442323 0.485337 0
450 1 0.456155 0.466698 0
1354 1 0.495988 0.478687 0
1353 1 0.47584 0.472855 0
1324 1 0.491644 0.454822 0
1380 1 0.0322697 0.530239 0
1350 1 0.0269144 0.505732 0
451 1 0.0467341 0.51194 0
452 1 0.0513532 0.537592 0
453 1 0.0662075 0.519029 0
454 1 0.0714937 0.543051 0
424 1 0.0861109 0.524671 0
425 1 0.100321 0.506802 0
455 1 0.105644 0.531084 0
1505 1 0.499728 0.662028 0
426 1 0.120228 0.512912 0
456 1 0.124744 0.539465 0
457 1 0.13944 0.520278 0
458 1 0.144572 0.544267 0
459 1 0.159157 0.527219 0
430 1 0.173858 0.508915 0
428 1 0.153742 0.50233 0
460 1 0.17883 0.53314 0
461 1 0.193157 0.516164 0
462 1 0.198075 0.540154 0
463 1 0.212756 0.522336 0
434 1 0.226994 0.504877 0
464 1 0.232172 0.528883 0
465 1 0.246125 0.510436 0
466 1 0.252461 0.534803 0
437 1 0.266389 0.517385 0
497 1 0.272283 0.542796 0
467 1 0.286419 0.524588 0
438 1 0.300818 0.506849 0
468 1 0.305854 0.530476 0
469 1 0.321021 0.512178 0
499 1 0.325876 0.537944 0
470 1 0.34034 0.519444 0
501 1 0.345295 0.544045 0
472 1 0.354728 0.501104 0
503 1 0.360134 0.526061 0
474 1 0.373453 0.508448 0
505 1 0.378607 0.531906 0
476 1 0.394029 0.514793 0
506 1 0.400273 0.537955 0
507 1 0.414594 0.5208 0
509 1 0.419016 0.545467 0
478 1 0.428246 0.502569 0
480 1 0.433442 0.527817 0
479 1 0.448387 0.509232 0
510 1 0.453919 0.533911 0
1381 1 0.468169 0.516177 0
1382 1 0.487975 0.522393 0
1411 1 0.472697 0.540857 0
1409 1 0.0170865 0.547181 0
1408 1 0.0212749 0.572678 0
481 1 0.036674 0.554458 0
1410 1 0.0419406 0.580048 0
483 1 0.0561928 0.56123 0
482 1 0.0620239 0.586525 0
485 1 0.0907664 0.550166 0
513 1 0.0762799 0.567433 0
484 1 0.0964958 0.574166 0
486 1 0.110014 0.556529 0
515 1 0.1157 0.581388 0
487 1 0.130128 0.563216 0
517 1 0.135718 0.587496 0
488 1 0.149848 0.569068 0
489 1 0.164165 0.551028 0
490 1 0.169519 0.574554 0
491 1 0.184098 0.557026 0
521 1 0.189176 0.581592 0
492 1 0.203809 0.565083 0
523 1 0.209747 0.589487 0
493 1 0.217502 0.546468 0
494 1 0.223656 0.57039 0
495 1 0.238802 0.552917 0
525 1 0.243431 0.577505 0
496 1 0.257794 0.55993 0
526 1 0.263993 0.583663 0
527 1 0.278224 0.566477 0
498 1 0.292147 0.548334 0
529 1 0.297455 0.573783 0
500 1 0.311676 0.554995 0
530 1 0.31662 0.579839 0
531 1 0.331558 0.561433 0
532 1 0.336624 0.58564 0
533 1 0.351167 0.56731 0
502 1 0.365423 0.550171 0
534 1 0.371034 0.57483 0
504 1 0.384544 0.555795 0
535 1 0.389811 0.582055 0
508 1 0.403922 0.563508 0
537 1 0.409705 0.587529 0
539 1 0.423915 0.570286 0
540 1 0.438979 0.551552 0
569 1 0.444277 0.576193 0
1441 1 0.458999 0.559176 0
1442 1 0.464389 0.582634 0
1413 1 0.492946 0.546006 0
1443 1 0.483528 0.589179 0
1412 1 0.478806 0.564418 0
1414 1 0.498852 0.570974 0
1439 1 0.0284855 0.597361 0
1438 1 0.00746287 0.601764 0
1469 1 0.00117819 0.627054 0
1440 1 0.0209652 0.620589 0
511 1 0.0474824 0.604986 0
541 1 0.0535705 0.629296 0
512 1 0.0680165 0.610759 0
514 1 0.0813817 0.591988 0
542 1 0.0737454 0.634826 0
543 1 0.0876223 0.615547 0
545 1 0.101407 0.598416 0
546 1 0.106714 0.622857 0
516 1 0.122044 0.605337 0
547 1 0.126693 0.629975 0
518 1 0.141736 0.611973 0
519 1 0.155501 0.593753 0
548 1 0.161458 0.618013 0
520 1 0.175089 0.600304 0
577 1 0.146274 0.636809 0
549 1 0.180843 0.625818 0
522 1 0.195038 0.60829 0
551 1 0.200734 0.632105 0
553 1 0.214782 0.613066 0
524 1 0.229374 0.595554 0
554 1 0.234842 0.61964 0
555 1 0.248852 0.60194 0
528 1 0.282172 0.591456 0
556 1 0.254202 0.626655 0
557 1 0.268179 0.60908 0
587 1 0.273808 0.632766 0
558 1 0.287332 0.615135 0
559 1 0.301968 0.598079 0
560 1 0.307298 0.622224 0
561 1 0.321071 0.604646 0
563 1 0.356907 0.592697 0
591 1 0.327731 0.628565 0
562 1 0.342063 0.610084 0
564 1 0.347482 0.635357 0
565 1 0.361616 0.617073 0
536 1 0.375831 0.599294 0
566 1 0.381522 0.624497 0
567 1 0.395161 0.605527 0
597 1 0.401639 0.630083 0
568 1 0.415108 0.612077 0
538 1 0.429855 0.594016 0
600 1 0.434815 0.618241 0
570 1 0.448869 0.600474 0
1501 1 0.455263 0.624486 0
1471 1 0.469116 0.606844 0
1472 1 0.474551 0.63171 0
1473 1 0.489469 0.61367 0
1529 1 0.0125611 0.669913 0
1499 1 0.0163137 0.645748 0
1500 1 0.0312219 0.661866 0
1470 1 0.0354674 0.637781 0
571 1 0.0510455 0.655009 0
572 1 0.0641463 0.675649 0
601 1 0.0452373 0.680027 0
544 1 0.0927298 0.641571 0
573 1 0.0783064 0.658652 0
574 1 0.0980376 0.665418 0
575 1 0.111612 0.647127 0
605 1 0.117497 0.673147 0
576 1 0.131776 0.65484 0
607 1 0.137101 0.679456 0
578 1 0.151472 0.66086 0
579 1 0.166486 0.642411 0
609 1 0.17104 0.66767 0
550 1 0.186234 0.648813 0
580 1 0.191696 0.674372 0
581 1 0.20576 0.6568 0
611 1 0.211114 0.680423 0
552 1 0.22083 0.637109 0
582 1 0.22484 0.662732 0
583 1 0.239659 0.643756 0
584 1 0.24431 0.668733 0
585 1 0.259431 0.65218 0
615 1 0.265513 0.676007 0
586 1 0.279189 0.657781 0
589 1 0.293004 0.640097 0
588 1 0.299447 0.664643 0
590 1 0.313107 0.646731 0
621 1 0.319174 0.671442 0
593 1 0.332736 0.652664 0
592 1 0.338508 0.67757 0
594 1 0.352577 0.659763 0
595 1 0.367319 0.640876 0
625 1 0.372612 0.665306 0
596 1 0.386737 0.648135 0
627 1 0.392495 0.67164 0
599 1 0.421007 0.63651 0
598 1 0.405871 0.654751 0
657 1 0.411546 0.678153 0
628 1 0.426101 0.660606 0
629 1 0.441028 0.64229 0
630 1 0.445711 0.667063 0
1502 1 0.459898 0.648915 0
1533 1 0.464853 0.673698 0
1474 1 0.49402 0.637846 0
1503 1 0.480411 0.655305 0
1504 1 0.485531 0.680348 0
1558 1 0.00182424 0.720177 0
1559 1 0.00705408 0.694152 0
1530 1 0.0266864 0.687907 0
1560 1 0.0220591 0.713621 0
631 1 0.0416597 0.704443 0
602 1 0.0679574 0.700675 0
632 1 0.0565118 0.72215 0
603 1 0.0833489 0.684125 0
633 1 0.0876543 0.710371 0
604 1 0.102003 0.690779 0
635 1 0.107243 0.716221 0
606 1 0.121453 0.696831 0
636 1 0.126885 0.721519 0
637 1 0.142386 0.702935 0
608 1 0.156911 0.685455 0
638 1 0.161798 0.709847 0
639 1 0.176578 0.691244 0
667 1 0.147259 0.727304 0
641 1 0.18181 0.715959 0
610 1 0.196254 0.6981 0
642 1 0.201936 0.721587 0
612 1 0.216756 0.704446 0
613 1 0.230894 0.687812 0
643 1 0.236698 0.711698 0
614 1 0.251005 0.693034 0
617 1 0.284991 0.682449 0
645 1 0.25602 0.718738 0
616 1 0.270438 0.700262 0
647 1 0.275157 0.724569 0
618 1 0.289637 0.70748 0
619 1 0.304199 0.689062 0
620 1 0.30983 0.713558 0
622 1 0.323645 0.695324 0
651 1 0.329399 0.718935 0
653 1 0.343648 0.701269 0
654 1 0.34886 0.726395 0
623 1 0.358354 0.68382 0
624 1 0.363213 0.708203 0
626 1 0.377548 0.689789 0
655 1 0.382868 0.71444 0
656 1 0.397002 0.695582 0
686 1 0.402544 0.719842 0
658 1 0.416613 0.702135 0
659 1 0.431444 0.685271 0
660 1 0.436824 0.709622 0
1531 1 0.451666 0.692616 0
1561 1 0.456379 0.716729 0
1532 1 0.470554 0.698678 0
1563 1 0.476041 0.722136 0
1534 1 0.490911 0.703886 0
1619 1 0.01173 0.76201 0
1589 1 0.0164369 0.737704 0
1590 1 0.0316881 0.754004 0
661 1 0.0363666 0.730247 0
663 1 0.0517726 0.746766 0
662 1 0.0656067 0.7646 0
691 1 0.0455018 0.771173 0
664 1 0.0722313 0.740022 0
695 1 0.0853814 0.759323 0
634 1 0.0926145 0.73462 0
665 1 0.112586 0.741563 0
697 1 0.12002 0.766868 0
666 1 0.133086 0.744452 0
668 1 0.139808 0.767187 0
669 1 0.153894 0.750226 0
640 1 0.167597 0.732826 0
670 1 0.173656 0.757736 0
671 1 0.187627 0.741048 0
672 1 0.19349 0.765218 0
673 1 0.20784 0.748291 0
703 1 0.212602 0.772921 0
644 1 0.221373 0.729947 0
674 1 0.227215 0.754553 0
675 1 0.240875 0.736538 0
705 1 0.246527 0.761675 0
646 1 0.26065 0.743235 0
677 1 0.266077 0.767821 0
648 1 0.280848 0.749907 0
649 1 0.294431 0.731366 0
679 1 0.300012 0.755943 0
650 1 0.314102 0.738041 0
681 1 0.320484 0.762648 0
652 1 0.335113 0.743486 0
682 1 0.339957 0.768794 0
683 1 0.354884 0.751223 0
685 1 0.368513 0.732343 0
684 1 0.374305 0.757421 0
715 1 0.388702 0.739221 0
687 1 0.422931 0.728654 0
714 1 0.393485 0.76411 0
717 1 0.407639 0.745181 0
716 1 0.414096 0.769809 0
688 1 0.427576 0.752109 0
689 1 0.442355 0.735033 0
719 1 0.447733 0.759382 0
690 1 0.461724 0.740464 0
1591 1 0.468037 0.765058 0
1565 1 0.495818 0.728797 0
1562 1 0.481822 0.74682 0
1593 1 0.487312 0.771642 0
1620 1 0.0264038 0.779182 0
1649 1 0.0216657 0.804077 0
1618 1 0.00609667 0.786374 0
1648 1 0.00130595 0.810547 0
721 1 0.040897 0.796261 0
693 1 0.0605681 0.79018 0
692 1 0.0553225 0.814026 0
723 1 0.0747596 0.807247 0
694 1 0.0800543 0.783216 0
725 1 0.095006 0.800523 0
696 1 0.100278 0.775673 0
727 1 0.113743 0.792998 0
728 1 0.128278 0.813392 0
698 1 0.132956 0.790167 0
699 1 0.158723 0.775091 0
700 1 0.147447 0.807053 0
731 1 0.165923 0.799371 0
701 1 0.179587 0.782274 0
702 1 0.198132 0.790132 0
763 1 0.203092 0.815397 0
732 1 0.183183 0.813042 0
733 1 0.217722 0.797921 0
704 1 0.231795 0.779518 0
706 1 0.23706 0.8033 0
676 1 0.251817 0.785979 0
737 1 0.257443 0.810219 0
707 1 0.271736 0.791508 0
738 1 0.277307 0.81663 0
678 1 0.285923 0.77482 0
708 1 0.291329 0.799472 0
709 1 0.306636 0.779608 0
710 1 0.310907 0.805398 0
680 1 0.326247 0.787493 0
741 1 0.330808 0.811425 0
711 1 0.345217 0.79382 0
742 1 0.350142 0.81868 0
713 1 0.359579 0.775201 0
712 1 0.364852 0.800495 0
743 1 0.379808 0.782134 0
745 1 0.384512 0.805837 0
746 1 0.399512 0.788765 0
775 1 0.40522 0.812637 0
747 1 0.419645 0.794543 0
718 1 0.433654 0.776299 0
749 1 0.438509 0.800979 0
720 1 0.453497 0.782321 0
1621 1 0.458458 0.806202 0
1623 1 0.49215 0.795827 0
1592 1 0.472831 0.788835 0
1622 1 0.478125 0.814228 0
1679 1 0.0162478 0.829124 0
1678 1 0.0113898 0.853266 0
1709 1 0.0305907 0.846489 0
1650 1 0.0362744 0.821918 0
1680 1 0.0500557 0.83934 0
752 1 0.0650261 0.857104 0
751 1 0.0690117 0.832244 0
753 1 0.0843932 0.850254 0
722 1 0.0888792 0.826024 0
724 1 0.103862 0.843817 0
726 1 0.108207 0.819489 0
757 1 0.123774 0.837363 0
756 1 0.138114 0.854876 0
755 1 0.119045 0.861458 0
729 1 0.142883 0.831411 0
759 1 0.15803 0.848512 0
730 1 0.163263 0.823329 0
761 1 0.178368 0.840326 0
792 1 0.193279 0.857338 0
762 1 0.207692 0.839231 0
735 1 0.222983 0.822679 0
734 1 0.227557 0.84652 0
736 1 0.243094 0.827977 0
765 1 0.24801 0.853341 0
767 1 0.26314 0.834561 0
766 1 0.267343 0.859524 0
768 1 0.282661 0.84074 0
739 1 0.297041 0.823569 0
769 1 0.302619 0.847679 0
740 1 0.316654 0.829207 0
770 1 0.322639 0.853831 0
771 1 0.336784 0.836451 0
801 1 0.341768 0.860504 0
773 1 0.35607 0.842308 0
744 1 0.370091 0.824304 0
803 1 0.376605 0.848687 0
774 1 0.390537 0.830484 0
776 1 0.395952 0.855085 0
748 1 0.424459 0.819521 0
777 1 0.410116 0.837759 0
778 1 0.415588 0.862083 0
779 1 0.430651 0.843559 0
750 1 0.444341 0.825729 0
780 1 0.450229 0.849412 0
1651 1 0.463754 0.831101 0
1624 1 0.497729 0.820526 0
1652 1 0.469369 0.855991 0
1653 1 0.483993 0.83834 0
1683 1 0.488996 0.862991 0
1710 1 0.026143 0.871121 0
1739 1 0.0210657 0.896111 0
1708 1 0.00696312 0.877768 0
1737 1 0.000821827 0.901842 0
781 1 0.0459697 0.863437 0
811 1 0.0400271 0.889192 0
782 1 0.0598538 0.881492 0
812 1 0.0546405 0.906484 0
813 1 0.0740422 0.89934 0
783 1 0.0793212 0.874814 0
784 1 0.0936364 0.892076 0
754 1 0.100325 0.867919 0
785 1 0.113289 0.885869 0
786 1 0.128251 0.903114 0
787 1 0.133046 0.878902 0
815 1 0.10884 0.909484 0
760 1 0.173616 0.864629 0
788 1 0.148151 0.89639 0
758 1 0.153382 0.872893 0
789 1 0.168153 0.888724 0
764 1 0.212992 0.864364 0
791 1 0.188477 0.881443 0
823 1 0.202474 0.900211 0
790 1 0.182713 0.905841 0
793 1 0.221115 0.890628 0
795 1 0.233051 0.870348 0
794 1 0.239986 0.89559 0
796 1 0.253033 0.87674 0
825 1 0.259994 0.90061 0
827 1 0.274213 0.88326 0
826 1 0.278985 0.90841 0
797 1 0.288072 0.86552 0
798 1 0.293532 0.890585 0
799 1 0.30734 0.872447 0
829 1 0.313353 0.896212 0
800 1 0.327646 0.878237 0
831 1 0.33348 0.903025 0
802 1 0.347718 0.884562 0
772 1 0.361921 0.867437 0
804 1 0.367335 0.891275 0
805 1 0.382035 0.873746 0
806 1 0.387784 0.897443 0
807 1 0.401779 0.880266 0
837 1 0.4071 0.904672 0
808 1 0.421246 0.885333 0
809 1 0.43536 0.868006 0
810 1 0.441693 0.891905 0
1681 1 0.455181 0.874327 0
1711 1 0.460539 0.899001 0
1684 1 0.494572 0.88765 0
1682 1 0.474901 0.881 0
1713 1 0.480246 0.905821 0
1738 1 0.0148665 0.920382 0
1768 1 0.0105238 0.945304 0
1769 1 0.0296745 0.937895 0
1740 1 0.035212 0.913952 0
841 1 0.0501137 0.930579 0
842 1 0.0641734 0.948009 0
843 1 0.0694151 0.923973 0
844 1 0.0839042 0.941074 0
814 1 0.0896432 0.915901 0
845 1 0.103067 0.934293 0
816 1 0.122976 0.928177 0
847 1 0.138263 0.944609 0
846 1 0.117741 0.951699 0
817 1 0.143244 0.920184 0
818 1 0.157617 0.938091 0
819 1 0.163176 0.913318 0
820 1 0.17805 0.930803 0
851 1 0.192228 0.949073 0
821 1 0.197161 0.923927 0
822 1 0.211664 0.941454 0
824 1 0.217493 0.916339 0
853 1 0.230573 0.935851 0
855 1 0.244927 0.91904 0
854 1 0.250175 0.945935 0
856 1 0.265139 0.926002 0
885 1 0.271838 0.950606 0
857 1 0.285423 0.93326 0
828 1 0.299353 0.914729 0
859 1 0.304539 0.938846 0
830 1 0.319011 0.920943 0
833 1 0.353027 0.909002 0
860 1 0.325047 0.9455 0
832 1 0.339136 0.927054 0
861 1 0.344564 0.951933 0
863 1 0.358781 0.932699 0
834 1 0.373158 0.915719 0
865 1 0.378653 0.940123 0
835 1 0.392543 0.921874 0
839 1 0.426845 0.910358 0
836 1 0.397743 0.946393 0
838 1 0.411484 0.92829 0
867 1 0.418545 0.953496 0
869 1 0.431869 0.935358 0
840 1 0.446347 0.917373 0
1741 1 0.451429 0.942113 0
1714 1 0.500306 0.912227 0
1712 1 0.466411 0.923489 0
1743 1 0.48582 0.930784 0
1742 1 0.470837 0.947513 0
1744 1 0.490952 0.954934 0
1799 1 0.0256954 0.962734 0
1798 1 0.0209313 0.987341 0
1797 1 0.0061268 0.969619 0
927 1 0.00131066 0.994583 0
1 1 0.0551822 0.998643 0
1770 1 0.0447427 0.955453 0
1800 1 0.0395175 0.979728 0
871 1 0.0591198 0.973808 0
872 1 0.0744933 0.990962 0
873 1 0.0789141 0.96587 0
874 1 0.0935163 0.983355 0
875 1 0.0979131 0.95851 0
876 1 0.113237 0.976224 0
7 1 0.128219 0.994019 0
877 1 0.133162 0.970119 0
849 1 0.172427 0.956158 0
878 1 0.147038 0.986749 0
848 1 0.152461 0.962861 0
879 1 0.166909 0.980486 0
850 1 0.186507 0.973829 0
11 1 0.200388 0.99146 0
852 1 0.206474 0.96648 0
881 1 0.181409 0.998105 0
903 1 0.482493 0.996379 0
883 1 0.226497 0.96075 0
882 1 0.220374 0.985244 0
884 1 0.240019 0.977409 0
886 1 0.257831 0.969015 0
16 1 0.255808 0.995065 0
17 1 0.276956 0.975223 0
1774 1 0.496753 0.978665 0
887 1 0.290938 0.956743 0
888 1 0.296723 0.981106 0
858 1 0.310746 0.963248 0
889 1 0.316047 0.987885 0
891 1 0.330363 0.970234 0
890 1 0.335606 0.993948 0
862 1 0.350087 0.976444 0
864 1 0.363954 0.958331 0
893 1 0.36932 0.982805 0
895 1 0.383361 0.965328 0
896 1 0.38845 0.988538 0
866 1 0.402285 0.970976 0
897 1 0.408765 0.995703 0
868 1 0.422723 0.977408 0
1771 1 0.457471 0.965706 0
1772 1 0.462862 0.99121 0
899 1 0.443432 0.983184 0
870 1 0.437831 0.959569 0
1773 1 0.476666 0.972833 0
439 1 0.280905 0.499569 0
18 1 0.282563 0.999295 0
423 1 0.0806143 0.500053 0
904 1 0.508031 0.0285811 0
906 1 0.521498 0.0103315 0
935 1 0.528734 0.0355028 0
905 1 0.502354 0.00329724 0
908 1 0.54166 0.0175965 0
937 1 0.547818 0.0410502 0
939 1 0.56212 0.0223241 0
941 1 0.575553 0.00386482 0
940 1 0.581655 0.0300926 0
942 1 0.796503 0.0228466 0
944 1 0.8107 0.0413631 0
943 1 0.815609 0.0172975 0
945 1 0.830543 0.0342589 0
914 1 0.835694 0.010227 0
947 1 0.850813 0.0276428 0
916 1 0.855748 0.0018186 0
918 1 0.869916 0.0195513 0
949 1 0.884537 0.0367574 0
948 1 0.864825 0.0441386 0
919 1 0.889338 0.0128648 0
920 1 0.904182 0.0304571 0
1790 1 0.908354 0.00552285 0
951 1 0.923019 0.0244207 0
952 1 0.938019 0.0404506 0
922 1 0.941976 0.0165557 0
953 1 0.957492 0.0337988 0
924 1 0.961303 0.0095732 0
955 1 0.977015 0.0266104 0