ITEM: TIMESTEP
53000
ITEM: NUMBER OF ATOMS
1800
ITEM: BOX BOUNDS pp pp pp
3.1334147044087501e-01 1.6468665852956099e+02
2.2992644460620966e+00 1.6270073555394072e+02
0.0000000000000000e+00 5.5000000000000000e+00
ITEM: ATOMS id type xs ys zs
2 1 0.0134284 0.0137251 0
3 1 0.0373475 0.0069673 0
31 1 0.00611019 0.0376016 0
33 1 0.0308001 0.0308842 0
4 1 0.0551479 0.025338 0
6 1 0.0791055 0.0182552 0
35 1 0.072345 0.0431512 0
8 1 0.103259 0.0125291 0
37 1 0.0971875 0.037012 0
39 1 0.121094 0.0298809 0
880 1 0.128739 0.00608475 0
9 1 0.145486 0.0250986 0
10 1 0.16955 0.018081 0
40 1 0.164363 0.0421181 0
41 1 0.187486 0.0359184 0
12 1 0.194217 0.0116463 0
14 1 0.211953 0.0296143 0
13 1 0.218506 0.00470608 0
15 1 0.235227 0.0239516 0
16 1 0.259225 0.0184554 0
46 1 0.25247 0.042924 0
47 1 0.277433 0.0366242 0
18 1 0.282327 0.0113638 0
49 1 0.313785 0.0358218 0
19 1 0.306446 0.0114388 0
20 1 0.330372 0.0174222 0
21 1 0.354603 0.0228294 0
51 1 0.337234 0.0413324 0
22 1 0.361645 0.0465952 0
23 1 0.378841 0.0289099 0
894 1 0.395181 0.0102672 0
24 1 0.402807 0.0347959 0
892 1 0.371245 0.00489946 0
25 1 0.419387 0.0159166 0
27 1 0.444156 0.0217372 0
26 1 0.428119 0.0402627 0
28 1 0.452794 0.0448711 0
29 1 0.46925 0.0264448 0
900 1 0.485644 0.00826557 0
30 1 0.49474 0.0319089 0
898 1 0.461346 0.00336706 0
32 1 0.0236479 0.0550923 0
62 1 0.0177761 0.0807073 0
475 1 0.414763 0.496755 0
63 1 0.0419616 0.0730736 0
34 1 0.0479923 0.0497638 0
65 1 0.0658882 0.0670789 0
66 1 0.0831582 0.0862431 0
36 1 0.0899337 0.0604559 0
38 1 0.114823 0.0548514 0
67 1 0.10746 0.079456 0
68 1 0.131241 0.0736932 0
69 1 0.139297 0.0482744 0
71 1 0.155224 0.066672 0
72 1 0.173279 0.0850778 0
70 1 0.149023 0.090667 0
42 1 0.180921 0.0603255 0
43 1 0.20449 0.053942 0
73 1 0.198438 0.0793805 0
44 1 0.222475 0.0734409 0
45 1 0.228899 0.0484053 0
75 1 0.245732 0.0671869 0
76 1 0.26352 0.0872534 0
74 1 0.239649 0.0914602 0
77 1 0.271016 0.0616894 0
48 1 0.295676 0.0535165 0
79 1 0.304314 0.0774369 0
50 1 0.321421 0.0597981 0
81 1 0.329911 0.0830754 0
52 1 0.345637 0.0654923 0
82 1 0.353694 0.0901033 0
53 1 0.38619 0.0531744 0
83 1 0.369226 0.0708977 0
54 1 0.393762 0.0769513 0
55 1 0.410904 0.058365 0
57 1 0.435379 0.0640607 0
56 1 0.418706 0.0825222 0
87 1 0.443088 0.0882746 0
59 1 0.475554 0.0520389 0
58 1 0.459212 0.0702001 0
89 1 0.483853 0.0749773 0
92 1 0.0280299 0.123629 0
93 1 0.0355693 0.0988306 0
91 1 0.0121322 0.105374 0
121 1 0.00449282 0.130501 0
64 1 0.0590183 0.091742 0
94 1 0.0520624 0.116951 0
95 1 0.0758231 0.110826 0
125 1 0.0695737 0.134838 0
96 1 0.0940786 0.127528 0
97 1 0.100715 0.103729 0
98 1 0.118929 0.120289 0
99 1 0.124655 0.0964924 0
100 1 0.142677 0.114414 0
101 1 0.166891 0.109191 0
130 1 0.160447 0.133071 0
103 1 0.190084 0.103567 0
102 1 0.185082 0.127602 0
105 1 0.215464 0.0969788 0
104 1 0.208183 0.12272 0
106 1 0.233019 0.115621 0
137 1 0.252372 0.13147 0
107 1 0.269064 0.112561 0
78 1 0.286773 0.0942436 0
109 1 0.294583 0.118186 0
80 1 0.31231 0.100938 0
108 1 0.277242 0.136158 0
110 1 0.3204 0.125424 0
111 1 0.337382 0.107322 0
141 1 0.345097 0.132803 0
113 1 0.361472 0.113866 0
84 1 0.377834 0.0951122 0
112 1 0.38485 0.119605 0
85 1 0.401697 0.100986 0
143 1 0.369276 0.137343 0
115 1 0.409574 0.125052 0
86 1 0.426366 0.107492 0
116 1 0.434052 0.130856 0
117 1 0.450576 0.11268 0
88 1 0.467597 0.0933446 0
119 1 0.475642 0.117204 0
90 1 0.492083 0.0983709 0
118 1 0.458859 0.136356 0
122 1 0.022284 0.148722 0
152 1 0.0155397 0.173431 0
153 1 0.0393911 0.166642 0
123 1 0.0458817 0.141709 0
124 1 0.0638566 0.159563 0
155 1 0.0810533 0.178234 0
126 1 0.0876651 0.151936 0
127 1 0.111508 0.14498 0
128 1 0.128329 0.163132 0
157 1 0.10465 0.1696 0
129 1 0.136926 0.139327 0
159 1 0.153664 0.15801 0
131 1 0.178025 0.151151 0
132 1 0.183846 0.175355 0
133 1 0.203116 0.148022 0
134 1 0.222576 0.163584 0
163 1 0.206164 0.181963 0
135 1 0.227742 0.139501 0
136 1 0.262893 0.154811 0
165 1 0.246344 0.172348 0
167 1 0.271072 0.179039 0
139 1 0.302729 0.141447 0
138 1 0.286488 0.161257 0
169 1 0.309894 0.166173 0
140 1 0.328659 0.149454 0
142 1 0.352604 0.156251 0
171 1 0.335512 0.173662 0
172 1 0.359548 0.180441 0
114 1 0.393057 0.143634 0
144 1 0.400383 0.16743 0
173 1 0.376128 0.162407 0
145 1 0.416781 0.149021 0
146 1 0.424656 0.173591 0
147 1 0.441168 0.154319 0
177 1 0.448544 0.178535 0
149 1 0.483487 0.142468 0
148 1 0.465625 0.160284 0
150 1 0.490092 0.166326 0
183 1 0.0330253 0.191502 0
182 1 0.0419105 0.214424 0
181 1 0.0085043 0.200056 0
154 1 0.056821 0.18465 0
184 1 0.0639738 0.224349 0
185 1 0.0759735 0.202981 0
186 1 0.1068 0.216894 0
156 1 0.0994036 0.193107 0
158 1 0.124128 0.198039 0
187 1 0.129601 0.224227 0
160 1 0.143923 0.182427 0
161 1 0.166071 0.191257 0
189 1 0.147213 0.207087 0
191 1 0.170331 0.21518 0
162 1 0.188917 0.199254 0
193 1 0.211232 0.206423 0
192 1 0.193968 0.22344 0
164 1 0.229069 0.189853 0
195 1 0.235567 0.214288 0
166 1 0.252417 0.196181 0
196 1 0.259702 0.22087 0
168 1 0.294787 0.185856 0
197 1 0.276604 0.203464 0
199 1 0.300163 0.209685 0
170 1 0.318205 0.191221 0
201 1 0.342285 0.197884 0
200 1 0.324407 0.216102 0
202 1 0.349674 0.222077 0
174 1 0.383346 0.186417 0
203 1 0.366613 0.20462 0
204 1 0.390415 0.21039 0
175 1 0.407664 0.192233 0
233 1 0.37346 0.22947 0
205 1 0.415149 0.217319 0
176 1 0.431754 0.197407 0
207 1 0.438296 0.222801 0
178 1 0.456144 0.202908 0
179 1 0.472781 0.184565 0
209 1 0.480222 0.209282 0
208 1 0.462358 0.2281 0
180 1 0.496938 0.189756 0
212 1 0.0269072 0.257093 0
211 1 0.022471 0.231359 0
1140 1 0.00266004 0.24889 0
213 1 0.0462814 0.240357 0
243 1 0.0515738 0.26527 0
215 1 0.0878512 0.230572 0
214 1 0.0697219 0.248514 0
216 1 0.093376 0.256431 0
217 1 0.111465 0.240496 0
218 1 0.117192 0.264781 0
188 1 0.135303 0.248793 0
190 1 0.152978 0.232105 0
221 1 0.17601 0.239745 0
220 1 0.158942 0.256893 0
222 1 0.182051 0.265411 0
194 1 0.21727 0.230776 0
223 1 0.200267 0.248416 0
224 1 0.223459 0.255547 0
253 1 0.206157 0.272486 0
225 1 0.241266 0.238164 0
227 1 0.264747 0.245055 0
226 1 0.247761 0.263313 0
257 1 0.271405 0.26912 0
198 1 0.28323 0.228153 0
229 1 0.307561 0.233892 0
228 1 0.288925 0.253017 0
230 1 0.314974 0.258851 0
231 1 0.332216 0.239895 0
232 1 0.356263 0.247032 0
261 1 0.338173 0.265461 0
263 1 0.361412 0.271668 0
235 1 0.397292 0.235189 0
234 1 0.380026 0.254238 0
265 1 0.403946 0.260519 0
206 1 0.421271 0.243174 0
237 1 0.445749 0.24776 0
236 1 0.427381 0.26796 0
238 1 0.452492 0.27122 0
210 1 0.48745 0.233081 0
239 1 0.47082 0.251387 0
240 1 0.495556 0.256508 0
241 1 0.00871058 0.273859 0
242 1 0.0316547 0.281841 0
271 1 0.0141218 0.298904 0
273 1 0.0381116 0.306785 0
245 1 0.0745287 0.273553 0
244 1 0.056778 0.290237 0
246 1 0.0794574 0.297793 0
275 1 0.0619548 0.315463 0
247 1 0.0979191 0.282117 0
249 1 0.122484 0.289797 0
248 1 0.104417 0.305747 0
279 1 0.128517 0.314766 0
219 1 0.141962 0.273422 0
251 1 0.164779 0.28157 0
250 1 0.14607 0.297844 0
281 1 0.169925 0.306535 0
252 1 0.18886 0.290085 0
254 1 0.212198 0.297653 0
283 1 0.194326 0.314392 0
255 1 0.230337 0.280444 0
256 1 0.254405 0.286813 0
285 1 0.236459 0.30495 0
287 1 0.260292 0.311521 0
259 1 0.296245 0.276542 0
258 1 0.278083 0.294217 0
288 1 0.283601 0.318673 0
289 1 0.302099 0.301805 0
260 1 0.31966 0.283043 0
262 1 0.344237 0.290112 0
291 1 0.325809 0.308234 0
292 1 0.349374 0.315586 0
264 1 0.385697 0.278869 0
293 1 0.368121 0.296582 0
295 1 0.391432 0.303688 0
294 1 0.372903 0.32167 0
266 1 0.409775 0.286218 0
267 1 0.434463 0.29221 0
297 1 0.414572 0.311013 0
298 1 0.438552 0.317858 0
269 1 0.476655 0.275993 0
268 1 0.459307 0.295867 0
270 1 0.484135 0.300982 0
299 1 0.463018 0.321901 0
1200 1 0.0201578 0.323214 0
272 1 0.0437494 0.331557 0
301 1 0.0259262 0.348012 0
1229 1 0.00166104 0.34024 0
303 1 0.0486174 0.356958 0
276 1 0.0865061 0.32403 0
274 1 0.0675451 0.340579 0
305 1 0.09168 0.348097 0
277 1 0.110545 0.331322 0
307 1 0.115633 0.356116 0
278 1 0.134126 0.340005 0
280 1 0.152159 0.323036 0
282 1 0.175686 0.331868 0
311 1 0.157186 0.3488 0
312 1 0.181527 0.356634 0
284 1 0.217683 0.321684 0
313 1 0.200374 0.339705 0
314 1 0.204064 0.363214 0
315 1 0.223471 0.345971 0
286 1 0.241594 0.328765 0
317 1 0.265733 0.336825 0
316 1 0.246934 0.354689 0
318 1 0.270705 0.361863 0
290 1 0.307192 0.325876 0
319 1 0.288861 0.343432 0
320 1 0.313308 0.350082 0
321 1 0.331172 0.332889 0
323 1 0.35483 0.339042 0
322 1 0.336732 0.356972 0
296 1 0.396804 0.328902 0
324 1 0.360101 0.363652 0
325 1 0.378345 0.345823 0
326 1 0.401474 0.353638 0
327 1 0.4199 0.336043 0
328 1 0.42437 0.36068 0
329 1 0.443314 0.34252 0
300 1 0.500837 0.318226 0
359 1 0.466083 0.351927 0
330 1 0.48343 0.334393 0
360 1 0.489736 0.35965 0
1230 1 0.00773803 0.365688 0
302 1 0.031108 0.373822 0
332 1 0.0368255 0.397974 0
331 1 0.0121904 0.389691 0
304 1 0.0733012 0.3645 0
333 1 0.0545579 0.382511 0
335 1 0.0784186 0.39015 0
334 1 0.0608059 0.406196 0
306 1 0.0970456 0.372447 0
308 1 0.120101 0.380509 0
337 1 0.102286 0.397784 0
338 1 0.125545 0.405695 0
309 1 0.13874 0.364532 0
310 1 0.162566 0.373268 0
339 1 0.14423 0.388991 0
341 1 0.168259 0.397606 0
343 1 0.186138 0.380559 0
342 1 0.192217 0.405448 0
344 1 0.211071 0.388259 0
345 1 0.229581 0.370512 0
347 1 0.253319 0.379519 0
346 1 0.23479 0.396311 0
377 1 0.258099 0.403603 0
349 1 0.294537 0.368547 0
348 1 0.276666 0.385485 0
350 1 0.30032 0.393657 0
351 1 0.317345 0.375146 0
381 1 0.324207 0.399347 0
353 1 0.342447 0.380646 0
352 1 0.347329 0.406575 0
355 1 0.383057 0.371303 0
354 1 0.364677 0.389284 0
385 1 0.371272 0.413768 0
356 1 0.38878 0.396572 0
387 1 0.430417 0.386022 0
357 1 0.406098 0.379838 0
358 1 0.447301 0.368894 0
389 1 0.453602 0.393359 0
1232 1 0.47138 0.37634 0
1262 1 0.495086 0.383666 0
1261 1 0.477241 0.401742 0
361 1 0.0178771 0.413717 0
362 1 0.0234041 0.438523 0
363 1 0.0419117 0.422574 0
120 1 0.500359 0.123555 0
336 1 0.0837316 0.414833 0
364 1 0.0473901 0.447203 0
365 1 0.0661866 0.431812 0
366 1 0.0897447 0.440156 0
367 1 0.107743 0.422441 0
368 1 0.113682 0.44723 0
369 1 0.131544 0.431124 0
340 1 0.150824 0.413793 0
371 1 0.174514 0.422566 0
370 1 0.155859 0.438122 0
401 1 0.180494 0.447161 0
373 1 0.216204 0.412636 0
372 1 0.198203 0.430569 0
403 1 0.204057 0.454956 0
374 1 0.222571 0.437966 0
375 1 0.239982 0.421276 0
376 1 0.264604 0.428308 0
405 1 0.247199 0.446001 0
407 1 0.270205 0.452167 0
378 1 0.281496 0.410233 0
379 1 0.305546 0.418462 0
409 1 0.288777 0.436731 0
380 1 0.311145 0.443256 0
382 1 0.328828 0.42488 0
413 1 0.335566 0.448867 0
383 1 0.35353 0.431486 0
414 1 0.376605 0.438774 0
384 1 0.395263 0.421768 0
415 1 0.401052 0.446218 0
386 1 0.412091 0.403498 0
417 1 0.418246 0.429599 0
388 1 0.434908 0.410239 0
418 1 0.441293 0.436055 0
419 1 0.458875 0.418254 0
448 1 0.455877 0.485457 0
390 1 0.466109 0.441865 0
1291 1 0.484725 0.425555 0
1321 1 0.490427 0.449697 0
392 1 0.00564781 0.456491 0
393 1 0.0299208 0.464326 0
422 1 0.0121803 0.481045 0
423 1 0.0353437 0.489823 0
395 1 0.0716628 0.456321 0
394 1 0.0529112 0.472145 0
396 1 0.0763212 0.480688 0
425 1 0.058311 0.497547 0
397 1 0.0949649 0.464547 0
398 1 0.119085 0.471763 0
427 1 0.100778 0.488342 0
428 1 0.124256 0.496826 0
399 1 0.137828 0.455363 0
400 1 0.162112 0.461958 0
429 1 0.14396 0.479653 0
431 1 0.167637 0.487292 0
402 1 0.185975 0.471165 0
432 1 0.191353 0.496367 0
433 1 0.210082 0.480474 0
404 1 0.228621 0.462731 0
406 1 0.25206 0.470556 0
435 1 0.234151 0.487454 0
436 1 0.257649 0.494093 0
410 1 0.295019 0.461469 0
408 1 0.275751 0.478226 0
441 1 0.299755 0.48622 0
411 1 0.318475 0.469052 0
412 1 0.35936 0.457664 0
442 1 0.342337 0.475557 0
440 1 0.323677 0.493952 0
473 1 0.366395 0.482986 0
443 1 0.383043 0.465273 0
444 1 0.389807 0.490099 0
445 1 0.407088 0.47221 0
447 1 0.448255 0.459862 0
446 1 0.43126 0.47789 0
416 1 0.424096 0.453887 0
450 1 0.498178 0.473821 0
449 1 0.479467 0.491625 0
420 1 0.472912 0.467288 0
391 1 -0.000546676 0.431137 0
61 1 -0.000312066 0.0624444 0
5 1 0.0614134 0.00107638 0
454 1 0.0223309 0.530601 0
453 1 0.0170753 0.506198 0
424 1 0.0410917 0.514781 0
1771 1 0.493401 0.965682 0
485 1 0.0464247 0.538569 0
455 1 0.0643185 0.521991 0
426 1 0.0827875 0.505067 0
456 1 0.0884137 0.529926 0
457 1 0.10588 0.513626 0
458 1 0.112011 0.538391 0
459 1 0.130143 0.5208 0
489 1 0.13544 0.545662 0
460 1 0.154143 0.52847 0
461 1 0.172664 0.512636 0
430 1 0.149106 0.504184 0
462 1 0.177795 0.535718 0
434 1 0.215762 0.504759 0
463 1 0.197975 0.520604 0
464 1 0.221363 0.528868 0
493 1 0.202181 0.545224 0
466 1 0.245058 0.538285 0
465 1 0.239353 0.513029 0
437 1 0.264193 0.5204 0
467 1 0.288623 0.529744 0
438 1 0.305186 0.511311 0
468 1 0.312568 0.537421 0
439 1 0.282357 0.503168 0
469 1 0.32973 0.518831 0
470 1 0.353177 0.525444 0
471 1 0.347419 0.50087 0
472 1 0.371653 0.508261 0
503 1 0.377218 0.533173 0
474 1 0.395866 0.514647 0
505 1 0.402428 0.539134 0
476 1 0.420087 0.521086 0
477 1 0.43788 0.503237 0
507 1 0.444194 0.526784 0
899 1 0.478085 0.985215 0
478 1 0.462094 0.509636 0
480 1 0.468272 0.533565 0
479 1 0.48626 0.515219 0
510 1 0.493742 0.539278 0
483 1 0.00414017 0.547382 0
513 1 0.0281232 0.556075 0
514 1 0.0342576 0.580406 0
482 1 0.00987987 0.572786 0
486 1 0.0707631 0.546116 0
484 1 0.0515617 0.564618 0
515 1 0.0752977 0.572407 0
545 1 0.0578627 0.590068 0
487 1 0.0934232 0.55559 0
488 1 0.116763 0.562241 0
517 1 0.0987998 0.581182 0
519 1 0.122474 0.588628 0
491 1 0.159132 0.552568 0
490 1 0.140071 0.569488 0
521 1 0.164267 0.577077 0
492 1 0.183244 0.560621 0
523 1 0.188676 0.585832 0
494 1 0.207291 0.570196 0
495 1 0.227249 0.554163 0
496 1 0.250054 0.563706 0
525 1 0.231593 0.580149 0
497 1 0.268902 0.545731 0
526 1 0.255502 0.58852 0
527 1 0.275335 0.571519 0
498 1 0.293881 0.554082 0
529 1 0.298695 0.580636 0
500 1 0.317698 0.562708 0
499 1 0.335764 0.544302 0
501 1 0.360344 0.550666 0
531 1 0.341342 0.568233 0
530 1 0.323484 0.588156 0
533 1 0.365323 0.575291 0
502 1 0.384891 0.556484 0
534 1 0.391589 0.580892 0
504 1 0.409695 0.562979 0
506 1 0.427204 0.544352 0
508 1 0.433495 0.56823 0
509 1 0.45111 0.551523 0
539 1 0.458739 0.575678 0
540 1 0.475746 0.557946 0
569 1 0.482184 0.582804 0
512 1 0.0167021 0.597569 0
542 1 0.0200006 0.622119 0
543 1 0.0397388 0.606323 0
544 1 0.0448732 0.631258 0
516 1 0.0809228 0.598612 0
546 1 0.0629225 0.614867 0
547 1 0.0867795 0.624303 0
518 1 0.104174 0.606756 0
548 1 0.127667 0.61376 0
577 1 0.110643 0.632979 0
520 1 0.145181 0.593151 0
522 1 0.169839 0.601148 0
549 1 0.151147 0.617852 0
551 1 0.174091 0.626009 0
524 1 0.212188 0.595471 0
553 1 0.192499 0.610012 0
554 1 0.215513 0.620754 0
555 1 0.236752 0.605958 0
556 1 0.239591 0.630625 0
557 1 0.259679 0.614714 0
528 1 0.279958 0.597606 0
559 1 0.302798 0.607102 0
558 1 0.283538 0.625661 0
561 1 0.332064 0.613163 0
532 1 0.348741 0.595058 0
562 1 0.359057 0.617761 0
563 1 0.37509 0.600109 0
565 1 0.38296 0.625967 0
536 1 0.398836 0.605367 0
566 1 0.407638 0.631572 0
535 1 0.416965 0.587612 0
537 1 0.441521 0.593829 0
567 1 0.424021 0.612717 0
568 1 0.44848 0.618925 0
538 1 0.465187 0.599752 0
570 1 0.490694 0.606135 0
600 1 0.471566 0.625143 0
1501 1 0.496992 0.630163 0
571 1 0.00185362 0.639152 0
573 1 0.0251973 0.647064 0
603 1 0.0280355 0.671344 0
572 1 0.00615138 0.66274 0
574 1 0.0478933 0.656295 0
604 1 0.0500602 0.68053 0
575 1 0.0675496 0.640746 0
605 1 0.0705342 0.665764 0
576 1 0.0901701 0.649937 0
607 1 0.0920786 0.67758 0
578 1 0.112401 0.663724 0
579 1 0.13215 0.650349 0
609 1 0.133472 0.677532 0
550 1 0.154019 0.640322 0
581 1 0.176631 0.65082 0
580 1 0.156162 0.665996 0
611 1 0.17864 0.676079 0
552 1 0.196232 0.635625 0
583 1 0.219158 0.645417 0
582 1 0.198154 0.661167 0
584 1 0.221055 0.670633 0
587 1 0.261654 0.640642 0
585 1 0.241514 0.656026 0
586 1 0.26271 0.666617 0
615 1 0.242666 0.681112 0
560 1 0.305172 0.639685 0
589 1 0.28337 0.651666 0
588 1 0.283941 0.679025 0
590 1 0.304539 0.665984 0
591 1 0.341931 0.636673 0
593 1 0.349295 0.66193 0
621 1 0.325625 0.655881 0
622 1 0.331293 0.68096 0
564 1 0.366124 0.644596 0
594 1 0.373908 0.667851 0
595 1 0.391154 0.650595 0
625 1 0.398368 0.674336 0
596 1 0.415252 0.656368 0
597 1 0.43103 0.638133 0
598 1 0.43888 0.66238 0
627 1 0.422784 0.680594 0
599 1 0.455638 0.644258 0
629 1 0.479146 0.648484 0
628 1 0.46332 0.667698 0
630 1 0.487375 0.672432 0
632 1 0.00290992 0.714634 0
633 1 0.0289571 0.695748 0
634 1 0.0276431 0.720355 0
602 1 0.00510843 0.688643 0
635 1 0.0521434 0.706245 0
606 1 0.0723318 0.691594 0
636 1 0.0725484 0.718 0
637 1 0.0927777 0.704614 0
608 1 0.11239 0.690466 0
638 1 0.114075 0.716922 0
639 1 0.13486 0.702827 0
610 1 0.156035 0.689245 0
641 1 0.158077 0.715006 0
612 1 0.17892 0.701215 0
642 1 0.18084 0.725937 0
613 1 0.200444 0.686009 0
614 1 0.221865 0.6969 0
643 1 0.200824 0.713168 0
645 1 0.223419 0.723508 0
617 1 0.263362 0.693177 0
616 1 0.243259 0.708318 0
647 1 0.264926 0.718776 0
619 1 0.307346 0.690849 0
618 1 0.284526 0.703565 0
620 1 0.305468 0.715903 0
592 1 0.357061 0.685619 0
653 1 0.340875 0.705238 0
623 1 0.381588 0.6919 0
624 1 0.365181 0.710914 0
626 1 0.405632 0.698268 0
655 1 0.390024 0.717225 0
657 1 0.447803 0.686461 0
656 1 0.429569 0.703191 0
686 1 0.415147 0.722862 0
658 1 0.455226 0.710146 0
659 1 0.471831 0.692052 0
660 1 0.479625 0.715771 0
1531 1 0.495043 0.697054 0
662 1 0.0124809 0.763508 0
664 1 0.0294792 0.746088 0
665 1 0.0508216 0.730346 0
666 1 0.0734475 0.743868 0
695 1 0.0523097 0.755338 0
697 1 0.0756634 0.769068 0
667 1 0.0934425 0.730319 0
668 1 0.0960645 0.755154 0
669 1 0.115412 0.741643 0
699 1 0.115941 0.768637 0
640 1 0.136833 0.728505 0
670 1 0.137431 0.754198 0
671 1 0.157568 0.740119 0
672 1 0.15984 0.765378 0
673 1 0.179994 0.750728 0
644 1 0.202142 0.737436 0
674 1 0.201971 0.763242 0
675 1 0.223509 0.749138 0
646 1 0.244976 0.733605 0
677 1 0.246157 0.75886 0
648 1 0.266349 0.745899 0
678 1 0.268681 0.770565 0
649 1 0.286273 0.731572 0
650 1 0.309724 0.742176 0
679 1 0.289731 0.756533 0
681 1 0.312755 0.768612 0
651 1 0.327603 0.725365 0
652 1 0.334144 0.749892 0
683 1 0.35824 0.755885 0
654 1 0.352023 0.732018 0
685 1 0.374411 0.736664 0
715 1 0.398754 0.740878 0
684 1 0.382492 0.760557 0
714 1 0.405795 0.766791 0
687 1 0.438766 0.729577 0
717 1 0.422548 0.74818 0
688 1 0.447728 0.753594 0
689 1 0.463466 0.734472 0
690 1 0.488429 0.739886 0
719 1 0.47222 0.75866 0
1591 1 0.495234 0.76442 0
694 1 0.0301264 0.782139 0
693 1 0.00635978 0.787914 0
723 1 0.0237912 0.806651 0
725 1 0.0476883 0.801862 0
696 1 0.0542392 0.779491 0
727 1 0.0739189 0.794643 0
726 1 0.0668725 0.818326 0
728 1 0.0943045 0.807959 0
698 1 0.0960115 0.781434 0
700 1 0.117042 0.793348 0
701 1 0.138592 0.779475 0
731 1 0.140419 0.806007 0
703 1 0.181106 0.77723 0
702 1 0.16042 0.790787 0
732 1 0.161872 0.816512 0
705 1 0.224761 0.773913 0
733 1 0.182724 0.801904 0
704 1 0.203525 0.788459 0
735 1 0.204782 0.813889 0
706 1 0.226034 0.799611 0
676 1 0.246809 0.784806 0
737 1 0.247024 0.810157 0
707 1 0.269161 0.794793 0
709 1 0.290599 0.781748 0
708 1 0.28908 0.806469 0
710 1 0.311143 0.813371 0
680 1 0.325736 0.793271 0
682 1 0.341394 0.774723 0
711 1 0.350011 0.799228 0
713 1 0.366476 0.779661 0
712 1 0.374049 0.804129 0
743 1 0.390418 0.785162 0
745 1 0.397152 0.810268 0
716 1 0.430212 0.771167 0
747 1 0.439083 0.796976 0
746 1 0.414695 0.790988 0
775 1 0.422941 0.814469 0
718 1 0.454833 0.777778 0
720 1 0.479309 0.784234 0
749 1 0.462603 0.802367 0
1621 1 0.488224 0.808518 0
751 1 0.0170138 0.830463 0
752 1 0.0116275 0.855118 0
753 1 0.0350047 0.848919 0
722 1 0.0414995 0.825044 0
724 1 0.060629 0.842269 0
755 1 0.0770459 0.860855 0
757 1 0.0849987 0.835284 0
729 1 0.117924 0.819196 0
756 1 0.100338 0.853969 0
759 1 0.123377 0.846867 0
730 1 0.141759 0.830344 0
761 1 0.163788 0.841691 0
760 1 0.143458 0.861398 0
763 1 0.184545 0.828037 0
762 1 0.185255 0.852797 0
734 1 0.207508 0.84056 0
736 1 0.227355 0.825986 0
765 1 0.229412 0.852209 0
738 1 0.269645 0.820456 0
767 1 0.250961 0.834696 0
766 1 0.252759 0.85854 0
768 1 0.273184 0.845347 0
739 1 0.293023 0.830697 0
769 1 0.296666 0.85529 0
740 1 0.316739 0.837569 0
741 1 0.334066 0.818921 0
742 1 0.358565 0.822871 0
771 1 0.341285 0.842909 0
770 1 0.323974 0.861265 0
773 1 0.364827 0.848453 0
744 1 0.382483 0.829009 0
803 1 0.389708 0.853406 0
774 1 0.406599 0.834164 0
748 1 0.446694 0.82131 0
777 1 0.429585 0.839897 0
776 1 0.414519 0.858769 0
779 1 0.45488 0.845264 0
1651 1 0.495789 0.832483 0
750 1 0.470893 0.826038 0
780 1 0.478997 0.850766 0
783 1 0.0293154 0.87302 0
782 1 0.00520487 0.878935 0
813 1 0.0225175 0.897337 0
784 1 0.0468846 0.891318 0
754 1 0.0533161 0.866874 0
785 1 0.0704377 0.885185 0
786 1 0.0886171 0.902144 0
758 1 0.118894 0.870839 0
787 1 0.0947718 0.878901 0
788 1 0.112395 0.895689 0
789 1 0.136852 0.888781 0
791 1 0.160875 0.882247 0
823 1 0.178813 0.901649 0
790 1 0.154534 0.90758 0
764 1 0.207541 0.867654 0
792 1 0.184857 0.877719 0
793 1 0.202925 0.89447 0
795 1 0.225838 0.887967 0
796 1 0.249634 0.883071 0
827 1 0.26628 0.900282 0
825 1 0.243808 0.907958 0
797 1 0.273924 0.873408 0
799 1 0.307362 0.879851 0
798 1 0.289744 0.895899 0
829 1 0.314609 0.90363 0
800 1 0.331941 0.885459 0
801 1 0.347982 0.86673 0
802 1 0.356222 0.890187 0
772 1 0.372652 0.871888 0
805 1 0.398188 0.87708 0
804 1 0.381099 0.895997 0
806 1 0.405091 0.9016 0
778 1 0.438381 0.864456 0
807 1 0.422187 0.884224 0
808 1 0.446623 0.888936 0
837 1 0.42939 0.907659 0
809 1 0.462333 0.870102 0
1681 1 0.486791 0.874442 0
810 1 0.470175 0.894031 0
1711 1 0.494359 0.899243 0
842 1 0.00921306 0.946598 0
843 1 0.0156884 0.922597 0
844 1 0.0331907 0.939688 0
814 1 0.0396846 0.915737 0
815 1 0.0651919 0.91018 0
816 1 0.0822264 0.928175 0
845 1 0.0584229 0.934649 0
846 1 0.0760782 0.950921 0
819 1 0.130305 0.913855 0
817 1 0.106841 0.920585 0
818 1 0.12434 0.938351 0
847 1 0.100057 0.945022 0
821 1 0.171957 0.925855 0
820 1 0.148524 0.932344 0
851 1 0.166375 0.951469 0
794 1 0.218952 0.912788 0
824 1 0.195733 0.918658 0
822 1 0.190277 0.943242 0
853 1 0.213432 0.936479 0
855 1 0.237343 0.93188 0
826 1 0.262267 0.925253 0
856 1 0.255916 0.949745 0
828 1 0.296435 0.921736 0
857 1 0.279984 0.943212 0
859 1 0.304775 0.945226 0
831 1 0.339252 0.909393 0
830 1 0.321646 0.9273 0
832 1 0.346093 0.933505 0
860 1 0.329625 0.95161 0
833 1 0.363277 0.91557 0
863 1 0.371501 0.938499 0
834 1 0.387497 0.920102 0
865 1 0.396538 0.944262 0
835 1 0.412476 0.925869 0
838 1 0.437402 0.931482 0
836 1 0.421221 0.949997 0
839 1 0.454471 0.912737 0
867 1 0.444319 0.955426 0
1741 1 0.485999 0.94215 0
840 1 0.478731 0.917603 0
869 1 0.46194 0.93674 0
872 1 0.0203366 0.988579 0
873 1 0.0267735 0.964367 0
871 1 0.00252301 0.970952 0
874 1 0.0451136 0.982958 0
875 1 0.0510853 0.958372 0
876 1 0.0693206 0.976371 0
7 1 0.0869052 0.994353 0
870 1 0.469194 0.960037 0
877 1 0.0929717 0.969849 0
848 1 0.117226 0.963562 0
878 1 0.111762 0.98809 0
879 1 0.134735 0.981219 0
849 1 0.141938 0.956524 0
850 1 0.158846 0.974813 0
11 1 0.176034 0.994269 0
881 1 0.151952 0.999771 0
852 1 0.182825 0.968804 0
882 1 0.200633 0.987821 0
883 1 0.207626 0.961351 0
884 1 0.225473 0.980518 0
854 1 0.231229 0.956643 0
885 1 0.249678 0.974363 0
17 1 0.267261 0.991781 0
886 1 0.242675 0.999343 0
887 1 0.274537 0.968379 0
858 1 0.313251 0.970648 0
888 1 0.294178 0.988457 0
861 1 0.355171 0.956593 0
889 1 0.322058 0.994072 0
891 1 0.339367 0.974771 0
890 1 0.346935 0.9987 0
862 1 0.36309 0.98018 0
864 1 0.379269 0.962613 0
893 1 0.386817 0.986264 0
895 1 0.403993 0.967961 0
868 1 0.452472 0.978809 0
866 1 0.428637 0.974079 0
897 1 0.436699 0.997303 0
896 1 0.412095 0.991805 0
902 1 0.534836 0.0179772 0
931 1 0.518736 0.0371124 0
901 1 0.510384 0.0130377 0
933 1 0.542496 0.0425999 0
904 1 0.558931 0.0233338 0
906 1 0.577544 0.00487705 0
935 1 0.584002 0.0293745 0
908 1 0.6012 0.010155 0
937 1 0.608668 0.0343147 0
939 1 0.625413 0.0163015 0
938 1 0.633327 0.040564 0
940 1 0.650359 0.021783 0
971 1 0.669904 0.0353561 0
942 1 0.675124 0.0113395 0
944 1 0.694035 0.0285767 0
945 1 0.717705 0.023278 0
943 1 0.700306 0.00503086 0
947 1 0.742166 0.0160706 0
948 1 0.760243 0.0346012 0
918 1 0.766598 0.0103069 0
946 1 0.735906 0.04142 0
919 1 0.791286 0.00389941 0
949 1 0.785698 0.0275457 0
920 1 0.809678 0.021198 0
951 1 0.833662 0.015073 0
952 1 0.85102 0.0339007 0
922 1 0.857517 0.00977468 0
950 1 0.827533 0.0400392 0
953 1 0.875527 0.0268542 0
955 1 0.898995 0.0204885 0
924 1 0.882067 0.00182113 0
926 1 0.923279 0.0143302 0
928 1 0.947344 0.00783462 0
957 1 0.940529 0.0328159 0
956 1 0.916888 0.0388555 0
930 1 0.989104 0.0196412 0
959 1 0.965224 0.027351 0
929 1 0.971215 0.00149839 0
960 1 0.982793 0.0448608 0
932 1 0.526382 0.0607522 0
962 1 0.532824 0.0859909 0
961 1 0.508612 0.079569 0
60 1 0.500329 0.0566494 0
934 1 0.565582 0.048111 0
963 1 0.549492 0.0666885 0
965 1 0.574176 0.072255 0
964 1 0.556907 0.0906668 0
936 1 0.590694 0.0534206 0
966 1 0.598265 0.0769263 0
967 1 0.616188 0.058302 0
968 1 0.623211 0.0821009 0
969 1 0.640999 0.0655685 0
970 1 0.663712 0.0596554 0
999 1 0.657176 0.0853693 0
972 1 0.681399 0.0777085 0
975 1 0.712201 0.0471926 0
973 1 0.68768 0.0527072 0
1003 1 0.704822 0.071384 0
1004 1 0.723572 0.0890917 0
974 1 0.729457 0.0654891 0
976 1 0.754035 0.0588653 0
1005 1 0.747326 0.0830647 0
1007 1 0.771301 0.0769383 0
979 1 0.802712 0.0459506 0
977 1 0.778005 0.0519696 0
978 1 0.795262 0.0703888 0
1009 1 0.812947 0.0874344 0
980 1 0.820351 0.0638003 0
981 1 0.843859 0.058236 0
1011 1 0.837154 0.0822939 0
982 1 0.861416 0.0752591 0
954 1 0.89236 0.0447065 0
983 1 0.867945 0.0516828 0
984 1 0.886518 0.0689879 0
1015 1 0.90431 0.0878864 0
985 1 0.910356 0.0630982 0
986 1 0.927822 0.0822388 0
987 1 0.934739 0.0570094 0
988 1 0.951404 0.0754712 0
958 1 0.958404 0.0513602 0
989 1 0.976081 0.0698803 0
990 1 0.993599 0.0880618 0
991 1 0.516882 0.10416 0
992 1 0.524424 0.1291 0
993 1 0.540488 0.110141 0
421 1 0.987796 0.473234 0
994 1 0.565392 0.114556 0
995 1 0.581911 0.095926 0
1023 1 0.549544 0.133779 0
996 1 0.589195 0.120563 0
997 1 0.606892 0.101711 0
1027 1 0.613676 0.125874 0
998 1 0.630653 0.10518 0
1000 1 0.654124 0.111869 0
1001 1 0.676334 0.101587 0
1029 1 0.63781 0.130199 0
1030 1 0.66314 0.135008 0
1031 1 0.693693 0.119562 0
1002 1 0.700205 0.0952149 0
1033 1 0.717216 0.114463 0
1035 1 0.741839 0.107486 0
1006 1 0.765 0.101001 0
1036 1 0.757477 0.125411 0
1034 1 0.734403 0.132587 0
1008 1 0.790274 0.0946924 0
1037 1 0.782293 0.119551 0
1039 1 0.807545 0.112559 0
1040 1 0.824508 0.130429 0
1010 1 0.831423 0.105793 0
1012 1 0.854536 0.0996206 0
1041 1 0.849211 0.124354 0
1043 1 0.873157 0.117898 0
1013 1 0.879987 0.0931928 0
1014 1 0.897206 0.112641 0
1016 1 0.914929 0.130169 0
1017 1 0.921519 0.10654 0
1018 1 0.945571 0.0994932 0
1047 1 0.938765 0.124691 0
1019 1 0.96978 0.0941827 0
1020 1 0.987259 0.112505 0
1049 1 0.963233 0.118062 0
1021 1 0.507771 0.147831 0
1022 1 0.532198 0.151649 0
1053 1 0.53871 0.175534 0
1051 1 0.514799 0.171213 0
1025 1 0.572717 0.138466 0
1024 1 0.555338 0.158163 0
1055 1 0.580206 0.162725 0
1054 1 0.562522 0.180965 0
1026 1 0.597462 0.144208 0
1028 1 0.621332 0.149443 0
1057 1 0.605201 0.167921 0
1058 1 0.630203 0.173412 0
1059 1 0.646429 0.154549 0
1061 1 0.670123 0.160248 0
1060 1 0.65373 0.178988 0
1032 1 0.68621 0.143064 0
1063 1 0.710971 0.138813 0
1062 1 0.701237 0.163332 0
1064 1 0.726673 0.158143 0
1065 1 0.751126 0.150811 0
1095 1 0.746808 0.176011 0
1066 1 0.769598 0.167318 0
1038 1 0.800437 0.136143 0
1067 1 0.776895 0.143529 0
1068 1 0.794024 0.160069 0
1099 1 0.81074 0.178208 0
1069 1 0.818971 0.154853 0
1071 1 0.842784 0.148511 0
1070 1 0.836214 0.173022 0
1072 1 0.860302 0.1669 0
1044 1 0.890745 0.136563 0
1042 1 0.866932 0.142836 0
1073 1 0.883768 0.161237 0
1074 1 0.901609 0.180262 0
1045 1 0.908388 0.154468 0
1075 1 0.925538 0.173146 0
1046 1 0.931761 0.148493 0
1077 1 0.949731 0.167707 0
1050 1 0.97996 0.136409 0
1048 1 0.955636 0.142956 0
1079 1 0.974102 0.161341 0
1080 1 0.991714 0.179473 0
151 1 0.997982 0.15523 0
1052 1 0.521688 0.195131 0
1082 1 0.529554 0.218311 0
1081 1 0.504244 0.214394 0
1083 1 0.546277 0.200896 0
1085 1 0.570195 0.204903 0
1084 1 0.555231 0.224055 0
1056 1 0.58714 0.186893 0
1086 1 0.597529 0.209095 0
1087 1 0.6146 0.191875 0
1088 1 0.621798 0.215538 0
1089 1 0.638282 0.197382 0
1090 1 0.663997 0.201324 0
1119 1 0.647857 0.219854 0
1121 1 0.672074 0.22586 0
1091 1 0.680443 0.182344 0
1092 1 0.689366 0.206772 0
1093 1 0.70682 0.188275 0
1123 1 0.714045 0.21279 0
1094 1 0.730846 0.193883 0
1096 1 0.756709 0.199678 0
1125 1 0.739727 0.219356 0
1126 1 0.763064 0.226467 0
1097 1 0.786596 0.185384 0
1127 1 0.781375 0.2093 0
1098 1 0.805141 0.201987 0
1129 1 0.821982 0.219507 0
1100 1 0.828407 0.196092 0
1101 1 0.853692 0.191352 0
1131 1 0.84531 0.214516 0
1102 1 0.870738 0.210096 0
1103 1 0.877733 0.186429 0
1104 1 0.89504 0.206664 0
1135 1 0.936241 0.217659 0
1105 1 0.919239 0.198334 0
1076 1 0.943228 0.191957 0
1107 1 0.960199 0.209036 0
1078 1 0.967753 0.185078 0
1109 1 0.983808 0.203884 0
1110 1 0.999102 0.223388 0
1111 1 0.512627 0.237997 0
1113 1 0.537389 0.242097 0
1112 1 0.520319 0.26201 0
1143 1 0.547768 0.264463 0
1115 1 0.580675 0.228143 0
1114 1 0.564187 0.246822 0
1116 1 0.588563 0.252364 0
1145 1 0.572927 0.270214 0
1117 1 0.605361 0.233651 0
1118 1 0.630888 0.239936 0
1147 1 0.61378 0.257106 0
1149 1 0.639281 0.262792 0
1120 1 0.654964 0.243357 0
1151 1 0.679403 0.250209 0
1150 1 0.663532 0.267854 0
1122 1 0.698237 0.231508 0
1124 1 0.722609 0.2372 0
1153 1 0.704194 0.255843 0
1154 1 0.729884 0.261953 0
1155 1 0.746176 0.243623 0
1156 1 0.754838 0.267355 0
1157 1 0.772333 0.249893 0
1128 1 0.790807 0.233275 0
1159 1 0.813992 0.24178 0
1158 1 0.795624 0.25742 0
1160 1 0.823425 0.26376 0
1130 1 0.838168 0.241758 0
1191 1 0.848507 0.267658 0
1132 1 0.861738 0.233139 0
1161 1 0.870359 0.255076 0
1133 1 0.886578 0.232907 0
1163 1 0.895259 0.259303 0
1134 1 0.911772 0.241721 0
1165 1 0.919333 0.267144 0
1136 1 0.936729 0.249306 0