ITEM: TIMESTEP
503000
ITEM: NUMBER OF ATOMS
1800
ITEM: BOX BOUNDS pp pp pp
-1.7730504518274003e+01 1.8273050451827515e+02
2.1625727143607349e+00 1.6283742728564130e+02
0.0000000000000000e+00 5.5000000000000000e+00
ITEM: ATOMS id type xs ys zs
928 1 0.0164383 0.0132196 0
957 1 0.0111694 0.0369644 0
959 1 0.0302171 0.0298437 0
929 1 0.0361785 0.0053403 0
930 1 0.0500083 0.0224904 0
31 1 0.0642061 0.0407407 0
2 1 0.0692672 0.0155906 0
33 1 0.0833464 0.0329695 0
3 1 0.0887984 0.00869105 0
4 1 0.103552 0.0264433 0
6 1 0.124237 0.0174809 0
37 1 0.13836 0.0355774 0
35 1 0.118825 0.0425757 0
5 1 0.108859 0.00120641 0
8 1 0.142734 0.0104554 0
39 1 0.157473 0.0281921 0
880 1 0.162568 0.00360943 0
9 1 0.176971 0.0206467 0
40 1 0.19198 0.0378769 0
10 1 0.196237 0.013953 0
41 1 0.212096 0.0309585 0
12 1 0.216404 0.00595771 0
14 1 0.23082 0.0233064 0
45 1 0.2458 0.0404838 0
1257 1 -0.000436142 0.380462 0
15 1 0.249943 0.0152912 0
46 1 0.268919 0.018795 0
77 1 0.274982 0.0432517 0
1167 1 -5.60872e-07 0.28774 0
47 1 0.288851 0.0250542 0
19 1 0.302178 0.00680659 0
49 1 0.308136 0.0303341 0
20 1 0.321523 0.0130377 0
51 1 0.327665 0.0371206 0
21 1 0.341313 0.0191356 0
22 1 0.346491 0.0442353 0
892 1 0.355931 0.00133893 0
23 1 0.360811 0.02533 0
894 1 0.375478 0.00762108 0
24 1 0.380596 0.0321737 0
25 1 0.394891 0.0140779 0
26 1 0.400324 0.0383312 0
27 1 0.414658 0.0211824 0
28 1 0.421265 0.0458339 0
29 1 0.434509 0.0273222 0
900 1 0.448414 0.00836632 0
30 1 0.453943 0.0330925 0
898 1 0.42898 0.00271641 0
902 1 0.487016 0.0213932 0
901 1 0.467961 0.0149744 0
931 1 0.473295 0.0400576 0
988 1 0.0214441 0.0791571 0
958 1 0.0262537 0.0544559 0
987 1 0.00674795 0.0614524 0
986 1 0.00175741 0.0859741 0
960 1 0.0453346 0.0474889 0
989 1 0.0400251 0.0728272 0
61 1 0.0600566 0.0654897 0
990 1 0.0555011 0.0894977 0
62 1 0.0746894 0.0814847 0
32 1 0.0797692 0.0572642 0
63 1 0.0944253 0.0744203 0
34 1 0.0997096 0.0499355 0
65 1 0.113855 0.0669056 0
66 1 0.128481 0.084887 0
36 1 0.133532 0.0597666 0
69 1 0.171419 0.045784 0
67 1 0.148125 0.0771237 0
38 1 0.152572 0.0529483 0
68 1 0.167916 0.0701478 0
71 1 0.186456 0.0618094 0
72 1 0.20152 0.0796524 0
42 1 0.20596 0.0551851 0
70 1 0.182171 0.0874332 0
43 1 0.226653 0.0478945 0
73 1 0.221186 0.0719747 0
44 1 0.240765 0.0664725 0
74 1 0.26426 0.0844478 0
75 1 0.260451 0.059289 0
76 1 0.279825 0.0674695 0
78 1 0.2841 0.0920152 0
48 1 0.293686 0.0493519 0
79 1 0.29894 0.0739553 0
50 1 0.31376 0.0559382 0
81 1 0.318469 0.07956 0
52 1 0.333317 0.0620317 0
82 1 0.338988 0.0863442 0
83 1 0.35279 0.0683562 0
53 1 0.366837 0.0502033 0
54 1 0.372098 0.0748379 0
55 1 0.386407 0.056798 0
56 1 0.392599 0.0820771 0
57 1 0.405776 0.0636995 0
87 1 0.412017 0.0873462 0
58 1 0.426138 0.069885 0
59 1 0.44051 0.0510964 0
89 1 0.44532 0.0758674 0
60 1 0.459445 0.0583399 0
933 1 0.492881 0.0457881 0
961 1 0.464712 0.0826454 0
963 1 0.498108 0.0711456 0
932 1 0.478127 0.0637053 0
962 1 0.484286 0.0888661 0
1047 1 0.0121228 0.128147 0
1018 1 0.0156172 0.103864 0
1049 1 0.0318649 0.122159 0
1019 1 0.0357388 0.0977516 0
1020 1 0.0508678 0.114029 0
121 1 0.0650374 0.131412 0
91 1 0.0699292 0.107106 0
92 1 0.0852458 0.124723 0
93 1 0.0891226 0.0997707 0
94 1 0.104567 0.117203 0
64 1 0.109154 0.0920091 0
95 1 0.12348 0.109096 0
96 1 0.13972 0.126272 0
125 1 0.119486 0.134508 0
97 1 0.143188 0.101932 0
98 1 0.158445 0.119727 0
99 1 0.162574 0.0949708 0
100 1 0.177459 0.111527 0
130 1 0.193324 0.129964 0
101 1 0.196798 0.10496 0
102 1 0.212117 0.121414 0
105 1 0.234526 0.0895678 0
103 1 0.215966 0.0975507 0
104 1 0.232504 0.117537 0
106 1 0.250968 0.103197 0
137 1 0.255298 0.127258 0
107 1 0.27015 0.11021 0
108 1 0.27569 0.134242 0
109 1 0.290325 0.116274 0
80 1 0.305137 0.0988713 0
110 1 0.3099 0.122716 0
111 1 0.324941 0.105017 0
141 1 0.329648 0.128644 0
113 1 0.344157 0.111563 0
143 1 0.348586 0.135061 0
84 1 0.358151 0.0920606 0
112 1 0.363437 0.117285 0
85 1 0.378739 0.0998116 0
115 1 0.383164 0.123851 0
86 1 0.398245 0.106118 0
116 1 0.402864 0.130196 0
117 1 0.417185 0.111057 0
118 1 0.422569 0.135713 0
88 1 0.43136 0.0942901 0
119 1 0.43714 0.118606 0
90 1 0.450283 0.100551 0
120 1 0.456539 0.125234 0
991 1 0.470325 0.107242 0
992 1 0.475754 0.13194 0
993 1 0.489956 0.113674 0
1075 1 0.0033801 0.178875 0
1048 1 0.0262112 0.146419 0
1077 1 0.0225351 0.171655 0
1046 1 0.007122 0.153709 0
1079 1 0.0414563 0.164488 0
1050 1 0.0457022 0.13989 0
151 1 0.061033 0.155822 0
152 1 0.0755755 0.173988 0
122 1 0.0807401 0.149889 0
153 1 0.0954635 0.167356 0
123 1 0.0996055 0.141828 0
124 1 0.114942 0.15866 0
126 1 0.133937 0.150636 0
155 1 0.129501 0.17464 0
129 1 0.173044 0.136446 0
157 1 0.148875 0.168387 0
127 1 0.15375 0.144247 0
128 1 0.168543 0.161045 0
159 1 0.186703 0.153315 0
132 1 0.194441 0.175662 0
131 1 0.207259 0.156284 0
133 1 0.222905 0.140718 0
134 1 0.227349 0.164971 0
135 1 0.241792 0.146152 0
165 1 0.246715 0.171616 0
136 1 0.261632 0.150848 0
167 1 0.267177 0.176344 0
138 1 0.280855 0.158646 0
139 1 0.295814 0.1402 0
169 1 0.300557 0.164782 0
140 1 0.315772 0.147345 0
171 1 0.320983 0.171285 0
142 1 0.334868 0.152933 0
172 1 0.340288 0.177999 0
173 1 0.354747 0.159329 0
114 1 0.368526 0.141591 0
144 1 0.374359 0.167038 0
145 1 0.388745 0.148361 0
146 1 0.39317 0.173063 0
147 1 0.407527 0.153968 0
177 1 0.413165 0.178674 0
148 1 0.427672 0.161046 0
149 1 0.442712 0.142438 0
150 1 0.447095 0.166988 0
1021 1 0.461172 0.149736 0
1051 1 0.466825 0.173059 0
1023 1 0.495189 0.137811 0
1022 1 0.480956 0.156177 0
1053 1 0.486215 0.180827 0
1076 1 0.0180073 0.195606 0
1106 1 0.0132841 0.221081 0
1107 1 0.0326521 0.213985 0
1080 1 0.0564775 0.181356 0
1078 1 0.0376921 0.189052 0
1109 1 0.0560768 0.215407 0
181 1 0.0725544 0.199354 0
182 1 0.0775414 0.222905 0
183 1 0.0920364 0.204596 0
154 1 0.108628 0.185295 0
185 1 0.110501 0.212958 0
156 1 0.126682 0.198718 0
186 1 0.132124 0.221743 0
158 1 0.14549 0.20333 0
160 1 0.1611 0.186519 0
189 1 0.165734 0.210348 0
161 1 0.180194 0.193168 0
191 1 0.184886 0.217556 0
162 1 0.199657 0.200215 0
192 1 0.205025 0.225184 0
163 1 0.213562 0.181586 0
193 1 0.218381 0.207005 0
164 1 0.233239 0.188922 0
195 1 0.239186 0.212832 0
166 1 0.253404 0.194899 0
196 1 0.258644 0.219095 0
197 1 0.272185 0.200238 0
198 1 0.277644 0.224561 0
168 1 0.286377 0.182428 0
199 1 0.291939 0.207068 0
170 1 0.306386 0.189922 0
200 1 0.31115 0.214503 0
201 1 0.326474 0.19587 0
202 1 0.330587 0.22037 0
203 1 0.345307 0.202365 0
233 1 0.351078 0.226453 0
174 1 0.359922 0.183921 0
204 1 0.364936 0.208407 0
175 1 0.379244 0.191618 0
205 1 0.384396 0.215683 0
176 1 0.398877 0.197039 0
207 1 0.403836 0.221553 0
178 1 0.418903 0.203625 0
179 1 0.432952 0.185299 0
209 1 0.438156 0.209983 0
180 1 0.452513 0.191893 0
1081 1 0.458021 0.216151 0
1052 1 0.471648 0.198361 0
1082 1 0.47781 0.222955 0
1083 1 0.491583 0.204981 0
1108 1 0.028084 0.251765 0
1136 1 0.00872053 0.24583 0
1137 1 0.0133693 0.269312 0
1110 1 0.0429258 0.235197 0
1140 1 0.048752 0.259124 0
211 1 0.062754 0.240151 0
212 1 0.0683938 0.266561 0
213 1 0.0818535 0.248248 0
184 1 0.0964274 0.230799 0
214 1 0.102205 0.255992 0
215 1 0.11614 0.238685 0
216 1 0.121224 0.263406 0
217 1 0.136366 0.246109 0
218 1 0.141317 0.269989 0
187 1 0.15089 0.228172 0
188 1 0.155134 0.251918 0
190 1 0.171341 0.235266 0
220 1 0.17594 0.259545 0
221 1 0.190551 0.241758 0
222 1 0.195676 0.264978 0
223 1 0.210085 0.249168 0
194 1 0.224843 0.232081 0
224 1 0.230227 0.255205 0
225 1 0.244503 0.23679 0
226 1 0.249232 0.261237 0
227 1 0.264065 0.243098 0
257 1 0.268747 0.268026 0
228 1 0.28322 0.250106 0
229 1 0.297451 0.231582 0
230 1 0.302127 0.255929 0
231 1 0.316144 0.237815 0
261 1 0.321918 0.261908 0
232 1 0.337328 0.244804 0
263 1 0.341049 0.269507 0
234 1 0.356075 0.251826 0
235 1 0.370164 0.233577 0
265 1 0.375861 0.257611 0
206 1 0.390253 0.240294 0
208 1 0.423728 0.228657 0
236 1 0.394719 0.264676 0
237 1 0.409656 0.246187 0
238 1 0.414663 0.272076 0
239 1 0.428705 0.253037 0
210 1 0.443378 0.234732 0
240 1 0.448009 0.259444 0
1111 1 0.462751 0.241649 0
1112 1 0.467687 0.265513 0
1113 1 0.481818 0.247677 0
1084 1 0.497099 0.22966 0
1142 1 0.488204 0.272257 0
1138 1 0.0193057 0.29513 0
1197 1 0.00444866 0.311801 0
1139 1 0.0338976 0.276748 0
1353 1 0.476829 0.473748 0
1169 1 0.0387043 0.301866 0
241 1 0.0531774 0.283058 0
271 1 0.0581913 0.308791 0
242 1 0.0728117 0.29127 0
243 1 0.087891 0.273886 0
244 1 0.0922869 0.299691 0
273 1 0.0772816 0.315224 0
245 1 0.106148 0.280978 0
246 1 0.11228 0.305495 0
247 1 0.126474 0.287573 0
248 1 0.132129 0.312991 0
249 1 0.146955 0.295232 0
219 1 0.16102 0.276473 0
250 1 0.166064 0.302687 0
251 1 0.179847 0.284804 0
281 1 0.186179 0.308064 0
252 1 0.199806 0.289288 0
283 1 0.205257 0.314038 0
253 1 0.215209 0.273166 0
254 1 0.219536 0.297418 0
255 1 0.235357 0.279854 0
285 1 0.239957 0.30497 0
256 1 0.254487 0.285735 0
287 1 0.259496 0.310571 0
258 1 0.274094 0.293216 0
288 1 0.279142 0.317781 0
259 1 0.288083 0.274924 0
289 1 0.293544 0.298927 0
260 1 0.308059 0.279858 0
291 1 0.312974 0.305312 0
262 1 0.327495 0.286952 0
292 1 0.332511 0.312609 0
293 1 0.347098 0.293999 0
264 1 0.361756 0.275777 0
295 1 0.366406 0.300618 0
266 1 0.381354 0.282026 0
297 1 0.385584 0.307233 0
267 1 0.400466 0.289319 0
298 1 0.405028 0.313646 0
268 1 0.419898 0.29546 0
269 1 0.434234 0.277127 0
270 1 0.440464 0.301538 0
1141 1 0.45393 0.283882 0
300 1 0.459692 0.308811 0
1171 1 0.473203 0.289548 0
1172 1 0.478692 0.314834 0
1173 1 0.492533 0.296703 0
1168 1 0.023832 0.31999 0
1199 1 0.0297263 0.344503 0
1198 1 0.00927697 0.338132 0
1170 1 0.0440563 0.326417 0
1229 1 0.0489649 0.35121 0
1200 1 0.0634148 0.333935 0
301 1 0.0681238 0.358025 0
272 1 0.0829322 0.339595 0
275 1 0.0974416 0.322967 0
274 1 0.102408 0.348251 0
276 1 0.117283 0.330155 0
305 1 0.121854 0.355184 0
277 1 0.136813 0.337264 0
307 1 0.14145 0.361897 0
279 1 0.151575 0.320243 0
278 1 0.156258 0.344456 0
280 1 0.170937 0.326962 0
311 1 0.177237 0.350668 0
282 1 0.190952 0.332969 0
312 1 0.196529 0.357478 0
313 1 0.21112 0.339685 0
284 1 0.22542 0.321644 0
315 1 0.2303 0.34582 0
286 1 0.244823 0.328603 0
316 1 0.249764 0.35244 0
317 1 0.26447 0.334831 0
318 1 0.26953 0.360096 0
319 1 0.283967 0.341375 0
290 1 0.298756 0.323187 0
320 1 0.302951 0.347435 0
321 1 0.317962 0.329433 0
294 1 0.351582 0.318915 0
322 1 0.323277 0.354289 0
323 1 0.33804 0.337313 0
324 1 0.343153 0.362162 0
325 1 0.356802 0.342756 0
296 1 0.371181 0.32483 0
326 1 0.376802 0.349567 0
327 1 0.391184 0.331478 0
299 1 0.425076 0.319655 0
328 1 0.396329 0.354976 0
329 1 0.410922 0.338535 0
358 1 0.416382 0.362752 0
359 1 0.430647 0.345165 0
330 1 0.444898 0.327174 0
360 1 0.450048 0.35112 0
1201 1 0.464885 0.332168 0
1202 1 0.48389 0.339502 0
1231 1 0.469802 0.357032 0
1203 1 0.497996 0.320805 0
1233 1 0.490064 0.363706 0
1228 1 0.0149554 0.362482 0
1287 1 0.00501919 0.405869 0
1258 1 0.0200689 0.386795 0
1259 1 0.035247 0.368406 0
1260 1 0.0396941 0.394858 0
1230 1 0.0541579 0.375924 0
331 1 0.0588796 0.400592 0
303 1 0.0875661 0.366189 0
302 1 0.0731358 0.38343 0
333 1 0.0931183 0.390272 0
304 1 0.10721 0.372264 0
335 1 0.112347 0.396502 0
306 1 0.126373 0.379714 0
337 1 0.132005 0.403879 0
308 1 0.147074 0.385206 0
309 1 0.16242 0.368422 0
339 1 0.166656 0.392762 0
310 1 0.181517 0.375388 0
341 1 0.186075 0.399511 0
343 1 0.201163 0.381856 0
342 1 0.205566 0.407273 0
314 1 0.216475 0.363994 0
344 1 0.220639 0.389983 0
345 1 0.23572 0.369836 0
346 1 0.239896 0.394413 0
347 1 0.255294 0.376565 0
377 1 0.260398 0.401105 0
348 1 0.275362 0.383707 0
378 1 0.280312 0.407705 0
349 1 0.28925 0.365432 0
350 1 0.294093 0.390846 0
351 1 0.308945 0.372073 0
381 1 0.313546 0.39664 0
353 1 0.327803 0.37908 0
352 1 0.333882 0.40437 0
354 1 0.348323 0.386023 0
355 1 0.363001 0.368297 0
356 1 0.368722 0.392118 0
357 1 0.382789 0.373305 0
386 1 0.388116 0.397501 0
387 1 0.402419 0.38079 0
388 1 0.407538 0.404736 0
389 1 0.421524 0.386959 0
1232 1 0.435766 0.369687 0
1261 1 0.441207 0.393308 0
1262 1 0.45591 0.375184 0
1293 1 0.460942 0.399839 0
1263 1 0.475752 0.381762 0
1294 1 0.480888 0.406819 0
1264 1 0.494707 0.389267 0
1289 1 0.025262 0.412153 0
1319 1 0.0300925 0.436744 0
1288 1 0.0105283 0.430634 0
1290 1 0.0446739 0.420065 0
391 1 0.0497439 0.443459 0
361 1 0.0640148 0.425816 0
362 1 0.0697901 0.450652 0
332 1 0.078011 0.408438 0
363 1 0.0828707 0.43264 0
334 1 0.097705 0.414996 0
365 1 0.104241 0.439115 0
336 1 0.118384 0.421004 0
366 1 0.123555 0.446177 0
367 1 0.137506 0.428222 0
338 1 0.152361 0.410328 0
368 1 0.142788 0.453599 0
369 1 0.157171 0.435904 0
340 1 0.171772 0.416279 0
370 1 0.176635 0.443186 0
371 1 0.189904 0.425106 0
401 1 0.197065 0.448766 0
372 1 0.210052 0.430803 0
373 1 0.225131 0.413565 0
374 1 0.23086 0.437826 0
375 1 0.245543 0.418683 0
405 1 0.250854 0.444479 0
376 1 0.265426 0.425574 0
407 1 0.270326 0.450215 0
409 1 0.284928 0.433257 0
379 1 0.299793 0.415191 0
380 1 0.304826 0.439619 0
382 1 0.319266 0.422059 0
385 1 0.353162 0.410221 0
413 1 0.324691 0.446228 0
383 1 0.339089 0.427998 0
412 1 0.344251 0.452033 0
414 1 0.35797 0.434323 0
384 1 0.373444 0.416768 0
415 1 0.378078 0.441671 0
417 1 0.393047 0.422213 0
419 1 0.427128 0.411177 0
416 1 0.397339 0.447614 0
418 1 0.412079 0.429768 0
447 1 0.418582 0.453895 0
390 1 0.432415 0.43537 0
1291 1 0.446758 0.417491 0
1321 1 0.451948 0.442736 0
1324 1 0.49137 0.454987 0
1292 1 0.465764 0.423858 0
1323 1 0.484996 0.431265 0
1322 1 0.471588 0.448842 0
1318 1 0.0160486 0.454242 0
1348 1 0.00143094 0.472538 0
1349 1 0.0216024 0.479355 0
1379 1 0.0068054 0.49701 0
1320 1 0.0356138 0.460822 0
421 1 0.0411573 0.486633 0
392 1 0.0556667 0.468085 0
422 1 0.0612187 0.492758 0
393 1 0.0761006 0.474939 0
364 1 0.0900396 0.456995 0
394 1 0.0948954 0.482237 0
395 1 0.108748 0.46451 0
396 1 0.114059 0.488817 0
397 1 0.128693 0.471064 0
427 1 0.134016 0.495115 0
398 1 0.147539 0.477627 0
399 1 0.16231 0.460338 0
429 1 0.167367 0.484836 0
400 1 0.182523 0.465948 0
431 1 0.187192 0.490561 0
402 1 0.201657 0.473695 0
432 1 0.206864 0.49803 0
403 1 0.21618 0.455587 0
433 1 0.222164 0.480876 0
404 1 0.236843 0.462325 0
435 1 0.241625 0.487585 0
406 1 0.256484 0.46939 0
436 1 0.261388 0.493389 0
408 1 0.275862 0.475119 0
439 1 0.280869 0.500503 0
410 1 0.29034 0.457315 0
441 1 0.295363 0.481867 0
411 1 0.309622 0.463423 0
440 1 0.315745 0.489205 0
442 1 0.329358 0.470047 0
471 1 0.33478 0.494574 0
473 1 0.349913 0.47687 0
443 1 0.36365 0.458907 0
444 1 0.369391 0.483062 0
445 1 0.382996 0.465864 0
475 1 0.388826 0.490108 0
448 1 0.423045 0.478435 0
446 1 0.402771 0.471344 0
477 1 0.408836 0.497094 0
1351 1 0.462522 0.491567 0
420 1 0.437614 0.460098 0
449 1 0.442963 0.484723 0
450 1 0.45735 0.466756 0
1352 1 0.481623 0.49792 0
1354 1 0.496036 0.480626 0
423 1 0.0798773 0.500828 0
1380 1 0.0311646 0.529144 0
1350 1 0.0264195 0.503654 0
451 1 0.0459005 0.511297 0
452 1 0.0509485 0.535185 0
453 1 0.0656099 0.518145 0
454 1 0.0703783 0.543919 0
424 1 0.0846523 0.525287 0
425 1 0.0998228 0.507435 0
455 1 0.104836 0.530957 0
1714 1 0.499955 0.912857 0
426 1 0.119635 0.512655 0
456 1 0.125148 0.538089 0
457 1 0.139469 0.519797 0
458 1 0.144495 0.544427 0
459 1 0.158637 0.52703 0
430 1 0.173455 0.508699 0
428 1 0.153588 0.502136 0
460 1 0.178322 0.533815 0
461 1 0.192852 0.515434 0
462 1 0.198142 0.539591 0
463 1 0.211996 0.522142 0
434 1 0.22709 0.504719 0
464 1 0.231736 0.529019 0
465 1 0.246876 0.511731 0
466 1 0.252347 0.535677 0
437 1 0.267023 0.517286 0
497 1 0.272543 0.5422 0
467 1 0.286721 0.52413 0
438 1 0.301279 0.50635 0
468 1 0.305695 0.531035 0
469 1 0.320563 0.512874 0
499 1 0.326273 0.537709 0
470 1 0.340113 0.51855 0
501 1 0.345889 0.544064 0
472 1 0.354133 0.501079 0
503 1 0.360486 0.525736 0
474 1 0.374453 0.507233 0
505 1 0.380065 0.532298 0
476 1 0.393402 0.513794 0
506 1 0.399773 0.53886 0
507 1 0.414164 0.521216 0
478 1 0.428445 0.503091 0
509 1 0.419776 0.545684 0
480 1 0.434196 0.527437 0
479 1 0.448086 0.510044 0
510 1 0.45353 0.534702 0
1381 1 0.467784 0.516357 0
1382 1 0.487274 0.521586 0
1411 1 0.473077 0.541186 0
1409 1 0.0170889 0.547475 0
1408 1 0.0226145 0.571947 0
481 1 0.0366548 0.553694 0
1410 1 0.0419345 0.578762 0
483 1 0.0560481 0.561417 0
482 1 0.0623463 0.585621 0
485 1 0.0906817 0.54881 0
513 1 0.0766324 0.567135 0
484 1 0.0962374 0.5742 0
486 1 0.11047 0.5558 0
515 1 0.116757 0.580781 0
487 1 0.129723 0.562126 0
517 1 0.136064 0.587083 0
488 1 0.149285 0.569192 0
489 1 0.163936 0.551627 0
490 1 0.168697 0.575891 0
491 1 0.182613 0.559001 0
521 1 0.189367 0.582438 0
492 1 0.202768 0.563969 0
523 1 0.208835 0.587991 0
493 1 0.217835 0.547466 0
494 1 0.22256 0.570339 0
495 1 0.237755 0.553306 0
525 1 0.242498 0.578227 0
496 1 0.257688 0.559756 0
526 1 0.261382 0.584707 0
527 1 0.276967 0.566803 0
498 1 0.291685 0.548296 0
529 1 0.297174 0.572917 0
500 1 0.311432 0.554765 0
530 1 0.31619 0.57952 0
531 1 0.331198 0.561444 0
532 1 0.336652 0.585884 0
533 1 0.35058 0.568392 0
502 1 0.366043 0.550667 0
534 1 0.371042 0.574701 0
504 1 0.385207 0.557073 0
535 1 0.390284 0.581504 0
508 1 0.405034 0.56374 0
537 1 0.410181 0.588259 0
539 1 0.424762 0.569864 0
540 1 0.439465 0.55214 0
569 1 0.444637 0.576208 0
1441 1 0.45884 0.559212 0
1442 1 0.464787 0.58295 0
1413 1 0.492786 0.546119 0
1443 1 0.483888 0.588611 0
1412 1 0.478798 0.564753 0
1414 1 0.498078 0.571584 0
1439 1 0.0269978 0.595843 0
1438 1 0.00698599 0.60098 0
1469 1 0.0011538 0.625884 0
1440 1 0.0209447 0.619646 0
511 1 0.0473982 0.603521 0
541 1 0.0535749 0.627266 0
512 1 0.0674716 0.610188 0
514 1 0.0820112 0.591742 0
542 1 0.0728351 0.633832 0
543 1 0.0873416 0.616418 0
545 1 0.101341 0.599054 0
546 1 0.107094 0.622919 0
516 1 0.120697 0.605054 0
547 1 0.126288 0.629763 0
518 1 0.139969 0.611917 0
519 1 0.15467 0.594264 0
548 1 0.159865 0.617719 0
520 1 0.174912 0.600067 0
577 1 0.146252 0.637092 0
549 1 0.18078 0.62453 0
522 1 0.195081 0.606528 0
551 1 0.200258 0.630332 0
553 1 0.214664 0.613625 0
524 1 0.228036 0.595308 0
554 1 0.233935 0.62167 0
555 1 0.247137 0.603015 0
528 1 0.282883 0.591517 0
556 1 0.253142 0.626857 0
557 1 0.267591 0.609205 0
587 1 0.273507 0.632475 0
558 1 0.287483 0.615502 0
559 1 0.302834 0.598022 0
560 1 0.308005 0.622219 0
561 1 0.322017 0.604153 0
563 1 0.356687 0.59276 0
591 1 0.328185 0.628434 0
562 1 0.342697 0.610525 0
564 1 0.347632 0.634826 0
565 1 0.3621 0.616136 0
536 1 0.376138 0.599291 0
566 1 0.381115 0.623708 0
567 1 0.396109 0.605479 0
597 1 0.401047 0.629975 0
568 1 0.415951 0.612195 0
599 1 0.42138 0.635745 0
538 1 0.429781 0.594368 0
600 1 0.435786 0.618274 0
570 1 0.449759 0.59996 0
1501 1 0.455264 0.625922 0
1471 1 0.469114 0.607209 0
1472 1 0.474778 0.631179 0
1473 1 0.488468 0.612959 0
1529 1 0.0111728 0.669414 0
1499 1 0.0162598 0.643857 0
1500 1 0.0308519 0.661119 0
1470 1 0.0352073 0.637018 0
571 1 0.0509905 0.653269 0
572 1 0.0640172 0.67359 0
601 1 0.0454125 0.68067 0
544 1 0.0928543 0.640415 0
573 1 0.0782926 0.657336 0
574 1 0.0974656 0.66503 0
575 1 0.111665 0.647753 0
605 1 0.116487 0.672816 0
576 1 0.131566 0.654892 0
607 1 0.13626 0.679641 0
578 1 0.151271 0.661328 0
579 1 0.165933 0.642701 0
609 1 0.170985 0.668267 0
550 1 0.184632 0.649528 0
580 1 0.190979 0.674904 0
581 1 0.204485 0.655326 0
611 1 0.210826 0.679994 0
552 1 0.219708 0.63829 0
582 1 0.225152 0.662292 0
583 1 0.239305 0.645083 0
584 1 0.245102 0.668541 0
585 1 0.25886 0.650292 0
615 1 0.264363 0.675463 0
586 1 0.279277 0.657894 0
589 1 0.293075 0.639348 0
588 1 0.298698 0.663516 0
590 1 0.31308 0.646434 0
621 1 0.318277 0.670972 0
593 1 0.333068 0.652298 0
592 1 0.338298 0.676783 0
594 1 0.352759 0.660128 0
595 1 0.367278 0.642324 0
625 1 0.372602 0.66572 0
596 1 0.38692 0.647674 0
627 1 0.391943 0.672285 0
598 1 0.406358 0.654547 0
657 1 0.41203 0.678944 0
628 1 0.425886 0.660405 0
629 1 0.440883 0.642256 0
630 1 0.446506 0.666892 0
1502 1 0.461287 0.649483 0
1533 1 0.465107 0.67385 0
1474 1 0.494097 0.637418 0
1503 1 0.479751 0.656568 0
1504 1 0.48534 0.680498 0
13 1 0.235522 0.998009 0
1558 1 0.00131192 0.719565 0
1559 1 0.00730402 0.693874 0
1530 1 0.0266033 0.687018 0
1560 1 0.021481 0.711888 0
631 1 0.040905 0.704852 0
602 1 0.0640987 0.699457 0
632 1 0.0554072 0.721965 0
603 1 0.0815841 0.68282 0
633 1 0.0854928 0.707478 0
604 1 0.101702 0.691481 0
635 1 0.10716 0.715353 0
606 1 0.121436 0.69736 0
636 1 0.126992 0.721002 0
637 1 0.141907 0.703566 0
608 1 0.156335 0.685283 0
638 1 0.161302 0.709954 0
639 1 0.176791 0.692326 0
641 1 0.182105 0.716472 0
610 1 0.19645 0.699767 0
642 1 0.202426 0.722719 0
612 1 0.216484 0.704521 0
613 1 0.23037 0.687199 0
643 1 0.23573 0.71108 0
614 1 0.249922 0.693349 0
617 1 0.284682 0.682607 0
645 1 0.255577 0.718439 0
616 1 0.269948 0.699711 0
647 1 0.274468 0.724667 0
618 1 0.289676 0.707257 0
619 1 0.303653 0.688653 0
620 1 0.308992 0.714284 0
622 1 0.323628 0.694587 0
651 1 0.328409 0.720118 0
653 1 0.343349 0.701946 0
654 1 0.348712 0.727058 0
623 1 0.357966 0.683332 0
624 1 0.363377 0.708718 0
626 1 0.377373 0.689653 0
655 1 0.382297 0.714837 0
656 1 0.397686 0.69656 0
686 1 0.402151 0.721561 0
658 1 0.417107 0.70303 0
659 1 0.43233 0.685379 0
660 1 0.436226 0.710404 0
1531 1 0.451333 0.692127 0
1561 1 0.455803 0.716901 0
1532 1 0.471049 0.698612 0
1563 1 0.476312 0.723019 0
1534 1 0.490467 0.70537 0
1619 1 0.0120448 0.76172 0
1589 1 0.0173259 0.73587 0
1590 1 0.031688 0.754049 0
661 1 0.0366112 0.730297 0
663 1 0.051426 0.747858 0
662 1 0.0653145 0.764579 0
664 1 0.070918 0.738475 0
695 1 0.0852753 0.757141 0
634 1 0.0924061 0.732561 0
665 1 0.112437 0.740583 0
697 1 0.11959 0.766871 0
666 1 0.132352 0.745051 0
668 1 0.139652 0.766787 0
667 1 0.147713 0.72749 0
669 1 0.154752 0.751719 0
640 1 0.167254 0.733934 0
670 1 0.173617 0.757913 0
671 1 0.188009 0.74055 0
672 1 0.192643 0.765704 0
673 1 0.207631 0.746715 0
703 1 0.212416 0.772206 0
644 1 0.221522 0.729566 0
674 1 0.226754 0.75403 0
675 1 0.24099 0.73607 0
705 1 0.246388 0.760891 0
646 1 0.260736 0.743326 0
677 1 0.265982 0.767643 0
648 1 0.280408 0.749424 0
649 1 0.295423 0.731567 0
679 1 0.300065 0.756841 0
650 1 0.314592 0.73845 0
681 1 0.319831 0.762821 0
652 1 0.334615 0.744979 0
682 1 0.339092 0.769174 0
683 1 0.353773 0.751041 0
685 1 0.368439 0.733159 0
684 1 0.374122 0.757011 0
715 1 0.38863 0.740384 0
687 1 0.421554 0.727128 0
714 1 0.394091 0.76465 0
717 1 0.408557 0.746275 0
716 1 0.413558 0.771283 0
688 1 0.427225 0.752859 0
689 1 0.441168 0.734525 0
719 1 0.44741 0.759282 0
690 1 0.461661 0.740831 0
1591 1 0.467242 0.765357 0
1565 1 0.495942 0.729406 0
1562 1 0.481395 0.747257 0
1593 1 0.487205 0.772633 0
1620 1 0.0268687 0.778746 0
1649 1 0.0209552 0.803654 0
1618 1 0.00681433 0.786259 0
1648 1 0.00143907 0.811054 0
691 1 0.0460243 0.771891 0
721 1 0.0404939 0.796805 0
693 1 0.0600581 0.78901 0
692 1 0.0548421 0.813861 0
723 1 0.0746172 0.806766 0
694 1 0.0802764 0.781626 0
725 1 0.0940662 0.800107 0
696 1 0.0988315 0.775746 0
727 1 0.112314 0.793878 0
728 1 0.126731 0.812355 0
698 1 0.13129 0.788667 0
699 1 0.159018 0.775232 0
700 1 0.145489 0.804335 0
731 1 0.1647 0.799257 0
701 1 0.179106 0.782773 0
702 1 0.198349 0.790021 0
763 1 0.202631 0.814967 0
732 1 0.182455 0.809817 0
733 1 0.217101 0.797339 0
704 1 0.232251 0.779428 0
706 1 0.23696 0.803744 0
676 1 0.251373 0.785662 0
737 1 0.257328 0.811064 0
707 1 0.271111 0.792088 0
738 1 0.277576 0.816766 0
678 1 0.285673 0.774048 0
708 1 0.291432 0.798968 0
709 1 0.305302 0.781136 0
710 1 0.311042 0.805814 0
680 1 0.324703 0.787122 0
741 1 0.331627 0.811698 0
711 1 0.344729 0.793661 0
742 1 0.351286 0.818475 0
713 1 0.35936 0.774922 0
712 1 0.364565 0.800146 0
743 1 0.37922 0.781232 0
745 1 0.38442 0.806497 0
746 1 0.398478 0.788315 0
775 1 0.405668 0.812906 0
747 1 0.419242 0.79421 0
718 1 0.433481 0.77732 0
749 1 0.439042 0.800773 0
720 1 0.453275 0.78391 0
1621 1 0.459071 0.808082 0
1623 1 0.492234 0.797155 0
1592 1 0.472781 0.789915 0
1622 1 0.478198 0.81415 0
1679 1 0.016185 0.827687 0
1678 1 0.0114077 0.852831 0
1709 1 0.0310046 0.84689 0
1650 1 0.0359412 0.821232 0
1680 1 0.0500052 0.83903 0
752 1 0.0640365 0.857223 0
751 1 0.069329 0.830991 0
753 1 0.0835259 0.850413 0
722 1 0.0885545 0.825822 0
724 1 0.102784 0.843244 0
726 1 0.107188 0.818821 0
757 1 0.122096 0.836017 0
756 1 0.137997 0.852765 0
755 1 0.117372 0.86065 0
729 1 0.142161 0.828767 0
759 1 0.157336 0.847178 0
730 1 0.16241 0.823617 0
761 1 0.178288 0.837996 0
792 1 0.192972 0.85616 0
762 1 0.208101 0.840184 0
735 1 0.223085 0.822264 0
734 1 0.227517 0.845913 0
736 1 0.242392 0.828709 0
765 1 0.248652 0.853087 0
767 1 0.262499 0.835001 0
766 1 0.268155 0.859781 0
768 1 0.282642 0.841351 0
739 1 0.296838 0.823761 0
769 1 0.301996 0.84777 0
740 1 0.316691 0.829943 0
770 1 0.322157 0.854374 0
771 1 0.33616 0.836114 0
801 1 0.341657 0.860695 0
773 1 0.356226 0.842366 0
744 1 0.37108 0.825596 0
803 1 0.375171 0.849512 0
774 1 0.390792 0.830257 0
776 1 0.395542 0.854413 0
748 1 0.424993 0.818004 0
777 1 0.410604 0.837314 0
778 1 0.415677 0.862003 0
779 1 0.430327 0.844541 0
750 1 0.44443 0.825914 0
780 1 0.450306 0.850125 0
1651 1 0.464126 0.832312 0
1624 1 0.49827 0.820309 0
1652 1 0.469175 0.856449 0
1653 1 0.483402 0.83809 0
1683 1 0.488622 0.863233 0
1710 1 0.025228 0.871363 0
1739 1 0.0204122 0.895612 0
1708 1 0.00577327 0.878553 0
1737 1 0.00142076 0.902723 0
781 1 0.0454098 0.864414 0
811 1 0.0401113 0.888911 0
782 1 0.0595036 0.882034 0
812 1 0.0541112 0.906219 0
813 1 0.0737052 0.898942 0
783 1 0.0786112 0.874739 0
784 1 0.0936157 0.892261 0
754 1 0.0990969 0.867348 0
785 1 0.11293 0.885965 0
786 1 0.127704 0.902809 0
787 1 0.132484 0.877827 0
760 1 0.173402 0.863646 0
788 1 0.147209 0.89512 0
758 1 0.153429 0.871312 0
789 1 0.167574 0.887818 0
764 1 0.213375 0.865812 0
791 1 0.187666 0.880318 0
823 1 0.20136 0.898962 0
790 1 0.181881 0.905323 0
793 1 0.219747 0.890086 0
795 1 0.233633 0.871046 0
794 1 0.239074 0.898475 0
796 1 0.253191 0.878497 0
825 1 0.260283 0.902533 0
827 1 0.273351 0.883968 0
826 1 0.279877 0.908619 0
797 1 0.287972 0.865753 0
798 1 0.292925 0.890539 0
799 1 0.307076 0.873413 0
829 1 0.313096 0.896512 0
800 1 0.327918 0.878835 0
831 1 0.333306 0.903051 0
802 1 0.347713 0.884958 0
833 1 0.352886 0.909419 0
772 1 0.361904 0.8675 0
804 1 0.367659 0.891265 0
805 1 0.381301 0.87347 0
806 1 0.387518 0.897587 0
807 1 0.401111 0.879252 0
837 1 0.407356 0.903845 0
808 1 0.421538 0.886121 0
809 1 0.435477 0.868267 0
810 1 0.440838 0.893358 0
1681 1 0.455134 0.874791 0
1711 1 0.45994 0.899619 0
1684 1 0.493773 0.888333 0
1682 1 0.47502 0.880333 0
1713 1 0.48019 0.906261 0
1738 1 0.015604 0.920627 0
1768 1 0.0107528 0.944512 0
1769 1 0.0305093 0.938259 0
1740 1 0.0349854 0.913344 0
841 1 0.0495855 0.931427 0
842 1 0.0646648 0.947851 0
843 1 0.0694098 0.923407 0
844 1 0.0838937 0.941259 0
814 1 0.088981 0.916496 0
845 1 0.103435 0.934361 0
815 1 0.108174 0.910078 0
816 1 0.122777 0.926707 0
847 1 0.137019 0.944011 0
846 1 0.118112 0.952155 0
817 1 0.142424 0.919666 0
818 1 0.157399 0.937191 0
819 1 0.162299 0.912732 0
820 1 0.176339 0.92945 0
851 1 0.190714 0.946517 0
821 1 0.196252 0.922751 0
822 1 0.209683 0.940208 0
824 1 0.215839 0.915871 0
853 1 0.229751 0.932346 0
855 1 0.247191 0.921178 0
854 1 0.246442 0.947959 0
856 1 0.266113 0.927308 0
885 1 0.271185 0.950969 0
857 1 0.28561 0.933572 0
828 1 0.2993 0.915584 0
859 1 0.305369 0.939365 0
830 1 0.318696 0.920922 0
860 1 0.324702 0.944791 0
832 1 0.33867 0.926833 0
861 1 0.344118 0.95187 0
863 1 0.357721 0.933204 0
834 1 0.373278 0.915149 0
865 1 0.377964 0.939903 0
835 1 0.392384 0.922361 0
839 1 0.426877 0.911374 0
836 1 0.398243 0.94702 0
838 1 0.411981 0.928857 0
867 1 0.418308 0.954148 0
869 1 0.43225 0.935132 0
840 1 0.446354 0.917692 0
1741 1 0.451157 0.942707 0
1712 1 0.465727 0.924006 0
1743 1 0.485386 0.930051 0
1742 1 0.470662 0.948078 0
1744 1 0.491078 0.955247 0
1799 1 0.0257785 0.962524 0
1798 1 0.0213335 0.987865 0
1797 1 0.00653952 0.970317 0
927 1 0.00157387 0.995273 0
1 1 0.0552836 0.997278 0
1770 1 0.045467 0.954924 0
1800 1 0.040638 0.980369 0
871 1 0.0602242 0.972292 0
872 1 0.0751689 0.990921 0
873 1 0.0795558 0.965543 0
874 1 0.0939183 0.983723 0
875 1 0.098811 0.95899 0
876 1 0.112872 0.976656 0
7 1 0.128367 0.99348 0
877 1 0.132834 0.968927 0
849 1 0.171445 0.954872 0
878 1 0.147621 0.985638 0
848 1 0.15176 0.96084 0
879 1 0.166833 0.978588 0
850 1 0.186312 0.971288 0
11 1 0.20079 0.988991 0
852 1 0.205444 0.964437 0
881 1 0.181464 0.995317 0
883 1 0.22432 0.956839 0
882 1 0.219662 0.982072 0
884 1 0.238478 0.973499 0
886 1 0.257522 0.968767 0
16 1 0.262191 0.99511 0
17 1 0.277017 0.975877 0
887 1 0.291588 0.95812 0
888 1 0.296666 0.98278 0
858 1 0.310736 0.963656 0
889 1 0.316043 0.988654 0
891 1 0.329734 0.970044 0
890 1 0.335644 0.99444 0
862 1 0.350177 0.976821 0
864 1 0.363474 0.95841 0
893 1 0.369554 0.98394 0
895 1 0.383444 0.965652 0
896 1 0.389365 0.989049 0
866 1 0.403389 0.971505 0
897 1 0.409355 0.996517 0
868 1 0.423537 0.978275 0
1771 1 0.45744 0.965946 0
1772 1 0.462342 0.990391 0
899 1 0.442821 0.984274 0
870 1 0.437396 0.960117 0
1774 1 0.495875 0.979201 0
903 1 0.481245 0.996487 0
1773 1 0.47649 0.972741 0
18 1 0.282359 1.00012 0
904 1 0.507488 0.0284208 0
906 1 0.520497 0.0101922 0
935 1 0.527229 0.0340616 0
905 1 0.500942 0.00308257 0
908 1 0.541227 0.0161337 0
937 1 0.546941 0.0395315 0
939 1 0.560835 0.0225887 0
941 1 0.574508 0.00472706 0
940 1 0.579507 0.0286751 0
942 1 0.796656 0.0238673 0
944 1 0.810943 0.0410062 0
943 1 0.815945 0.017535 0
945 1 0.830943 0.034912 0
914 1 0.835126 0.0104359 0
947 1 0.850824 0.0265943 0
916 1 0.855862 0.00242677 0
918 1 0.870161 0.0199959 0
949 1 0.884966 0.0375097 0
948 1 0.865834 0.0458274 0
919 1 0.890133 0.0128659 0
920 1 0.904427 0.0302367 0
1790 1 0.908649 0.00459913 0
951 1 0.923211 0.0222575 0
952 1 0.93847 0.0394992 0
922 1 0.94357 0.0158845 0
953 1 0.957893 0.0337363 0
924 1 0.962888 0.00904335 0
955 1 0.977279 0.0267745 0
925 1 0.982161 0.00178576 0