ITEM: TIMESTEP
510000
ITEM: NUMBER OF ATOMS
1800
ITEM: BOX BOUNDS pp pp pp
-1.7693836035983963e+01 1.8269383603598402e+02
2.1919634826085996e+00 1.6280803651739436e+02
0.0000000000000000e+00 5.5000000000000000e+00
ITEM: ATOMS id type xs ys zs
928 1 0.0148769 0.0124942 0
957 1 0.0106541 0.0376462 0
959 1 0.0296763 0.0302455 0
929 1 0.0349201 0.00620564 0
930 1 0.0493637 0.0233621 0
31 1 0.0639378 0.0408882 0
2 1 0.0694945 0.0153678 0
33 1 0.0829031 0.0327787 0
3 1 0.0883943 0.00833808 0
4 1 0.103228 0.026844 0
6 1 0.122804 0.0187213 0
37 1 0.137643 0.0354143 0
35 1 0.117885 0.0428816 0
5 1 0.107822 0.00158282 0
8 1 0.142299 0.011831 0
39 1 0.156814 0.0291692 0
880 1 0.161288 0.00460856 0
9 1 0.17612 0.0219108 0
40 1 0.190933 0.0377246 0
10 1 0.195533 0.0130016 0
41 1 0.209544 0.0315523 0
12 1 0.21535 0.00728053 0
14 1 0.229962 0.0248262 0
45 1 0.245896 0.0422064 0
15 1 0.249137 0.0181919 0
1354 1 0.497219 0.479324 0
46 1 0.269701 0.0189029 0
77 1 0.273905 0.0428901 0
1353 1 0.476889 0.472976 0
47 1 0.28796 0.025161 0
19 1 0.302412 0.00600912 0
49 1 0.307442 0.0312635 0
20 1 0.321384 0.0117212 0
892 1 0.355059 0.000706927 0
51 1 0.326888 0.0360178 0
21 1 0.341472 0.0191063 0
22 1 0.346966 0.0435191 0
23 1 0.360998 0.025427 0
894 1 0.37555 0.00807749 0
24 1 0.381542 0.0310172 0
25 1 0.39497 0.0136125 0
26 1 0.400367 0.0381443 0
27 1 0.414327 0.020289 0
28 1 0.419249 0.0444393 0
29 1 0.434206 0.0273012 0
900 1 0.448566 0.00885209 0
30 1 0.45387 0.0336725 0
898 1 0.428594 0.00276911 0
902 1 0.487529 0.020709 0
901 1 0.467348 0.0155647 0
931 1 0.47441 0.0400361 0
988 1 0.020542 0.0788475 0
958 1 0.0256088 0.0545463 0
987 1 0.00617313 0.062167 0
986 1 0.000867625 0.0875153 0
960 1 0.0444687 0.0485843 0
989 1 0.0399614 0.0729423 0
61 1 0.0592522 0.0660873 0
990 1 0.0550466 0.0905396 0
62 1 0.0745744 0.0819931 0
32 1 0.0789041 0.0568264 0
63 1 0.0930102 0.0745257 0
34 1 0.0980493 0.050537 0
65 1 0.113023 0.0676855 0
66 1 0.127425 0.0843004 0
36 1 0.132628 0.059612 0
69 1 0.171191 0.0457017 0
67 1 0.147681 0.0775686 0
38 1 0.151477 0.0528019 0
68 1 0.166612 0.0701037 0
71 1 0.18624 0.0623642 0
72 1 0.200129 0.0808957 0
42 1 0.206417 0.0558422 0
70 1 0.18123 0.0876662 0
43 1 0.225984 0.0485141 0
73 1 0.219791 0.0731082 0
44 1 0.240433 0.0660147 0
105 1 0.234202 0.0904497 0
74 1 0.26462 0.0855205 0
75 1 0.259313 0.0614401 0
76 1 0.279201 0.0673923 0
48 1 0.293074 0.0500762 0
79 1 0.299352 0.0740815 0
50 1 0.313287 0.0552133 0
81 1 0.318793 0.0800289 0
52 1 0.332148 0.0618639 0
82 1 0.339091 0.0859558 0
83 1 0.352341 0.0672495 0
53 1 0.366697 0.0498192 0
54 1 0.371934 0.0744954 0
55 1 0.386278 0.0565663 0
56 1 0.390836 0.0813228 0
57 1 0.406319 0.0639608 0
87 1 0.411486 0.0882337 0
58 1 0.425673 0.0696142 0
59 1 0.439996 0.0520872 0
89 1 0.445834 0.0760499 0
60 1 0.458848 0.0576789 0
933 1 0.494205 0.0460754 0
961 1 0.464531 0.0825007 0
963 1 0.498309 0.0714609 0
932 1 0.479249 0.0649505 0
962 1 0.484678 0.0892858 0
1047 1 0.0108078 0.129133 0
1018 1 0.0157227 0.105215 0
1049 1 0.0304378 0.122303 0
1019 1 0.0350476 0.0966894 0
1020 1 0.04999 0.115535 0
121 1 0.0645005 0.132168 0
91 1 0.0697089 0.107106 0
92 1 0.0841991 0.125087 0
93 1 0.088583 0.0992869 0
94 1 0.103344 0.116672 0
64 1 0.108427 0.0928402 0
95 1 0.122384 0.108967 0
96 1 0.137294 0.127 0
125 1 0.117714 0.133839 0
97 1 0.142672 0.101866 0
98 1 0.156267 0.119937 0
99 1 0.162143 0.0949407 0
100 1 0.176649 0.111887 0
130 1 0.191413 0.130258 0
101 1 0.195769 0.105212 0
102 1 0.211875 0.12094 0
103 1 0.215671 0.096417 0
104 1 0.232931 0.118042 0
78 1 0.284811 0.0912801 0
106 1 0.251042 0.103754 0
137 1 0.255485 0.127447 0
107 1 0.270275 0.108891 0
108 1 0.275541 0.133132 0
109 1 0.289565 0.116313 0
80 1 0.304428 0.0985833 0
110 1 0.310257 0.122791 0
111 1 0.324575 0.104269 0
141 1 0.329799 0.128048 0
113 1 0.343662 0.11044 0
143 1 0.349362 0.134843 0
84 1 0.358374 0.0920348 0
112 1 0.362897 0.116748 0
85 1 0.377011 0.0986819 0
115 1 0.382701 0.12328 0
86 1 0.39718 0.105644 0
116 1 0.402434 0.130193 0
117 1 0.416715 0.112383 0
118 1 0.422066 0.136933 0
88 1 0.431404 0.0937211 0
119 1 0.436142 0.118774 0
90 1 0.451182 0.100924 0
120 1 0.456381 0.125302 0
991 1 0.470223 0.106914 0
992 1 0.476128 0.13142 0
993 1 0.490438 0.114399 0
1075 1 0.00145377 0.179863 0
1048 1 0.0254267 0.147817 0
1077 1 0.0207183 0.172425 0
1046 1 0.00620392 0.154764 0
1079 1 0.040624 0.164355 0
1050 1 0.0453726 0.140636 0
151 1 0.060242 0.157697 0
152 1 0.0749042 0.175247 0
122 1 0.0789108 0.149662 0
153 1 0.094181 0.167492 0
123 1 0.0983035 0.141889 0
124 1 0.11318 0.158614 0
126 1 0.132727 0.151524 0
155 1 0.128383 0.175276 0
129 1 0.170742 0.135652 0
157 1 0.147264 0.168671 0
127 1 0.152152 0.1443 0
128 1 0.166787 0.161877 0
159 1 0.185924 0.154181 0
132 1 0.193696 0.175878 0
131 1 0.206713 0.155979 0
133 1 0.223258 0.140721 0
134 1 0.228876 0.164735 0
135 1 0.241924 0.146703 0
165 1 0.247641 0.170381 0
136 1 0.260893 0.152991 0
167 1 0.266805 0.17788 0
138 1 0.280808 0.158552 0
139 1 0.295879 0.140216 0
169 1 0.30091 0.164331 0
140 1 0.314982 0.147396 0
171 1 0.320157 0.171284 0
142 1 0.334811 0.153558 0
172 1 0.340124 0.178119 0
173 1 0.354114 0.160482 0
114 1 0.36867 0.141471 0
144 1 0.373586 0.166239 0
145 1 0.38837 0.147884 0
146 1 0.393486 0.172119 0
147 1 0.408109 0.154169 0
177 1 0.412883 0.178693 0
148 1 0.42809 0.161965 0
149 1 0.441709 0.142996 0
150 1 0.447489 0.167334 0
1021 1 0.461633 0.149677 0
1023 1 0.496104 0.137996 0
1051 1 0.4665 0.173793 0
1022 1 0.4819 0.156206 0
1053 1 0.486886 0.180278 0
1076 1 0.0161009 0.197911 0
1106 1 0.0113916 0.222326 0
1107 1 0.0308652 0.214873 0
1078 1 0.0356621 0.18923 0
1080 1 0.0548233 0.182731 0
1109 1 0.0500156 0.208912 0
181 1 0.0702485 0.200346 0
182 1 0.078416 0.223126 0
183 1 0.0908468 0.192686 0
154 1 0.109376 0.183885 0
185 1 0.106096 0.209643 0
156 1 0.125053 0.198778 0
186 1 0.130938 0.221988 0
158 1 0.145511 0.203684 0
160 1 0.160218 0.186513 0
189 1 0.165139 0.210992 0
161 1 0.179453 0.193425 0
191 1 0.184363 0.217696 0
162 1 0.198804 0.199883 0
192 1 0.204353 0.224097 0
163 1 0.213927 0.181222 0
193 1 0.218214 0.206151 0
164 1 0.233099 0.1887 0
195 1 0.238339 0.213837 0
166 1 0.25187 0.195354 0
196 1 0.257703 0.218998 0
197 1 0.272705 0.20171 0
198 1 0.277237 0.225591 0
168 1 0.286392 0.182958 0
199 1 0.291545 0.207635 0
170 1 0.305793 0.189513 0
200 1 0.311137 0.212966 0
201 1 0.32554 0.195387 0
202 1 0.330815 0.220478 0
203 1 0.344902 0.202869 0
233 1 0.351177 0.226215 0
174 1 0.35935 0.184661 0
204 1 0.365693 0.209272 0
175 1 0.379712 0.189849 0
205 1 0.385353 0.215618 0
176 1 0.398634 0.197115 0
207 1 0.40491 0.221412 0
178 1 0.418119 0.203231 0
179 1 0.432133 0.185712 0
209 1 0.43828 0.209522 0
180 1 0.452181 0.19161 0
1081 1 0.457116 0.21704 0
1052 1 0.471334 0.199078 0
1082 1 0.477964 0.22267 0
1083 1 0.491847 0.204365 0
1108 1 0.0283065 0.251434 0
1136 1 0.00796237 0.246146 0
1137 1 0.0147595 0.269765 0
1110 1 0.0438743 0.23375 0
1140 1 0.0479491 0.259054 0
211 1 0.0631502 0.241025 0
212 1 0.06728 0.265842 0
213 1 0.0822329 0.248585 0
184 1 0.0964458 0.231821 0
214 1 0.101951 0.256342 0
215 1 0.115944 0.238152 0
216 1 0.121595 0.263022 0
217 1 0.135999 0.245631 0
218 1 0.140647 0.27039 0
187 1 0.151711 0.227826 0
188 1 0.155626 0.252717 0
190 1 0.170509 0.235823 0
220 1 0.17576 0.259951 0
221 1 0.190523 0.242245 0
222 1 0.195215 0.266802 0
223 1 0.20921 0.249333 0
194 1 0.223694 0.231115 0
224 1 0.228337 0.256047 0
225 1 0.242895 0.237281 0
226 1 0.248915 0.261954 0
227 1 0.262989 0.244106 0
257 1 0.269284 0.267736 0
228 1 0.282614 0.249698 0
229 1 0.297362 0.231234 0
230 1 0.302282 0.256097 0
231 1 0.316344 0.238003 0
261 1 0.321507 0.263669 0
232 1 0.336472 0.245129 0
263 1 0.341757 0.269743 0
234 1 0.356256 0.250747 0
235 1 0.370153 0.233625 0
265 1 0.37599 0.258613 0
206 1 0.39065 0.239862 0
208 1 0.423976 0.227855 0
236 1 0.395061 0.264459 0
237 1 0.409888 0.24718 0
238 1 0.415757 0.270664 0
239 1 0.430279 0.252295 0
210 1 0.443894 0.234632 0
240 1 0.449361 0.260236 0
1111 1 0.463115 0.241474 0
1112 1 0.468974 0.26545 0
1113 1 0.483233 0.246824 0
1084 1 0.497825 0.228463 0
1142 1 0.488591 0.271095 0
1138 1 0.0192857 0.295319 0
1197 1 0.00469948 0.312184 0
1139 1 0.0334532 0.277135 0
439 1 0.280387 0.499695 0
1169 1 0.0385885 0.302262 0
241 1 0.0530664 0.283686 0
271 1 0.0583919 0.308914 0
243 1 0.0867543 0.273419 0
242 1 0.0722436 0.29074 0
244 1 0.0922683 0.297772 0
273 1 0.077686 0.315141 0
245 1 0.106846 0.281131 0
246 1 0.111639 0.30584 0
247 1 0.126198 0.287636 0
248 1 0.131905 0.313398 0
249 1 0.146252 0.295759 0
219 1 0.160354 0.276592 0
250 1 0.166096 0.30182 0
251 1 0.180685 0.284157 0
281 1 0.186191 0.308223 0
252 1 0.200766 0.291243 0
283 1 0.20553 0.315428 0
253 1 0.214908 0.274766 0
254 1 0.220317 0.298247 0
255 1 0.234891 0.27969 0
285 1 0.23938 0.303352 0
256 1 0.254881 0.285566 0
287 1 0.259838 0.309832 0
258 1 0.27394 0.291949 0
288 1 0.279125 0.316481 0
259 1 0.288638 0.273798 0
289 1 0.293868 0.299311 0
260 1 0.307693 0.281331 0
291 1 0.312697 0.305981 0
262 1 0.32749 0.288395 0
292 1 0.332047 0.312385 0
293 1 0.347122 0.295428 0
264 1 0.361164 0.27612 0
295 1 0.366912 0.300479 0
266 1 0.381284 0.283163 0
297 1 0.386588 0.306635 0
267 1 0.401196 0.289037 0
298 1 0.406095 0.313075 0
268 1 0.420529 0.294843 0
269 1 0.434986 0.277644 0
270 1 0.440321 0.302255 0
1141 1 0.454944 0.284697 0
300 1 0.459893 0.308738 0
1171 1 0.474834 0.29072 0
1172 1 0.479798 0.315632 0
1173 1 0.493823 0.296797 0
1168 1 0.0243354 0.320279 0
1199 1 0.029172 0.3443 0
1198 1 0.0088227 0.337651 0
1228 1 0.0139115 0.362261 0
1170 1 0.0437246 0.326167 0
1229 1 0.0485093 0.350439 0
1200 1 0.0633488 0.33341 0
301 1 0.0682242 0.35758 0
272 1 0.0832091 0.340617 0
275 1 0.0972474 0.323025 0
274 1 0.103034 0.347577 0
276 1 0.117169 0.329591 0
305 1 0.12256 0.355054 0
277 1 0.136736 0.338223 0
307 1 0.142335 0.362697 0
279 1 0.151237 0.319035 0
278 1 0.156726 0.343982 0
280 1 0.171434 0.326772 0
311 1 0.176302 0.349617 0
282 1 0.190614 0.332366 0
312 1 0.195366 0.357232 0
313 1 0.210484 0.339979 0
284 1 0.225332 0.322436 0
315 1 0.230094 0.346877 0
286 1 0.24512 0.327587 0
316 1 0.249755 0.35293 0
317 1 0.264771 0.334992 0
318 1 0.269166 0.359918 0
319 1 0.284322 0.3418 0
290 1 0.298871 0.323844 0
320 1 0.303864 0.348349 0
321 1 0.318251 0.330424 0
294 1 0.352563 0.318091 0
322 1 0.324346 0.354833 0
323 1 0.338185 0.336225 0
324 1 0.343408 0.360931 0
325 1 0.357822 0.34288 0
296 1 0.371702 0.325081 0
326 1 0.377303 0.349758 0
327 1 0.391214 0.331275 0
299 1 0.425243 0.320194 0
328 1 0.396798 0.355853 0
329 1 0.41036 0.338252 0
358 1 0.416632 0.36242 0
359 1 0.430334 0.344852 0
330 1 0.444692 0.327053 0
360 1 0.450588 0.351388 0
1201 1 0.464945 0.332078 0
1202 1 0.484732 0.339628 0
1231 1 0.469978 0.356726 0
1203 1 0.499546 0.320941 0
1233 1 0.489821 0.363638 0
1287 1 0.00558982 0.405052 0
1258 1 0.019039 0.387074 0
1259 1 0.0348082 0.369301 0
450 1 0.457649 0.466202 0
1260 1 0.0398771 0.393591 0
1230 1 0.0540677 0.375757 0
331 1 0.0592688 0.400875 0
303 1 0.088816 0.364449 0
302 1 0.0734961 0.382377 0
333 1 0.0934794 0.388441 0
332 1 0.079477 0.407381 0
304 1 0.108186 0.371999 0
335 1 0.113132 0.396573 0
306 1 0.127849 0.37871 0
337 1 0.133239 0.404534 0
308 1 0.147628 0.385816 0
309 1 0.161621 0.368838 0
339 1 0.167072 0.393256 0
310 1 0.180959 0.37508 0
341 1 0.186963 0.399906 0
343 1 0.20112 0.381293 0
342 1 0.206465 0.406363 0
314 1 0.215822 0.364051 0
344 1 0.221526 0.389277 0
345 1 0.235545 0.371044 0
346 1 0.240617 0.395239 0
347 1 0.254691 0.378239 0
377 1 0.260294 0.4017 0
348 1 0.274901 0.384085 0
349 1 0.289546 0.366279 0
350 1 0.294381 0.390932 0
351 1 0.309231 0.372656 0
381 1 0.314027 0.396726 0
353 1 0.328345 0.379057 0
352 1 0.333346 0.402821 0
354 1 0.348552 0.385609 0
355 1 0.3625 0.367374 0
356 1 0.368502 0.39132 0
357 1 0.382731 0.37321 0
386 1 0.387998 0.398039 0
387 1 0.402319 0.379615 0
388 1 0.407884 0.405271 0
389 1 0.421747 0.386857 0
1232 1 0.435865 0.368166 0
1261 1 0.441615 0.391909 0
1262 1 0.455657 0.374977 0
1293 1 0.461304 0.400097 0
1263 1 0.474981 0.381108 0
1294 1 0.481101 0.405743 0
1264 1 0.496012 0.387743 0
1289 1 0.0249251 0.410864 0
1319 1 0.0305589 0.436997 0
1288 1 0.0109299 0.43059 0
1318 1 0.0163176 0.454977 0
1290 1 0.0449642 0.418685 0
391 1 0.0501411 0.444438 0
361 1 0.0644307 0.42642 0
362 1 0.0689982 0.450767 0
363 1 0.084218 0.43252 0
334 1 0.0983789 0.414347 0
365 1 0.103847 0.43964 0
336 1 0.11843 0.421111 0
366 1 0.123282 0.446663 0
367 1 0.137582 0.428095 0
368 1 0.143187 0.453358 0
338 1 0.152915 0.410458 0
369 1 0.157094 0.435535 0
340 1 0.171504 0.418081 0
370 1 0.176788 0.441833 0
371 1 0.19147 0.424503 0
401 1 0.197009 0.44859 0
372 1 0.211642 0.430989 0
373 1 0.226997 0.412566 0
374 1 0.231557 0.437081 0
375 1 0.246251 0.419523 0
378 1 0.280115 0.408051 0
405 1 0.251076 0.444941 0
376 1 0.265616 0.426535 0
407 1 0.270115 0.450064 0
409 1 0.285142 0.433178 0
379 1 0.299241 0.415443 0
380 1 0.304768 0.440127 0
382 1 0.319317 0.420916 0
385 1 0.353702 0.409273 0
413 1 0.324584 0.445252 0
383 1 0.339249 0.427309 0
412 1 0.344644 0.451621 0
414 1 0.358645 0.433748 0
384 1 0.373477 0.416228 0
415 1 0.378161 0.440751 0
417 1 0.393394 0.422383 0
419 1 0.427653 0.41061 0
416 1 0.397802 0.447061 0
418 1 0.41181 0.429678 0
447 1 0.418229 0.453605 0
390 1 0.431858 0.435079 0
1291 1 0.446735 0.417522 0
1321 1 0.451527 0.442308 0
1292 1 0.465838 0.424654 0
1323 1 0.48619 0.431339 0
1322 1 0.471596 0.449298 0
1348 1 0.00166029 0.472454 0
1349 1 0.0206774 0.479249 0
1379 1 0.00664636 0.498844 0
1320 1 0.0362412 0.4621 0
421 1 0.040589 0.486966 0
392 1 0.0553219 0.469082 0
422 1 0.0595345 0.493724 0
393 1 0.0744068 0.475251 0
364 1 0.0887446 0.457092 0
394 1 0.0940638 0.482103 0
1352 1 0.482033 0.496598 0
395 1 0.108674 0.463863 0
396 1 0.113229 0.489233 0
397 1 0.12844 0.471656 0
427 1 0.133244 0.495446 0
398 1 0.14791 0.478123 0
399 1 0.162683 0.460258 0
429 1 0.168146 0.483432 0
400 1 0.182146 0.466032 0
431 1 0.187891 0.489865 0
402 1 0.201951 0.472211 0
432 1 0.208005 0.497172 0
403 1 0.21658 0.455319 0
433 1 0.221855 0.479929 0
404 1 0.236509 0.461977 0
435 1 0.241523 0.486451 0
406 1 0.256063 0.468996 0
436 1 0.261134 0.492843 0
408 1 0.275163 0.474829 0
1324 1 0.492004 0.455198 0
410 1 0.289759 0.457182 0
441 1 0.295145 0.481207 0
411 1 0.310093 0.463332 0
440 1 0.31461 0.486778 0
442 1 0.32899 0.470869 0
471 1 0.335573 0.494083 0
473 1 0.349531 0.475571 0
443 1 0.364362 0.458657 0
444 1 0.3682 0.483256 0
445 1 0.383651 0.465395 0
475 1 0.388392 0.489726 0
448 1 0.422716 0.477675 0
446 1 0.403799 0.47085 0
477 1 0.407828 0.495508 0
1351 1 0.462736 0.490184 0
420 1 0.437611 0.459272 0
449 1 0.442414 0.484489 0
1167 1 -4.31847e-05 0.287412 0
13 1 0.234988 0.00069432 0
1380 1 0.0310159 0.529556 0
1350 1 0.0268607 0.504059 0
451 1 0.0458258 0.512014 0
452 1 0.0515501 0.536466 0
453 1 0.0655808 0.518073 0
454 1 0.0708339 0.542489 0
424 1 0.0852426 0.525192 0
425 1 0.100123 0.507258 0
455 1 0.105425 0.531139 0
426 1 0.119521 0.513261 0
456 1 0.124895 0.538414 0
457 1 0.139605 0.52018 0
458 1 0.144378 0.545128 0
459 1 0.158895 0.527273 0
430 1 0.173225 0.50787 0
428 1 0.153526 0.501779 0
460 1 0.178772 0.533417 0
461 1 0.192472 0.515104 0
462 1 0.198126 0.539855 0
463 1 0.211922 0.522296 0
434 1 0.226484 0.504245 0
464 1 0.232036 0.528326 0
465 1 0.246732 0.510872 0
466 1 0.252243 0.535404 0
437 1 0.266166 0.517594 0
497 1 0.272101 0.541351 0
467 1 0.286491 0.523711 0
438 1 0.300766 0.506073 0
468 1 0.306977 0.530419 0
469 1 0.320828 0.511319 0
499 1 0.32626 0.537522 0
470 1 0.339604 0.519447 0
501 1 0.345622 0.544018 0
472 1 0.354323 0.501457 0
503 1 0.360062 0.526572 0
474 1 0.374305 0.507762 0
505 1 0.37987 0.531727 0
476 1 0.393929 0.514763 0
506 1 0.399862 0.539036 0
507 1 0.413834 0.520421 0
509 1 0.419438 0.545019 0
478 1 0.42799 0.501785 0
480 1 0.432877 0.52714 0
479 1 0.447899 0.509289 0
510 1 0.453375 0.533005 0
1381 1 0.467847 0.514233 0
1382 1 0.4874 0.520344 0
1411 1 0.472953 0.537619 0
1409 1 0.0171327 0.549119 0
1408 1 0.0231509 0.572707 0
481 1 0.0371337 0.553587 0
1410 1 0.0426167 0.579308 0
483 1 0.0563733 0.561513 0
482 1 0.0618684 0.586071 0
485 1 0.0908928 0.549463 0
513 1 0.075659 0.566912 0
484 1 0.0964077 0.573859 0
486 1 0.11091 0.555675 0
515 1 0.115755 0.580618 0
487 1 0.130241 0.563084 0
517 1 0.135767 0.587534 0
488 1 0.150592 0.569261 0
489 1 0.164254 0.551676 0
490 1 0.169572 0.576065 0
491 1 0.183574 0.558621 0
521 1 0.190202 0.582531 0
492 1 0.203862 0.56415 0
523 1 0.209814 0.589501 0
493 1 0.218593 0.547598 0
494 1 0.223377 0.571264 0
495 1 0.238291 0.552873 0
525 1 0.243094 0.578074 0
496 1 0.257523 0.560466 0
526 1 0.263461 0.584606 0
527 1 0.276893 0.566523 0
528 1 0.283041 0.590619 0
498 1 0.29201 0.549064 0
529 1 0.297105 0.573075 0
500 1 0.311619 0.554617 0
530 1 0.316323 0.579021 0
531 1 0.331436 0.562514 0
532 1 0.337294 0.585492 0
533 1 0.35176 0.568509 0
502 1 0.366556 0.550219 0
534 1 0.371493 0.574516 0
504 1 0.385854 0.556209 0
535 1 0.391035 0.580959 0
508 1 0.404844 0.56232 0
537 1 0.410363 0.587178 0
539 1 0.42436 0.569579 0
540 1 0.43894 0.5517 0
569 1 0.445094 0.575678 0
1441 1 0.459377 0.557485 0
1442 1 0.46424 0.583834 0
1413 1 0.492491 0.547055 0
1443 1 0.484228 0.589827 0
1412 1 0.478672 0.565054 0
1414 1 0.497145 0.572149 0
1439 1 0.0275102 0.59686 0
1438 1 0.00748586 0.602488 0
1469 1 0.00184593 0.627397 0
1440 1 0.0217358 0.621026 0
511 1 0.0468565 0.604131 0
541 1 0.0540502 0.627997 0
512 1 0.0677554 0.610827 0
514 1 0.0816379 0.591741 0
542 1 0.0735592 0.634988 0
543 1 0.0877909 0.616905 0
545 1 0.100947 0.598187 0
546 1 0.107364 0.622666 0
516 1 0.121684 0.604538 0
547 1 0.126805 0.629439 0
518 1 0.141039 0.611967 0
519 1 0.154904 0.594512 0
548 1 0.160447 0.618351 0
520 1 0.175081 0.599482 0
549 1 0.17993 0.62528 0
522 1 0.19438 0.606743 0
551 1 0.199444 0.631422 0
553 1 0.213988 0.6135 0
524 1 0.229492 0.596066 0
554 1 0.234155 0.620351 0
555 1 0.248632 0.602647 0
556 1 0.254174 0.627411 0
557 1 0.268625 0.609675 0
587 1 0.273879 0.633636 0
558 1 0.288148 0.615664 0
559 1 0.30244 0.598264 0
560 1 0.308166 0.622462 0
561 1 0.322599 0.604737 0
563 1 0.357024 0.592874 0
591 1 0.328154 0.628718 0
562 1 0.341784 0.610898 0
564 1 0.347053 0.635116 0
565 1 0.361654 0.617594 0
536 1 0.376022 0.598716 0
566 1 0.381236 0.623478 0
567 1 0.39502 0.605077 0
597 1 0.401417 0.63059 0
568 1 0.415375 0.611155 0
599 1 0.421461 0.636598 0
538 1 0.429727 0.594094 0
600 1 0.435513 0.618808 0
570 1 0.449302 0.600368 0
1501 1 0.455321 0.625389 0
1471 1 0.470003 0.607014 0
1472 1 0.474728 0.632522 0
1473 1 0.489563 0.614402 0
1529 1 0.0112498 0.669631 0
1499 1 0.0165375 0.645492 0
1500 1 0.0311574 0.663004 0
1470 1 0.0353586 0.63852 0
571 1 0.0508109 0.655228 0
572 1 0.064073 0.674141 0
601 1 0.0451631 0.680091 0
544 1 0.0930447 0.640783 0
573 1 0.0791787 0.658278 0
574 1 0.0980188 0.666048 0
575 1 0.112131 0.647688 0
605 1 0.117395 0.672735 0
576 1 0.131892 0.654112 0
607 1 0.137338 0.67854 0
577 1 0.146707 0.637298 0
578 1 0.151396 0.661052 0
579 1 0.166084 0.643695 0
609 1 0.171084 0.667424 0
550 1 0.185704 0.650126 0
580 1 0.191395 0.673996 0
581 1 0.205547 0.655271 0
611 1 0.210786 0.679885 0
552 1 0.219704 0.638023 0
582 1 0.22563 0.661855 0
583 1 0.23916 0.64499 0
584 1 0.245461 0.668734 0
585 1 0.259083 0.651135 0
615 1 0.264537 0.675237 0
586 1 0.279353 0.657865 0
589 1 0.293166 0.639836 0
588 1 0.298982 0.664817 0
590 1 0.313076 0.646406 0
621 1 0.318265 0.67073 0
593 1 0.333139 0.653935 0
592 1 0.337933 0.677205 0
594 1 0.352915 0.659817 0
595 1 0.367513 0.641999 0
625 1 0.372756 0.665639 0
596 1 0.386816 0.648323 0
627 1 0.392284 0.672168 0
598 1 0.407128 0.653887 0
657 1 0.411894 0.677817 0
628 1 0.426686 0.660501 0
629 1 0.440976 0.643094 0
630 1 0.44555 0.668163 0
1502 1 0.460108 0.65057 0
1505 1 0.499916 0.662813 0
1533 1 0.465092 0.674716 0
1474 1 0.494608 0.638551 0
1503 1 0.479874 0.656776 0
1504 1 0.484764 0.68064 0
1558 1 0.00140732 0.719368 0
1559 1 0.00696502 0.69401 0
1530 1 0.025942 0.687103 0
1560 1 0.0216509 0.711575 0
631 1 0.0414471 0.704134 0
602 1 0.0651445 0.699789 0
632 1 0.0554092 0.721961 0
603 1 0.0822457 0.683449 0
633 1 0.0868499 0.708325 0
604 1 0.102912 0.690734 0
635 1 0.106774 0.715747 0
606 1 0.122332 0.697696 0
636 1 0.126585 0.721519 0
637 1 0.142144 0.703964 0
608 1 0.156908 0.686233 0
638 1 0.162006 0.709482 0
639 1 0.176393 0.691511 0
641 1 0.182609 0.716084 0
610 1 0.197476 0.698159 0
642 1 0.202504 0.722367 0
612 1 0.216373 0.704103 0
613 1 0.230759 0.6863 0
643 1 0.236167 0.710778 0
617 1 0.284032 0.682101 0
614 1 0.250502 0.694388 0
645 1 0.255544 0.7187 0
616 1 0.270615 0.699885 0
647 1 0.276105 0.725018 0
618 1 0.290139 0.707744 0
619 1 0.304187 0.689599 0
620 1 0.309908 0.713218 0
622 1 0.324074 0.695322 0
651 1 0.32903 0.719901 0
653 1 0.343963 0.701611 0
654 1 0.349221 0.72533 0
623 1 0.35809 0.683437 0
624 1 0.363874 0.707417 0
626 1 0.377771 0.690116 0
655 1 0.382705 0.713593 0
656 1 0.397466 0.6963 0
686 1 0.403434 0.720941 0
658 1 0.416787 0.702875 0
687 1 0.422682 0.728184 0
659 1 0.431221 0.685831 0
660 1 0.436187 0.71044 0
1531 1 0.450953 0.691773 0
1561 1 0.456316 0.715764 0
1532 1 0.470523 0.699123 0
1563 1 0.475992 0.722699 0
1534 1 0.490406 0.705416 0
1619 1 0.0118076 0.761095 0
1589 1 0.0161866 0.737143 0
1590 1 0.0312357 0.754034 0
661 1 0.0364118 0.729763 0
663 1 0.0513839 0.74657 0
662 1 0.0658359 0.764355 0
664 1 0.0715816 0.739294 0
695 1 0.0865223 0.756753 0
634 1 0.0917476 0.732623 0
665 1 0.112037 0.741305 0
697 1 0.119741 0.765651 0
666 1 0.132093 0.745323 0
668 1 0.13978 0.767163 0
667 1 0.147728 0.727474 0
669 1 0.153896 0.750948 0
640 1 0.167604 0.733984 0
670 1 0.173115 0.759016 0
671 1 0.187195 0.741079 0
672 1 0.193162 0.76536 0
673 1 0.207469 0.747565 0
703 1 0.212483 0.771973 0
644 1 0.221391 0.729439 0
674 1 0.226278 0.753888 0
675 1 0.241031 0.73589 0
705 1 0.24657 0.761683 0
646 1 0.261131 0.743233 0
677 1 0.266282 0.768046 0
648 1 0.280479 0.748776 0
649 1 0.295539 0.732095 0
679 1 0.300098 0.756309 0
650 1 0.315384 0.73842 0
681 1 0.320146 0.762045 0
652 1 0.334435 0.744768 0
682 1 0.339609 0.768792 0
683 1 0.354596 0.749769 0
685 1 0.368626 0.731884 0
684 1 0.374656 0.757104 0
715 1 0.388418 0.739264 0
714 1 0.393372 0.764093 0
717 1 0.40794 0.745296 0
716 1 0.413221 0.770897 0
688 1 0.42807 0.752284 0
689 1 0.442232 0.735023 0
719 1 0.447748 0.759728 0
690 1 0.462028 0.740192 0
1591 1 0.467119 0.765513 0
1565 1 0.496371 0.729598 0
1562 1 0.481742 0.746358 0
1593 1 0.486699 0.771854 0
1620 1 0.0262498 0.778924 0
1649 1 0.0211065 0.803376 0
1618 1 0.00702101 0.786734 0
1648 1 0.00164898 0.810526 0
691 1 0.0458933 0.771019 0
721 1 0.0403433 0.796791 0
693 1 0.0598948 0.788916 0
692 1 0.0545123 0.814495 0
723 1 0.0734705 0.807178 0
694 1 0.0802338 0.78174 0
725 1 0.0926052 0.801294 0
696 1 0.0997045 0.77518 0
727 1 0.111262 0.795694 0
728 1 0.127463 0.812874 0
698 1 0.130557 0.789019 0
699 1 0.158352 0.776023 0
700 1 0.145947 0.805212 0
731 1 0.164562 0.799683 0
701 1 0.17929 0.78231 0
702 1 0.198337 0.791127 0
763 1 0.202445 0.816574 0
732 1 0.183155 0.810034 0
733 1 0.218117 0.796947 0
704 1 0.232307 0.778423 0
706 1 0.237795 0.804303 0
676 1 0.252118 0.785976 0
737 1 0.256999 0.810738 0
707 1 0.271606 0.792094 0
738 1 0.276948 0.816517 0
678 1 0.285526 0.775036 0
708 1 0.291695 0.798855 0
709 1 0.305976 0.780686 0
710 1 0.311444 0.804958 0
680 1 0.325809 0.787332 0
741 1 0.33102 0.812112 0
711 1 0.344579 0.793592 0
713 1 0.35989 0.774588 0
712 1 0.364469 0.799396 0
743 1 0.378782 0.782661 0
745 1 0.385539 0.806994 0
746 1 0.398772 0.789477 0
775 1 0.404993 0.813544 0
747 1 0.418992 0.795102 0
718 1 0.433103 0.778211 0
749 1 0.438282 0.801596 0
720 1 0.45312 0.783428 0
1621 1 0.45788 0.808605 0
1623 1 0.492319 0.796487 0
1592 1 0.473002 0.789538 0
1622 1 0.477992 0.81451 0
1679 1 0.0165918 0.828514 0
1678 1 0.0109013 0.853098 0
1709 1 0.0304331 0.846694 0
1650 1 0.0354346 0.82134 0
1680 1 0.0495117 0.839686 0
752 1 0.064969 0.857092 0
751 1 0.0693242 0.833167 0
753 1 0.0841106 0.850154 0
722 1 0.088478 0.82633 0
724 1 0.103897 0.843356 0
726 1 0.108327 0.819946 0
757 1 0.123907 0.83677 0
756 1 0.138668 0.853969 0
755 1 0.118303 0.86051 0
729 1 0.143047 0.82966 0
759 1 0.15804 0.8469 0
730 1 0.163332 0.823416 0
761 1 0.178758 0.839601 0
760 1 0.172239 0.864313 0
792 1 0.192885 0.857283 0
762 1 0.207988 0.840212 0
735 1 0.222632 0.82173 0
734 1 0.227966 0.846472 0
736 1 0.242315 0.828545 0
765 1 0.247684 0.852957 0
767 1 0.262911 0.834614 0
766 1 0.268427 0.859471 0
768 1 0.282136 0.84142 0
739 1 0.297431 0.822414 0
769 1 0.301315 0.846881 0
740 1 0.316536 0.829971 0
742 1 0.351088 0.817315 0
770 1 0.321722 0.854061 0
771 1 0.336649 0.836913 0
801 1 0.34179 0.861191 0
773 1 0.356185 0.84314 0
744 1 0.36998 0.824153 0
803 1 0.376047 0.848711 0
774 1 0.389664 0.831171 0
776 1 0.395972 0.855663 0
748 1 0.424393 0.819325 0
777 1 0.410336 0.838151 0
778 1 0.415425 0.862321 0
779 1 0.429893 0.844882 0
750 1 0.443771 0.826443 0
780 1 0.449759 0.850971 0
1651 1 0.464082 0.831999 0
1624 1 0.49888 0.82063 0
1652 1 0.468919 0.857205 0
1653 1 0.483576 0.838731 0
1683 1 0.488669 0.863004 0
1710 1 0.025721 0.870577 0
1739 1 0.0201886 0.895799 0
1708 1 0.00651499 0.878653 0
1737 1 0.00121439 0.902653 0
781 1 0.0450967 0.864036 0
811 1 0.0396894 0.889028 0
782 1 0.0586188 0.881848 0
812 1 0.0543999 0.906678 0
813 1 0.0747119 0.899637 0
783 1 0.0790604 0.875487 0
784 1 0.0938524 0.892742 0
754 1 0.0985373 0.868398 0
785 1 0.113669 0.886161 0
786 1 0.127803 0.903933 0
787 1 0.133462 0.879114 0
788 1 0.148209 0.895903 0
758 1 0.15283 0.871215 0
789 1 0.167757 0.888682 0
764 1 0.213207 0.865086 0
791 1 0.187278 0.88154 0
823 1 0.201543 0.898908 0
790 1 0.181575 0.906295 0
793 1 0.22022 0.890285 0
795 1 0.233201 0.870516 0
794 1 0.239413 0.895393 0
796 1 0.254259 0.876374 0
825 1 0.259709 0.900825 0
827 1 0.274085 0.883426 0
826 1 0.279612 0.908698 0
797 1 0.288772 0.865431 0
798 1 0.294271 0.890573 0
799 1 0.307867 0.871594 0
829 1 0.313653 0.896046 0
800 1 0.328067 0.877457 0
831 1 0.333459 0.902832 0
802 1 0.347744 0.8851 0
772 1 0.361969 0.866345 0
804 1 0.367728 0.891358 0
805 1 0.381169 0.87349 0
806 1 0.38713 0.898184 0
807 1 0.400765 0.880918 0
837 1 0.407004 0.905466 0
808 1 0.420869 0.888273 0
809 1 0.435314 0.869604 0
810 1 0.440886 0.894044 0
1681 1 0.454822 0.875176 0
1711 1 0.460635 0.89922 0
1684 1 0.495143 0.887359 0
1682 1 0.474459 0.881275 0
1713 1 0.479906 0.905944 0
1738 1 0.0160428 0.920094 0
1768 1 0.0109736 0.946163 0
1769 1 0.0300947 0.938321 0
1740 1 0.0346996 0.912789 0
841 1 0.0491205 0.930952 0
842 1 0.0641134 0.948028 0
843 1 0.0688119 0.924283 0
844 1 0.0834885 0.941301 0
814 1 0.0885458 0.917619 0
845 1 0.103539 0.935202 0
815 1 0.108171 0.91079 0
816 1 0.122998 0.928636 0
847 1 0.137324 0.945341 0
846 1 0.118618 0.953224 0
817 1 0.14269 0.920323 0
818 1 0.157046 0.938249 0
819 1 0.162044 0.913822 0
820 1 0.176402 0.930242 0
851 1 0.191436 0.947652 0
821 1 0.196831 0.923373 0
822 1 0.211342 0.940795 0
824 1 0.217785 0.915907 0
853 1 0.231477 0.934614 0
855 1 0.24655 0.919148 0
854 1 0.250511 0.944125 0
856 1 0.266123 0.926508 0
885 1 0.270706 0.950829 0
857 1 0.285936 0.932383 0
828 1 0.299867 0.914527 0
859 1 0.305143 0.938704 0
830 1 0.319405 0.921264 0
833 1 0.353482 0.909623 0
860 1 0.324752 0.94603 0
832 1 0.339583 0.927348 0
861 1 0.344459 0.951963 0
863 1 0.358812 0.934288 0
834 1 0.373327 0.915639 0
865 1 0.378879 0.939442 0
835 1 0.393 0.922936 0
839 1 0.426323 0.911381 0
836 1 0.398464 0.946884 0
838 1 0.412467 0.929222 0
867 1 0.417427 0.953205 0
869 1 0.432795 0.935535 0
840 1 0.446795 0.917584 0
1741 1 0.451917 0.941777 0
1712 1 0.465964 0.923596 0
1743 1 0.486104 0.930126 0
1742 1 0.471847 0.948514 0
1714 1 0.500029 0.912223 0
1744 1 0.491494 0.955006 0
1799 1 0.0254818 0.963312 0
1798 1 0.021101 0.987342 0
1797 1 0.00615813 0.970462 0
927 1 0.00147341 0.994745 0
1 1 0.0545854 0.998582 0
1770 1 0.0450338 0.955923 0
1800 1 0.0406363 0.98057 0
871 1 0.0596608 0.972465 0
872 1 0.0739707 0.990595 0
873 1 0.0783598 0.965357 0
874 1 0.0930689 0.983844 0
875 1 0.0987462 0.959536 0
876 1 0.113797 0.977281 0
7 1 0.127543 0.994688 0
877 1 0.133115 0.968997 0
849 1 0.172104 0.954849 0
878 1 0.146343 0.986613 0
848 1 0.152117 0.962196 0
879 1 0.165837 0.980044 0
850 1 0.186577 0.972096 0
11 1 0.200928 0.989841 0
852 1 0.206097 0.965694 0
881 1 0.181442 0.996561 0
883 1 0.226419 0.959228 0
882 1 0.219309 0.983194 0
884 1 0.239635 0.977637 0
886 1 0.25756 0.968371 0
16 1 0.260737 0.994672 0
17 1 0.276093 0.976424 0
887 1 0.291038 0.957174 0
888 1 0.296132 0.981511 0
858 1 0.3108 0.963315 0
889 1 0.315615 0.987518 0
891 1 0.330278 0.970233 0
890 1 0.335818 0.99365 0
862 1 0.349824 0.976291 0
864 1 0.363726 0.958354 0
893 1 0.369766 0.984577 0
895 1 0.38356 0.965095 0
896 1 0.389383 0.989506 0
866 1 0.402873 0.971159 0
897 1 0.408991 0.996088 0
868 1 0.423068 0.978368 0
1771 1 0.456939 0.964839 0
1772 1 0.462562 0.990661 0
899 1 0.442852 0.985212 0
870 1 0.43701 0.960729 0
903 1 0.482151 0.996349 0
1773 1 0.476752 0.97273 0
1774 1 0.49665 0.978787 0
18 1 0.282586 0.999523 0
423 1 0.0793371 0.499838 0
904 1 0.507662 0.0275227 0
906 1 0.522041 0.00965888 0
935 1 0.526815 0.0341612 0
905 1 0.502549 0.0035006 0
908 1 0.541425 0.0161542 0
937 1 0.547106 0.0409976 0
939 1 0.560849 0.0227188 0
941 1 0.575994 0.00470006 0
940 1 0.580982 0.0305034 0
942 1 0.795993 0.0234658 0
944 1 0.811031 0.0407903 0
943 1 0.815182 0.0159658 0
945 1 0.830949 0.0328464 0
914 1 0.834821 0.00854022 0
947 1 0.850545 0.0264993 0
916 1 0.854578 0.00234832 0
918 1 0.869232 0.018922 0
949 1 0.884757 0.0369787 0
948 1 0.865321 0.0439954 0
919 1 0.889591 0.0123345 0
920 1 0.903984 0.0296306 0
1790 1 0.909021 0.00545722 0
951 1 0.923008 0.0230347 0
952 1 0.937543 0.0403957 0
922 1 0.942311 0.0160928 0
953 1 0.956779 0.0352131 0
924 1 0.962418 0.00861008 0
955 1 0.975822 0.0273098 0