ITEM: TIMESTEP
57000
ITEM: NUMBER OF ATOMS
1800
ITEM: BOX BOUNDS pp pp pp
2.8037166896476151e-01 1.6471962833103734e+02
2.2670913126519139e+00 1.6273290868735097e+02
0.0000000000000000e+00 5.5000000000000000e+00
ITEM: ATOMS id type xs ys zs
2 1 0.0136272 0.0121957 0
3 1 0.0389582 0.00691997 0
31 1 0.00812413 0.0368104 0
33 1 0.0318955 0.0306018 0
4 1 0.0564317 0.0235479 0
6 1 0.0804234 0.0176256 0
35 1 0.0722992 0.0423497 0
8 1 0.10426 0.0107965 0
37 1 0.0972542 0.0356403 0
39 1 0.121016 0.0293085 0
880 1 0.128441 0.00376105 0
9 1 0.146286 0.0220533 0
10 1 0.170133 0.015186 0
40 1 0.164083 0.0402986 0
41 1 0.188436 0.0348444 0
12 1 0.194294 0.00986918 0
14 1 0.212251 0.0287276 0
13 1 0.219171 0.00303442 0
15 1 0.235363 0.0217649 0
16 1 0.259635 0.0156078 0
46 1 0.252602 0.0398973 0
47 1 0.27804 0.034736 0
18 1 0.282471 0.010157 0
49 1 0.313585 0.0350874 0
19 1 0.30644 0.0113206 0
20 1 0.330257 0.0172516 0
21 1 0.354749 0.0232697 0
51 1 0.337477 0.0414333 0
1229 1 0.000245629 0.341737 0
23 1 0.378776 0.030132 0
894 1 0.395098 0.0109538 0
24 1 0.403103 0.0360962 0
892 1 0.371434 0.00498706 0
25 1 0.419142 0.0180749 0
27 1 0.444207 0.0233708 0
26 1 0.42793 0.0414959 0
29 1 0.468797 0.0308595 0
900 1 0.48566 0.0121299 0
30 1 0.492563 0.0360157 0
898 1 0.461438 0.00615225 0
32 1 0.0255634 0.0546246 0
62 1 0.0188209 0.0799075 0
63 1 0.0431119 0.0731992 0
61 1 0.000962274 0.060351 0
34 1 0.0492548 0.0482539 0
65 1 0.0658964 0.0672553 0
66 1 0.0843445 0.0844267 0
64 1 0.0611008 0.0919287 0
36 1 0.0906096 0.0603705 0
38 1 0.115687 0.0532664 0
67 1 0.108394 0.0776586 0
68 1 0.133149 0.0710815 0
69 1 0.140059 0.0463222 0
71 1 0.157532 0.0636009 0
72 1 0.176073 0.0820668 0
70 1 0.14942 0.0897333 0
42 1 0.182308 0.058646 0
43 1 0.205564 0.0528397 0
73 1 0.199396 0.0769039 0
44 1 0.222525 0.0710453 0
45 1 0.229251 0.0466635 0
75 1 0.247332 0.0648806 0
76 1 0.26376 0.0833666 0
77 1 0.271731 0.0598655 0
74 1 0.240056 0.0886445 0
48 1 0.295566 0.0532097 0
79 1 0.30427 0.0764796 0
22 1 0.361323 0.04727 0
50 1 0.321136 0.0594385 0
81 1 0.327863 0.082937 0
52 1 0.345871 0.0654551 0
82 1 0.352544 0.0906006 0
53 1 0.386037 0.0542428 0
83 1 0.369764 0.0721335 0
54 1 0.392659 0.0785722 0
28 1 0.451365 0.0475438 0
55 1 0.409897 0.0594043 0
57 1 0.434052 0.0659493 0
56 1 0.417979 0.0836944 0
59 1 0.475683 0.0540602 0
58 1 0.458353 0.0719433 0
89 1 0.483099 0.0785592 0
92 1 0.031381 0.121913 0
93 1 0.0364712 0.0976597 0
91 1 0.0125351 0.104814 0
121 1 0.00702875 0.129382 0
94 1 0.0541002 0.115468 0
95 1 0.0777941 0.109577 0
125 1 0.0712958 0.134034 0
96 1 0.0962621 0.126613 0
97 1 0.101615 0.10204 0
98 1 0.120652 0.119597 0
99 1 0.12587 0.094969 0
100 1 0.143714 0.11356 0
101 1 0.167446 0.107127 0
130 1 0.161855 0.1311 0
103 1 0.191311 0.101264 0
102 1 0.186331 0.12551 0
105 1 0.216208 0.0956158 0
104 1 0.210764 0.119136 0
106 1 0.234513 0.113096 0
137 1 0.252978 0.129401 0
107 1 0.270158 0.11102 0
78 1 0.287174 0.0937091 0
109 1 0.293767 0.119297 0
80 1 0.311694 0.100524 0
110 1 0.318618 0.125203 0
108 1 0.276906 0.136476 0
111 1 0.3348 0.10706 0
141 1 0.342028 0.132137 0
113 1 0.358929 0.114553 0
84 1 0.376202 0.0960527 0
112 1 0.383927 0.120518 0
85 1 0.400808 0.101334 0
115 1 0.407404 0.126428 0
87 1 0.441562 0.0898803 0
86 1 0.424183 0.108224 0
116 1 0.43155 0.132642 0
117 1 0.448583 0.113985 0
120 1 0.496469 0.126822 0
88 1 0.465372 0.0955699 0
119 1 0.472895 0.120554 0
90 1 0.489597 0.10192 0
122 1 0.0241675 0.147478 0
152 1 0.01714 0.172193 0
153 1 0.0415929 0.165523 0
123 1 0.0473968 0.140403 0
124 1 0.0653029 0.158696 0
155 1 0.0831413 0.176262 0
126 1 0.0893073 0.151212 0
127 1 0.113218 0.144221 0
128 1 0.130134 0.160252 0
157 1 0.107002 0.16875 0
129 1 0.138493 0.137257 0
159 1 0.155461 0.160428 0
131 1 0.17843 0.149662 0
132 1 0.179958 0.173519 0
133 1 0.202725 0.143981 0
134 1 0.21963 0.163532 0
135 1 0.227304 0.138262 0
136 1 0.259827 0.153689 0
165 1 0.242446 0.170469 0
167 1 0.267269 0.178561 0
139 1 0.30079 0.143348 0
138 1 0.283793 0.160605 0
169 1 0.307605 0.16693 0
140 1 0.324986 0.150387 0
142 1 0.348459 0.156828 0
171 1 0.331292 0.174705 0
172 1 0.355988 0.181791 0
143 1 0.36575 0.138293 0
114 1 0.390544 0.144255 0
144 1 0.396504 0.168883 0
173 1 0.372705 0.16284 0
145 1 0.413866 0.15074 0
146 1 0.42115 0.175946 0
147 1 0.439019 0.156951 0
118 1 0.45649 0.138057 0
149 1 0.479913 0.14533 0
148 1 0.462806 0.163279 0
150 1 0.486966 0.169405 0
183 1 0.0351424 0.190268 0
182 1 0.0375375 0.214883 0
181 1 0.0129784 0.206102 0
154 1 0.0596742 0.18433 0
184 1 0.0610696 0.223856 0
185 1 0.0787854 0.204732 0
186 1 0.103959 0.215873 0
156 1 0.100095 0.192872 0
158 1 0.123165 0.199319 0
187 1 0.127405 0.224573 0
160 1 0.14051 0.181957 0
161 1 0.163664 0.191959 0
189 1 0.146259 0.208164 0
191 1 0.168869 0.215684 0
163 1 0.203148 0.1813 0
162 1 0.186486 0.198836 0
193 1 0.209258 0.205604 0
192 1 0.192344 0.223514 0
164 1 0.227705 0.189219 0
195 1 0.232497 0.213652 0
166 1 0.250402 0.196681 0
196 1 0.255952 0.22092 0
168 1 0.291621 0.184407 0
197 1 0.27315 0.202839 0
199 1 0.297295 0.210491 0
170 1 0.314766 0.192278 0
201 1 0.339205 0.199399 0
200 1 0.321469 0.215768 0
202 1 0.344894 0.222896 0
203 1 0.362796 0.205334 0
174 1 0.379778 0.187488 0
204 1 0.38673 0.211946 0
175 1 0.404607 0.193441 0
177 1 0.445755 0.181578 0
205 1 0.410176 0.217668 0
176 1 0.427964 0.200215 0
207 1 0.433815 0.225063 0
178 1 0.451886 0.20624 0
179 1 0.469765 0.18743 0
209 1 0.474935 0.2127 0
180 1 0.493524 0.195316 0
420 1 0.473873 0.46455 0
212 1 0.0244136 0.256842 0
211 1 0.0193106 0.23146 0
1140 1 0.00158966 0.250426 0
213 1 0.0418327 0.239458 0
243 1 0.0478492 0.265543 0
215 1 0.0843392 0.232819 0
214 1 0.065858 0.248751 0
216 1 0.0908457 0.257206 0
217 1 0.108578 0.24091 0
218 1 0.114021 0.265349 0
188 1 0.132209 0.249498 0
190 1 0.150645 0.232559 0
221 1 0.174348 0.240658 0
220 1 0.155691 0.256616 0
222 1 0.17974 0.265524 0
219 1 0.137617 0.27382 0
194 1 0.214543 0.231586 0
223 1 0.197092 0.248952 0
224 1 0.220924 0.255821 0
253 1 0.203189 0.272545 0
225 1 0.238244 0.238742 0
227 1 0.261991 0.245062 0
226 1 0.245254 0.26269 0
257 1 0.269233 0.27018 0
198 1 0.279353 0.227515 0
229 1 0.304369 0.234122 0
228 1 0.286094 0.251162 0
230 1 0.310211 0.259703 0
231 1 0.327377 0.241722 0
232 1 0.351001 0.247539 0
261 1 0.334596 0.265694 0
263 1 0.35827 0.272035 0
233 1 0.369082 0.229579 0
235 1 0.392916 0.23626 0
234 1 0.375657 0.253987 0
265 1 0.399676 0.259996 0
206 1 0.416322 0.242426 0
237 1 0.440596 0.249289 0
236 1 0.422653 0.26734 0
208 1 0.457633 0.230257 0
210 1 0.481432 0.237205 0
239 1 0.464099 0.255057 0
240 1 0.488431 0.262112 0
241 1 0.00677536 0.275318 0
242 1 0.0309552 0.28356 0
271 1 0.0128997 0.300722 0
273 1 0.0364763 0.307306 0
245 1 0.0723075 0.273322 0
244 1 0.054652 0.290523 0
246 1 0.0776393 0.298703 0
275 1 0.0603031 0.315523 0
247 1 0.0958316 0.282662 0
249 1 0.119914 0.290417 0
248 1 0.101731 0.306141 0
279 1 0.126433 0.314844 0
251 1 0.161871 0.281346 0
250 1 0.144137 0.297936 0
281 1 0.168014 0.305635 0
252 1 0.186136 0.28965 0
254 1 0.210229 0.296701 0
283 1 0.191232 0.314056 0
255 1 0.227339 0.279888 0
256 1 0.251408 0.286963 0
285 1 0.233835 0.304305 0
287 1 0.257219 0.311911 0
259 1 0.292487 0.276398 0
258 1 0.274471 0.294389 0
289 1 0.299048 0.300751 0
260 1 0.316289 0.283875 0
262 1 0.340267 0.28974 0
291 1 0.322172 0.307806 0
292 1 0.346522 0.314568 0
293 1 0.363297 0.297259 0
264 1 0.382457 0.278263 0
295 1 0.387164 0.30349 0
266 1 0.405548 0.285127 0
238 1 0.447062 0.273337 0
267 1 0.430255 0.292431 0
297 1 0.411211 0.309809 0
298 1 0.435425 0.316309 0
268 1 0.452675 0.29826 0
269 1 0.470489 0.280943 0
270 1 0.477218 0.305396 0
1141 1 0.495286 0.287595 0
1200 1 0.0177106 0.325068 0
272 1 0.0417271 0.332099 0
301 1 0.023869 0.349329 0
450 1 0.497391 0.471068 0
303 1 0.0472639 0.356263 0
276 1 0.0842701 0.323708 0
274 1 0.0656222 0.339489 0
305 1 0.0890049 0.347674 0
277 1 0.108181 0.331818 0
307 1 0.113651 0.357586 0
278 1 0.131012 0.340002 0
280 1 0.150788 0.322687 0
282 1 0.17379 0.331903 0
311 1 0.155987 0.347879 0
312 1 0.179976 0.356427 0
284 1 0.215252 0.320939 0
313 1 0.197954 0.338058 0
315 1 0.221619 0.345466 0
286 1 0.239815 0.328609 0
317 1 0.264091 0.335981 0
316 1 0.246266 0.353311 0
318 1 0.269235 0.361111 0
288 1 0.281245 0.318474 0
290 1 0.304893 0.325609 0
319 1 0.287112 0.343231 0
320 1 0.310559 0.34997 0
321 1 0.329177 0.33282 0
323 1 0.35284 0.340001 0
322 1 0.334531 0.356969 0
294 1 0.370609 0.321717 0
296 1 0.394318 0.32816 0
325 1 0.376158 0.346453 0
326 1 0.400954 0.353175 0
327 1 0.417728 0.334771 0
328 1 0.424974 0.359573 0
329 1 0.441852 0.340622 0
299 1 0.458748 0.322692 0
359 1 0.465949 0.347387 0
330 1 0.483737 0.329724 0
360 1 0.489726 0.353622 0
1230 1 0.00558681 0.366368 0
302 1 0.0304164 0.374312 0
332 1 0.0357814 0.399197 0
331 1 0.0120033 0.391218 0
304 1 0.0714214 0.364917 0
333 1 0.053803 0.382384 0
335 1 0.0772207 0.390183 0
334 1 0.0596085 0.407424 0
306 1 0.0944485 0.373138 0
308 1 0.118322 0.381874 0
337 1 0.101416 0.398763 0
338 1 0.125303 0.406702 0
309 1 0.137617 0.364912 0
310 1 0.162136 0.372122 0
339 1 0.142614 0.389751 0
341 1 0.167261 0.397607 0
314 1 0.204002 0.36257 0
343 1 0.18639 0.380685 0
342 1 0.19162 0.405218 0
344 1 0.209187 0.386745 0
345 1 0.22795 0.370335 0
347 1 0.252319 0.378532 0
346 1 0.23459 0.395365 0
377 1 0.25848 0.403197 0
349 1 0.293618 0.368242 0
348 1 0.275951 0.385656 0
350 1 0.299557 0.393569 0
351 1 0.317094 0.375164 0
324 1 0.35903 0.363917 0
381 1 0.322256 0.400086 0
353 1 0.342077 0.382998 0
352 1 0.34696 0.407178 0
355 1 0.382439 0.371038 0
354 1 0.365272 0.389379 0
356 1 0.389434 0.395232 0
357 1 0.407026 0.377013 0
387 1 0.429772 0.384793 0
358 1 0.449139 0.365826 0
386 1 0.412663 0.403322 0
388 1 0.436806 0.409389 0
389 1 0.454694 0.39016 0
1232 1 0.472515 0.37211 0
1262 1 0.495722 0.378576 0
1261 1 0.478132 0.396532 0
361 1 0.0173818 0.41637 0
362 1 0.0233741 0.440664 0
363 1 0.0412737 0.424234 0
336 1 0.0832787 0.415464 0
364 1 0.0472411 0.449424 0
365 1 0.0653953 0.433322 0
366 1 0.0889083 0.439887 0
367 1 0.107478 0.423738 0
368 1 0.114114 0.447861 0
369 1 0.131924 0.432106 0
340 1 0.149591 0.414386 0
371 1 0.173484 0.422961 0
370 1 0.155871 0.439214 0
401 1 0.179026 0.447607 0
373 1 0.215791 0.411803 0
372 1 0.197404 0.430012 0
374 1 0.221421 0.437441 0
403 1 0.203443 0.453818 0
375 1 0.239889 0.421395 0
376 1 0.263824 0.428403 0
405 1 0.246473 0.446254 0
407 1 0.269537 0.454004 0
378 1 0.28186 0.411232 0
379 1 0.304653 0.418381 0
409 1 0.287583 0.435598 0
380 1 0.311578 0.442796 0
382 1 0.329943 0.424882 0
413 1 0.335362 0.449953 0
383 1 0.35216 0.432654 0
385 1 0.372077 0.413004 0
414 1 0.375609 0.438226 0
384 1 0.394827 0.421172 0
415 1 0.401351 0.444981 0
417 1 0.419711 0.427109 0
418 1 0.443013 0.432798 0
416 1 0.424716 0.451554 0
419 1 0.460928 0.414357 0
390 1 0.46709 0.440091 0
1291 1 0.483653 0.421533 0
1321 1 0.491056 0.447465 0
392 1 0.00608944 0.45738 0
393 1 0.02949 0.465636 0
422 1 0.0115016 0.482606 0
423 1 0.0346468 0.489914 0
395 1 0.0708849 0.457777 0
394 1 0.0532157 0.474738 0
396 1 0.0769031 0.481856 0
425 1 0.0583862 0.499252 0
397 1 0.0951482 0.464668 0
398 1 0.118241 0.472802 0
427 1 0.100267 0.490389 0
428 1 0.124248 0.49703 0
399 1 0.136768 0.45579 0
400 1 0.160317 0.464108 0
429 1 0.141892 0.481045 0
431 1 0.166762 0.488271 0
402 1 0.184987 0.471166 0
432 1 0.191027 0.496314 0
433 1 0.209947 0.478216 0
404 1 0.228431 0.461797 0
406 1 0.251762 0.470987 0
435 1 0.233591 0.487793 0
436 1 0.258202 0.496075 0
410 1 0.293996 0.461454 0
408 1 0.275535 0.478647 0
441 1 0.300558 0.485091 0
411 1 0.318365 0.467204 0
412 1 0.359516 0.456748 0
442 1 0.341648 0.47463 0
440 1 0.324205 0.493163 0
448 1 0.455489 0.482113 0
473 1 0.365695 0.481581 0
443 1 0.384026 0.462714 0
444 1 0.39005 0.488467 0
445 1 0.407927 0.469921 0
475 1 0.413985 0.494875 0
447 1 0.44852 0.45708 0
446 1 0.431895 0.47615 0
449 1 0.479735 0.488992 0
391 1 -0.00111595 0.433064 0
471 1 0.348984 0.499286 0
454 1 0.0223111 0.532759 0
453 1 0.0172899 0.507695 0
424 1 0.040531 0.515513 0
485 1 0.0455652 0.540509 0
455 1 0.0637719 0.523796 0
426 1 0.0827433 0.506094 0
456 1 0.0880818 0.531712 0
457 1 0.105936 0.514508 0
458 1 0.112597 0.539129 0
459 1 0.130203 0.522054 0
460 1 0.153726 0.529209 0
461 1 0.172568 0.512572 0
430 1 0.148167 0.505195 0
462 1 0.177974 0.537345 0
434 1 0.215611 0.504356 0
463 1 0.196865 0.521037 0
464 1 0.221521 0.529139 0
466 1 0.246396 0.5377 0
465 1 0.240484 0.513506 0
437 1 0.264415 0.5203 0
497 1 0.269924 0.545483 0
467 1 0.288257 0.527854 0
438 1 0.306452 0.511169 0
468 1 0.311733 0.536399 0
439 1 0.282992 0.503321 0
469 1 0.329867 0.517176 0
470 1 0.35397 0.524953 0
499 1 0.335669 0.542571 0
472 1 0.372176 0.507071 0
503 1 0.378488 0.531625 0
474 1 0.396337 0.512306 0
505 1 0.402873 0.537083 0
476 1 0.419433 0.519288 0
477 1 0.43787 0.500509 0
507 1 0.444859 0.525307 0
506 1 0.427014 0.544453 0
478 1 0.461658 0.507208 0
480 1 0.468905 0.530817 0
479 1 0.486996 0.513028 0
510 1 0.493137 0.538742 0
483 1 0.00291314 0.549142 0
513 1 0.0279084 0.557451 0
514 1 0.0336425 0.58179 0
482 1 0.0100061 0.574581 0
486 1 0.0694641 0.548182 0
484 1 0.0511326 0.565694 0
515 1 0.0757724 0.574232 0
545 1 0.0571644 0.589858 0
487 1 0.0931407 0.556498 0
488 1 0.11683 0.564025 0
517 1 0.0990247 0.581229 0
519 1 0.122695 0.58857 0
489 1 0.136026 0.545969 0
491 1 0.160192 0.555097 0
490 1 0.141365 0.570724 0
521 1 0.165693 0.579081 0
493 1 0.202672 0.546418 0
492 1 0.183578 0.563328 0
523 1 0.189927 0.587405 0
494 1 0.209408 0.570778 0
495 1 0.227655 0.555109 0
496 1 0.251711 0.562449 0
525 1 0.233651 0.580089 0
526 1 0.257937 0.589458 0
527 1 0.275198 0.570129 0
498 1 0.293645 0.553543 0
529 1 0.300157 0.578755 0
500 1 0.318465 0.561187 0
501 1 0.360839 0.549048 0
531 1 0.342215 0.566439 0
530 1 0.324738 0.585202 0
533 1 0.367051 0.573842 0
502 1 0.384133 0.555763 0
534 1 0.393473 0.580354 0
504 1 0.408976 0.561135 0
508 1 0.433859 0.568131 0
509 1 0.451603 0.550074 0
535 1 0.417111 0.585959 0
539 1 0.459546 0.574634 0
540 1 0.476423 0.556668 0
569 1 0.482973 0.58107 0
5 1 0.0620327 0.999402 0
512 1 0.0143746 0.598321 0
542 1 0.0204565 0.622501 0
543 1 0.0383701 0.606417 0
544 1 0.0445096 0.630845 0
516 1 0.080894 0.598723 0
546 1 0.0629968 0.614968 0
547 1 0.0868992 0.623687 0
518 1 0.104082 0.606286 0
548 1 0.126717 0.613396 0
577 1 0.110148 0.631613 0
520 1 0.146601 0.595147 0
522 1 0.170132 0.603333 0
549 1 0.150855 0.617797 0
551 1 0.175201 0.626852 0
524 1 0.214236 0.594853 0
553 1 0.193995 0.611944 0
554 1 0.218388 0.620964 0
555 1 0.238354 0.605352 0
556 1 0.242662 0.630649 0
557 1 0.261501 0.61436 0
528 1 0.281871 0.596747 0
559 1 0.306549 0.6046 0
558 1 0.287882 0.624345 0
560 1 0.31427 0.628242 0
561 1 0.331326 0.609585 0
532 1 0.348896 0.590958 0
562 1 0.357315 0.615557 0
591 1 0.341005 0.634039 0
563 1 0.375897 0.597377 0
565 1 0.382744 0.622449 0
536 1 0.399598 0.60464 0
566 1 0.407083 0.628818 0
537 1 0.441659 0.593028 0
567 1 0.423984 0.610522 0
568 1 0.447413 0.617338 0
597 1 0.430876 0.635511 0
538 1 0.465493 0.599836 0
570 1 0.489768 0.604587 0
600 1 0.472431 0.623208 0
1501 1 0.496915 0.629388 0
571 1 0.0004627 0.639478 0
573 1 0.0250003 0.64705 0
603 1 0.0290922 0.672438 0
572 1 0.00717048 0.66357 0
574 1 0.0489204 0.655982 0
575 1 0.0681864 0.640053 0
605 1 0.0726813 0.663852 0
604 1 0.0518128 0.680926 0
576 1 0.0923942 0.649295 0
607 1 0.0942022 0.676431 0
578 1 0.114119 0.660672 0
579 1 0.132181 0.638929 0
609 1 0.135729 0.675721 0
550 1 0.155754 0.643685 0
581 1 0.178153 0.651097 0
580 1 0.158374 0.666337 0
611 1 0.180175 0.677699 0
552 1 0.198577 0.636408 0
583 1 0.221334 0.646121 0
582 1 0.200008 0.661388 0
584 1 0.223163 0.671824 0
587 1 0.265341 0.641245 0
585 1 0.243336 0.656979 0
586 1 0.264919 0.668312 0
589 1 0.287183 0.650946 0
590 1 0.305864 0.666981 0
593 1 0.348254 0.659378 0
621 1 0.324754 0.650953 0
622 1 0.330656 0.676889 0
564 1 0.36564 0.640752 0
594 1 0.373716 0.666847 0
595 1 0.390544 0.648075 0
625 1 0.397098 0.67286 0
596 1 0.414046 0.654714 0
598 1 0.438093 0.660603 0
627 1 0.421737 0.678967 0
599 1 0.454953 0.641635 0
629 1 0.480318 0.64795 0
628 1 0.463449 0.665647 0
630 1 0.487587 0.673461 0
632 1 0.00341221 0.716968 0
633 1 0.029257 0.696694 0
634 1 0.0280499 0.721699 0
602 1 0.00604312 0.690415 0
635 1 0.0528595 0.705025 0
606 1 0.074042 0.689969 0
636 1 0.0743437 0.716066 0
637 1 0.0952982 0.702033 0
608 1 0.115381 0.68962 0
638 1 0.116921 0.71604 0
639 1 0.136457 0.702596 0
610 1 0.15897 0.691999 0
641 1 0.159469 0.716311 0
612 1 0.181154 0.702329 0
642 1 0.181677 0.726958 0
613 1 0.202431 0.687555 0
614 1 0.22428 0.698347 0
643 1 0.202762 0.712813 0
645 1 0.22455 0.723231 0
615 1 0.244304 0.68316 0
617 1 0.265586 0.694263 0
616 1 0.24549 0.70916 0
647 1 0.267337 0.72116 0
588 1 0.286863 0.68124 0
619 1 0.309958 0.691957 0
618 1 0.287238 0.705744 0
620 1 0.308784 0.717534 0
592 1 0.354556 0.68508 0
653 1 0.334817 0.701852 0
651 1 0.330056 0.72675 0
624 1 0.362108 0.709654 0
623 1 0.379436 0.691318 0
626 1 0.405541 0.697603 0
655 1 0.388593 0.716685 0
657 1 0.446744 0.684807 0
656 1 0.429908 0.703586 0
686 1 0.414325 0.722935 0
658 1 0.454968 0.709962 0
659 1 0.470716 0.691316 0
660 1 0.479086 0.715811 0
1531 1 0.495145 0.697453 0
662 1 0.0122902 0.762534 0
664 1 0.0313027 0.746029 0
665 1 0.0524536 0.729692 0
666 1 0.0743779 0.74116 0
695 1 0.0548634 0.753511 0
697 1 0.0765057 0.767378 0
667 1 0.0947776 0.728975 0
668 1 0.0968127 0.754958 0
669 1 0.11761 0.741773 0
699 1 0.118129 0.767402 0
640 1 0.138108 0.728838 0
670 1 0.138751 0.75402 0
671 1 0.159966 0.741466 0
672 1 0.160488 0.767058 0
673 1 0.182097 0.753037 0
644 1 0.202542 0.73818 0
674 1 0.204103 0.763508 0
675 1 0.224934 0.748466 0
646 1 0.246488 0.73472 0
677 1 0.247615 0.759948 0
648 1 0.269473 0.746473 0
678 1 0.270609 0.772242 0
649 1 0.289622 0.732001 0
650 1 0.311143 0.743596 0
679 1 0.291366 0.756954 0
681 1 0.316296 0.76889 0
652 1 0.335117 0.751858 0
683 1 0.359752 0.757246 0
654 1 0.352938 0.732904 0
685 1 0.376264 0.738643 0
715 1 0.399427 0.741876 0
684 1 0.38366 0.762065 0
714 1 0.407274 0.766592 0
687 1 0.438823 0.728798 0
717 1 0.423759 0.74712 0
688 1 0.447519 0.753298 0
689 1 0.463363 0.73458 0
690 1 0.487336 0.740274 0
719 1 0.470834 0.759335 0
1591 1 0.49535 0.764366 0
694 1 0.0303935 0.780621 0
693 1 0.00613903 0.787605 0
723 1 0.0237155 0.805516 0
899 1 0.478239 0.987 0
725 1 0.0472778 0.799905 0
696 1 0.0542899 0.77749 0
727 1 0.0733709 0.79211 0
726 1 0.0667418 0.81614 0
728 1 0.0946376 0.807295 0
698 1 0.097076 0.781275 0
700 1 0.117957 0.794335 0
701 1 0.140414 0.781007 0
731 1 0.140395 0.80654 0
702 1 0.16258 0.792164 0
732 1 0.163177 0.816537 0
703 1 0.18327 0.777352 0
705 1 0.226461 0.773393 0
733 1 0.185194 0.801646 0
704 1 0.205158 0.78781 0
735 1 0.20709 0.81392 0
706 1 0.227201 0.799241 0
676 1 0.247789 0.785154 0
737 1 0.249069 0.810942 0
707 1 0.26893 0.796456 0
709 1 0.293906 0.781722 0
708 1 0.29068 0.80681 0
710 1 0.31154 0.814889 0
680 1 0.324581 0.792614 0
682 1 0.3429 0.775587 0
711 1 0.350644 0.79916 0
713 1 0.36804 0.781069 0
712 1 0.375702 0.804838 0
743 1 0.392418 0.786255 0
745 1 0.399244 0.810881 0
716 1 0.431022 0.773091 0
747 1 0.440311 0.798652 0
746 1 0.417028 0.793491 0
775 1 0.423983 0.817013 0
718 1 0.455107 0.778631 0
720 1 0.478779 0.783932 0
749 1 0.463485 0.804101 0
1621 1 0.487736 0.808639 0
751 1 0.017194 0.829396 0
752 1 0.0108548 0.853972 0
753 1 0.0355349 0.847512 0
722 1 0.0410676 0.823258 0
724 1 0.0595304 0.841326 0
755 1 0.0765152 0.857993 0
757 1 0.084978 0.832767 0
729 1 0.118096 0.820049 0
756 1 0.0996859 0.851717 0
759 1 0.123003 0.844089 0
730 1 0.143495 0.832048 0
761 1 0.163999 0.843943 0
760 1 0.142528 0.860649 0
763 1 0.185394 0.827121 0
762 1 0.186682 0.851452 0
734 1 0.208332 0.839906 0
736 1 0.229144 0.825942 0
765 1 0.231032 0.851136 0
738 1 0.271736 0.822603 0
767 1 0.251362 0.835685 0
766 1 0.254037 0.859453 0
768 1 0.275125 0.848368 0
739 1 0.294284 0.831816 0
769 1 0.299513 0.856538 0
740 1 0.318152 0.838298 0
741 1 0.336288 0.818836 0
742 1 0.359503 0.823803 0
771 1 0.342837 0.843107 0
770 1 0.326467 0.861704 0
773 1 0.366962 0.848302 0
744 1 0.384304 0.829533 0
803 1 0.391287 0.853978 0
774 1 0.408221 0.835513 0
748 1 0.44743 0.823466 0
777 1 0.431599 0.8424 0
776 1 0.415027 0.860576 0
779 1 0.455232 0.847105 0
1651 1 0.495781 0.834341 0
750 1 0.471963 0.82794 0
780 1 0.479278 0.852198 0
783 1 0.0284497 0.871584 0
782 1 0.00468544 0.878102 0
813 1 0.0221776 0.896377 0
784 1 0.0460084 0.890241 0
754 1 0.0525681 0.865602 0
785 1 0.070829 0.883067 0
786 1 0.0880653 0.901724 0
815 1 0.0641265 0.90815 0
758 1 0.118585 0.868699 0
787 1 0.0945343 0.876145 0
788 1 0.112854 0.893637 0
789 1 0.136327 0.885667 0
791 1 0.160687 0.880237 0
823 1 0.17867 0.900227 0
790 1 0.154167 0.904801 0
764 1 0.209239 0.866322 0
792 1 0.185682 0.875392 0
793 1 0.203349 0.892369 0
795 1 0.227125 0.885887 0
796 1 0.252105 0.884038 0
827 1 0.269627 0.899855 0
825 1 0.24516 0.907736 0
797 1 0.274976 0.8747 0
799 1 0.308198 0.878828 0
798 1 0.292674 0.89649 0
829 1 0.316026 0.902843 0
800 1 0.33386 0.885568 0
801 1 0.350728 0.866764 0
802 1 0.358108 0.891535 0
772 1 0.374614 0.872387 0
805 1 0.398935 0.878463 0
804 1 0.382606 0.897284 0
806 1 0.406012 0.903371 0
778 1 0.439013 0.865974 0
807 1 0.422701 0.884295 0
808 1 0.447279 0.890838 0
837 1 0.430104 0.907576 0
809 1 0.464322 0.871502 0
1681 1 0.48787 0.876583 0
810 1 0.47125 0.895384 0
1711 1 0.495142 0.901245 0
842 1 0.0101427 0.945021 0
843 1 0.0165227 0.921262 0
844 1 0.0338876 0.939604 0
814 1 0.0399974 0.914432 0
816 1 0.0818668 0.925848 0
845 1 0.058773 0.931973 0
846 1 0.0750028 0.95046 0
819 1 0.130844 0.911394 0
817 1 0.106681 0.918874 0
818 1 0.124491 0.936355 0
847 1 0.0998723 0.943155 0
821 1 0.172214 0.92287 0
820 1 0.148441 0.929912 0
851 1 0.165833 0.947629 0
794 1 0.22126 0.912268 0
824 1 0.196321 0.917819 0
822 1 0.189643 0.942687 0
853 1 0.214563 0.936758 0
855 1 0.239467 0.931213 0
826 1 0.263435 0.924509 0
856 1 0.257028 0.948599 0
828 1 0.297817 0.920761 0
857 1 0.282048 0.941214 0
859 1 0.306109 0.946154 0
831 1 0.341651 0.909089 0
830 1 0.323656 0.928952 0
832 1 0.347353 0.934124 0
860 1 0.33009 0.952756 0
833 1 0.365884 0.915909 0
863 1 0.371781 0.940495 0
834 1 0.389695 0.921545 0
865 1 0.39807 0.945008 0
835 1 0.414503 0.926343 0
838 1 0.437993 0.933546 0
836 1 0.422416 0.950662 0
839 1 0.454433 0.914649 0
1741 1 0.486312 0.944961 0
840 1 0.478369 0.920119 0
869 1 0.462444 0.938211 0
872 1 0.0203723 0.98802 0
873 1 0.0269876 0.963648 0
871 1 0.00257653 0.969832 0
874 1 0.0445895 0.981708 0
875 1 0.0512432 0.957412 0
876 1 0.0685831 0.974782 0
7 1 0.0869102 0.993 0
1771 1 0.495008 0.969367 0
877 1 0.0926838 0.967842 0
848 1 0.117453 0.961395 0
878 1 0.110082 0.986309 0
879 1 0.135503 0.979121 0
849 1 0.141968 0.955136 0
850 1 0.159561 0.972854 0
11 1 0.176822 0.990255 0
881 1 0.152952 0.997378 0
852 1 0.18292 0.96672 0
882 1 0.200969 0.984889 0
883 1 0.208478 0.961298 0
884 1 0.225754 0.978674 0
886 1 0.242954 0.996588 0
854 1 0.233082 0.955564 0
885 1 0.250717 0.972504 0
17 1 0.267872 0.990059 0
887 1 0.276323 0.966474 0
858 1 0.31304 0.970632 0
888 1 0.292887 0.987544 0
861 1 0.35552 0.958194 0
889 1 0.322203 0.993489 0
891 1 0.338797 0.975344 0
862 1 0.364087 0.981532 0
864 1 0.380267 0.963063 0
893 1 0.387748 0.986949 0
895 1 0.405281 0.970074 0
896 1 0.41217 0.993617 0
867 1 0.44622 0.957102 0
868 1 0.453472 0.980868 0
866 1 0.429058 0.97523 0
870 1 0.47083 0.96309 0
897 1 0.436676 0.999322 0
1441 1 0.500497 0.562949 0
890 1 0.346324 0.99917 0
902 1 0.53359 0.0233686 0
931 1 0.516476 0.0412452 0
901 1 0.509709 0.0173412 0
904 1 0.558942 0.0292946 0
906 1 0.575851 0.0102354 0
935 1 0.583904 0.0340947 0
905 1 0.551663 0.0045533 0
908 1 0.600537 0.0152682 0
937 1 0.608081 0.0397963 0
939 1 0.624515 0.0207639 0
940 1 0.648538 0.0269425 0
971 1 0.672423 0.0341929 0
942 1 0.667301 0.00952819 0
941 1 0.641255 0.00291772 0
944 1 0.696556 0.0305101 0
945 1 0.72084 0.0233676 0
943 1 0.70133 0.00691854 0
947 1 0.745166 0.0170046 0
948 1 0.761974 0.0343071 0
918 1 0.768811 0.0103974 0
946 1 0.737375 0.0421954 0
919 1 0.792398 0.00400568 0
949 1 0.786587 0.0284416 0
920 1 0.810336 0.0217409 0
979 1 0.804871 0.045675 0
951 1 0.834193 0.0148058 0
952 1 0.852866 0.0328551 0
922 1 0.859036 0.00867746 0
950 1 0.828646 0.0391876 0
953 1 0.876762 0.0270004 0
955 1 0.900685 0.0194548 0
924 1 0.883254 0.00202149 0
954 1 0.895299 0.0440234 0
926 1 0.923952 0.0129806 0
928 1 0.948176 0.00764082 0
957 1 0.941405 0.0318224 0
956 1 0.918683 0.0375451 0
930 1 0.990423 0.0191261 0
959 1 0.966586 0.0255832 0
960 1 0.983768 0.0429163 0
60 1 0.499961 0.0602537 0
933 1 0.541327 0.047952 0
932 1 0.524818 0.0653599 0
962 1 0.532319 0.0901833 0
961 1 0.507333 0.0841215 0
934 1 0.566325 0.0531502 0
963 1 0.549756 0.072456 0
965 1 0.57402 0.0774945 0
936 1 0.590645 0.0583539 0
938 1 0.632469 0.046378 0
966 1 0.59757 0.0836952 0
967 1 0.614249 0.064648 0
968 1 0.620662 0.0905078 0
969 1 0.637708 0.072434 0
970 1 0.655843 0.0532589 0
999 1 0.660569 0.0788041 0
975 1 0.714266 0.0482024 0
972 1 0.684152 0.0809044 0
973 1 0.689285 0.0560411 0
1003 1 0.707582 0.0732471 0
1004 1 0.725389 0.0903844 0
974 1 0.732783 0.0660637 0
976 1 0.756158 0.0589097 0
1005 1 0.75036 0.0835526 0
1007 1 0.774831 0.0768428 0
977 1 0.780535 0.0523217 0
978 1 0.799383 0.0706942 0
1009 1 0.816385 0.0881295 0
980 1 0.823138 0.0637789 0
981 1 0.846563 0.0576173 0
1011 1 0.840493 0.0828895 0
982 1 0.862966 0.0748633 0
983 1 0.870694 0.0509035 0
984 1 0.887798 0.068836 0
1015 1 0.905983 0.0868897 0
985 1 0.912016 0.0627479 0
986 1 0.930359 0.080673 0
987 1 0.936587 0.0559855 0
988 1 0.954151 0.0738745 0
958 1 0.959666 0.0495379 0
989 1 0.977664 0.0672453 0
990 1 0.995487 0.0853014 0
991 1 0.513933 0.109982 0
992 1 0.52077 0.133671 0
993 1 0.538762 0.114173 0
964 1 0.555748 0.096203 0
994 1 0.562458 0.121284 0
995 1 0.579897 0.102029 0
996 1 0.58622 0.128277 0
997 1 0.603242 0.109457 0
1027 1 0.611309 0.134636 0
998 1 0.627328 0.116369 0
1000 1 0.644832 0.096874 0
1001 1 0.669787 0.102904 0
1030 1 0.651959 0.121452 0
1032 1 0.674628 0.128655 0
1031 1 0.697378 0.122069 0
1002 1 0.702484 0.0983689 0
1033 1 0.720863 0.115122 0
1035 1 0.744365 0.107874 0
1006 1 0.76815 0.101003 0
1036 1 0.762116 0.126067 0
1034 1 0.738439 0.131389 0
1008 1 0.792489 0.0955154 0
1037 1 0.786119 0.118948 0
1039 1 0.809697 0.112441 0
1038 1 0.803616 0.137421 0
1040 1 0.827525 0.13019 0
1010 1 0.834203 0.106896 0
1012 1 0.857392 0.100376 0
1041 1 0.852213 0.124136 0
1043 1 0.876029 0.11762 0
1013 1 0.882085 0.093281 0
1014 1 0.900192 0.111355 0
1044 1 0.892988 0.135506 0
1016 1 0.916888 0.129963 0
1017 1 0.923413 0.104129 0
1018 1 0.947819 0.0983645 0
1047 1 0.941516 0.122038 0
1019 1 0.971594 0.0929166 0
1020 1 0.988912 0.110117 0
1049 1 0.964769 0.11755 0
1050 1 0.983225 0.135273 0
1023 1 0.544892 0.139475 0
1021 1 0.50376 0.15155 0
1022 1 0.52775 0.158316 0
1051 1 0.510836 0.176409 0
1025 1 0.569461 0.145957 0
1024 1 0.551877 0.164352 0
1055 1 0.576281 0.17116 0
1029 1 0.634662 0.141451 0
1026 1 0.593251 0.152362 0
1028 1 0.617749 0.158672 0
1057 1 0.600168 0.176892 0
1058 1 0.641349 0.165245 0
1059 1 0.658488 0.146906 0
1060 1 0.664864 0.171905 0
1063 1 0.71423 0.139339 0
1061 1 0.682665 0.15242 0
1062 1 0.706755 0.162264 0
1091 1 0.689059 0.178788 0
1064 1 0.731422 0.157776 0
1065 1 0.75501 0.150543 0
1095 1 0.749227 0.1751 0
1066 1 0.773543 0.16909 0
1067 1 0.779829 0.144807 0
1068 1 0.797548 0.161976 0
1099 1 0.815747 0.17949 0
1069 1 0.8212 0.155418 0
1071 1 0.84513 0.148552 0
1070 1 0.839427 0.172714 0
1072 1 0.863023 0.166318 0
1042 1 0.868515 0.141211 0
1073 1 0.887021 0.159575 0
1074 1 0.904369 0.178322 0
1045 1 0.910897 0.153699 0
1075 1 0.927575 0.172183 0
1046 1 0.934122 0.147021 0
1077 1 0.951849 0.16628 0
1048 1 0.958779 0.141061 0
1079 1 0.975963 0.159125 0
1080 1 0.993103 0.177167 0
421 1 0.987422 0.474517 0
1053 1 0.534906 0.182352 0
1052 1 0.516936 0.200581 0
1082 1 0.523215 0.22549 0
1083 1 0.542017 0.207368 0
1054 1 0.558329 0.18885 0
1085 1 0.564739 0.214023 0
1056 1 0.582822 0.19516 0
1115 1 0.588922 0.220165 0
1086 1 0.60572 0.202845 0
1087 1 0.62362 0.183743 0
1088 1 0.630647 0.209324 0
1089 1 0.647603 0.190975 0
1090 1 0.672699 0.197497 0
1119 1 0.65423 0.215391 0
1121 1 0.679618 0.221114 0
1093 1 0.715359 0.185592 0
1092 1 0.696868 0.203796 0
1123 1 0.71937 0.212163 0
1094 1 0.737961 0.195758 0
1096 1 0.762692 0.199203 0
1125 1 0.744889 0.219679 0
1126 1 0.768978 0.227005 0
1097 1 0.791818 0.187173 0
1127 1 0.785153 0.209833 0
1098 1 0.809114 0.204536 0
1129 1 0.827138 0.220898 0
1100 1 0.832759 0.196861 0
1101 1 0.856804 0.190302 0
1131 1 0.850835 0.214825 0
1102 1 0.874781 0.208444 0
1103 1 0.88051 0.184058 0
1104 1 0.89915 0.203682 0
1135 1 0.93899 0.215924 0
1105 1 0.922151 0.196688 0
1076 1 0.946128 0.191274 0
1107 1 0.96328 0.209175 0
1078 1 0.970217 0.184053 0
1109 1 0.988488 0.200738 0
1110 1 0.995818 0.224233 0
1111 1 0.506313 0.24395 0
1113 1 0.529838 0.249938 0
1112 1 0.512595 0.268772 0
1084 1 0.54718 0.231302 0
1143 1 0.553562 0.256659 0
1114 1 0.571271 0.238373 0
1145 1 0.577775 0.262123 0
1117 1 0.612502 0.227553 0
1116 1 0.595357 0.244741 0
1147 1 0.619954 0.251488 0
1146 1 0.602817 0.269001 0
1118 1 0.636645 0.233405 0
1149 1 0.644517 0.2585 0
1120 1 0.66039 0.2395 0
1150 1 0.668413 0.264922 0
1151 1 0.685232 0.247099 0
1122 1 0.70269 0.23004 0
1153 1 0.710326 0.253431 0
1152 1 0.691696 0.272127 0
1124 1 0.727853 0.237165 0
1154 1 0.734214 0.261353 0
1155 1 0.751961 0.243668 0
1156 1 0.758261 0.268079 0
1157 1 0.776594 0.251035 0
1128 1 0.794323 0.233956 0
1158 1 0.799555 0.258772 0
1159 1 0.818087 0.242616 0
1160 1 0.826356 0.265317 0
1130 1 0.84383 0.243963 0
1191 1 0.850163 0.271516 0
1132 1 0.866472 0.231891 0
1161 1 0.868238 0.255866 0
1133 1 0.891986 0.228427 0
1163 1 0.892012 0.261318 0
1134 1 0.911704 0.243214 0
1165 1 0.917063 0.26756 0