ITEM: TIMESTEP
58000
ITEM: NUMBER OF ATOMS
1800
ITEM: BOX BOUNDS pp pp pp
2.9918066454519021e-01 1.6470081933545717e+02
2.2854458157737696e+00 1.6271455418422937e+02
0.0000000000000000e+00 5.5000000000000000e+00
ITEM: ATOMS id type xs ys zs
2 1 0.013933 0.0119907 0
3 1 0.0382998 0.00579376 0
31 1 0.00721165 0.0362416 0
33 1 0.032325 0.0308527 0
4 1 0.0563187 0.0233028 0
6 1 0.0806285 0.0163025 0
35 1 0.0742149 0.0406489 0
8 1 0.10465 0.00996146 0
37 1 0.0982541 0.0345496 0
39 1 0.121753 0.0285984 0
880 1 0.129119 0.00390971 0
9 1 0.146142 0.0230406 0
10 1 0.169987 0.0168864 0
40 1 0.163324 0.0420371 0
41 1 0.187885 0.0353415 0
12 1 0.194467 0.0106516 0
14 1 0.211568 0.0286982 0
13 1 0.218332 0.00475095 0
15 1 0.235945 0.0231348 0
16 1 0.259297 0.015904 0
46 1 0.254271 0.040506 0
47 1 0.277821 0.0350709 0
18 1 0.282952 0.0105434 0
49 1 0.313348 0.0363501 0
19 1 0.306475 0.0129212 0
20 1 0.33007 0.0180229 0
21 1 0.354729 0.0234885 0
51 1 0.337626 0.0421782 0
23 1 0.379032 0.0298108 0
894 1 0.396293 0.0110851 0
24 1 0.403082 0.0358289 0
892 1 0.371736 0.00578796 0
25 1 0.420851 0.0181896 0
27 1 0.444889 0.0228514 0
26 1 0.428511 0.0415589 0
29 1 0.469801 0.0291289 0
900 1 0.485586 0.0104182 0
30 1 0.494062 0.0353712 0
898 1 0.461878 0.00454092 0
32 1 0.0264727 0.0552669 0
62 1 0.0193708 0.0795546 0
63 1 0.0436905 0.0733842 0
61 1 0.00199103 0.0601558 0
34 1 0.0495239 0.0477542 0
65 1 0.0672005 0.0655263 0
66 1 0.0851232 0.0842043 0
64 1 0.0606377 0.0916815 0
36 1 0.0916853 0.0600603 0
38 1 0.115819 0.0535566 0
67 1 0.10873 0.077907 0
68 1 0.132805 0.0707406 0
69 1 0.139862 0.0472292 0
71 1 0.157092 0.0658211 0
72 1 0.173974 0.0841753 0
70 1 0.149809 0.0902422 0
42 1 0.181446 0.0591141 0
43 1 0.205536 0.0535565 0
73 1 0.198828 0.0775145 0
44 1 0.222523 0.0719217 0
45 1 0.230083 0.047353 0
75 1 0.247136 0.0654081 0
76 1 0.26353 0.0837186 0
77 1 0.271692 0.0593345 0
48 1 0.295019 0.0530262 0
79 1 0.304263 0.0772297 0
22 1 0.362025 0.0475116 0
50 1 0.320833 0.0598819 0
81 1 0.328228 0.0841352 0
52 1 0.34526 0.0651914 0
82 1 0.35309 0.0887183 0
53 1 0.386843 0.0535999 0
83 1 0.368897 0.0704471 0
54 1 0.393168 0.0777482 0
28 1 0.45232 0.0490702 0
55 1 0.410857 0.0599848 0
57 1 0.435078 0.0660493 0
56 1 0.418711 0.0838274 0
87 1 0.443081 0.0906363 0
59 1 0.476604 0.0536808 0
58 1 0.459618 0.0722474 0
89 1 0.483329 0.0776116 0
92 1 0.0298281 0.123006 0
93 1 0.0361615 0.097714 0
91 1 0.0131246 0.103705 0
121 1 0.00596859 0.127992 0
94 1 0.0532288 0.116373 0
95 1 0.0780801 0.109194 0
125 1 0.0710476 0.133696 0
96 1 0.0947048 0.12679 0
97 1 0.101721 0.102947 0
98 1 0.119129 0.119825 0
99 1 0.125917 0.0959936 0
100 1 0.143067 0.113857 0
101 1 0.167437 0.107503 0
130 1 0.160075 0.133545 0
103 1 0.191678 0.102135 0
102 1 0.185132 0.126023 0
105 1 0.215741 0.0952993 0
104 1 0.208691 0.119847 0
74 1 0.240053 0.0908659 0
106 1 0.232454 0.114414 0
137 1 0.251836 0.13105 0
107 1 0.266893 0.111161 0
78 1 0.285282 0.0941407 0
109 1 0.292709 0.118651 0
80 1 0.30999 0.101479 0
110 1 0.317807 0.124897 0
108 1 0.275569 0.135748 0
111 1 0.335723 0.108075 0
141 1 0.341578 0.132915 0
113 1 0.359743 0.113904 0
84 1 0.376627 0.096147 0
112 1 0.383103 0.120783 0
85 1 0.40067 0.102955 0
115 1 0.408189 0.126459 0
86 1 0.42448 0.108684 0
116 1 0.432048 0.133953 0
117 1 0.448964 0.115057 0
120 1 0.496597 0.126894 0
88 1 0.465563 0.0965678 0
119 1 0.472297 0.120505 0
90 1 0.490287 0.102348 0
122 1 0.0237603 0.146601 0
152 1 0.0171164 0.171071 0
153 1 0.0407305 0.166073 0
123 1 0.0471373 0.140629 0
124 1 0.0643738 0.158697 0
155 1 0.0814751 0.175827 0
126 1 0.0892428 0.152066 0
127 1 0.112047 0.143828 0
128 1 0.130123 0.161411 0
157 1 0.107031 0.170062 0
129 1 0.136361 0.13823 0
159 1 0.157353 0.1638 0
131 1 0.17823 0.149699 0
132 1 0.180538 0.174245 0
133 1 0.202221 0.145355 0
134 1 0.219983 0.163033 0
163 1 0.203154 0.180653 0
135 1 0.226641 0.138198 0
136 1 0.260458 0.154415 0
165 1 0.244112 0.171124 0
167 1 0.267366 0.179077 0
139 1 0.300823 0.141718 0
138 1 0.284444 0.159855 0
169 1 0.307385 0.166685 0
140 1 0.324512 0.149299 0
142 1 0.348231 0.156077 0
171 1 0.331687 0.1734 0
172 1 0.355113 0.17971 0
143 1 0.366061 0.137972 0
114 1 0.390668 0.145313 0
144 1 0.39649 0.169615 0
173 1 0.372883 0.162691 0
145 1 0.414167 0.152105 0
146 1 0.419504 0.175963 0
147 1 0.437984 0.157775 0
118 1 0.455942 0.139705 0
149 1 0.480123 0.144672 0
148 1 0.462803 0.16373 0
150 1 0.486201 0.169917 0
183 1 0.0336104 0.190509 0
182 1 0.0391174 0.214949 0
181 1 0.0139016 0.206496 0
154 1 0.0579301 0.184903 0
184 1 0.0612148 0.223217 0
185 1 0.0761048 0.202936 0
186 1 0.104569 0.216698 0
156 1 0.0984925 0.193629 0
158 1 0.122115 0.19909 0
187 1 0.127269 0.225526 0
160 1 0.140889 0.182869 0
161 1 0.16311 0.190564 0
189 1 0.145298 0.207594 0
191 1 0.168744 0.21599 0
162 1 0.186161 0.198901 0
193 1 0.209582 0.205113 0
192 1 0.192066 0.223174 0
164 1 0.22664 0.188219 0
195 1 0.232641 0.213264 0
166 1 0.249712 0.196125 0
196 1 0.256475 0.220695 0
168 1 0.290293 0.185053 0
197 1 0.273051 0.203215 0
199 1 0.296452 0.209583 0
170 1 0.313288 0.192412 0
201 1 0.33877 0.198802 0
200 1 0.320597 0.216149 0
202 1 0.345314 0.222802 0
203 1 0.362233 0.204026 0
174 1 0.379502 0.187538 0
204 1 0.385977 0.21162 0
175 1 0.40284 0.193805 0
177 1 0.444012 0.181251 0
205 1 0.410398 0.218562 0
176 1 0.427379 0.200008 0
207 1 0.434477 0.22419 0
178 1 0.450937 0.206535 0
179 1 0.467968 0.18823 0
209 1 0.475654 0.212172 0
180 1 0.492678 0.194743 0
449 1 0.479408 0.488472 0
212 1 0.0254593 0.257494 0
211 1 0.0202353 0.232464 0
1140 1 0.00209342 0.250239 0
213 1 0.0449868 0.240106 0
243 1 0.0478617 0.266454 0
215 1 0.0845985 0.230798 0
214 1 0.0671498 0.249806 0
216 1 0.0899935 0.257528 0
217 1 0.108279 0.241246 0
218 1 0.113665 0.26582 0
188 1 0.132821 0.250323 0
190 1 0.151222 0.231563 0
221 1 0.175161 0.240523 0
220 1 0.156261 0.257292 0
222 1 0.179984 0.264674 0
194 1 0.215859 0.230619 0
223 1 0.197965 0.248416 0
224 1 0.222422 0.256822 0
253 1 0.204123 0.27208 0
225 1 0.238903 0.238298 0
227 1 0.262167 0.244581 0
226 1 0.245625 0.262809 0
257 1 0.268685 0.268905 0
198 1 0.279724 0.228354 0
229 1 0.302976 0.234549 0
228 1 0.285649 0.251932 0
230 1 0.30975 0.258401 0
231 1 0.327708 0.239902 0
232 1 0.35193 0.248195 0
261 1 0.333372 0.264196 0
263 1 0.356923 0.271896 0
233 1 0.36979 0.229717 0
235 1 0.392862 0.235043 0
234 1 0.375792 0.25514 0
265 1 0.398916 0.26099 0
206 1 0.416046 0.242721 0
237 1 0.440394 0.248393 0
236 1 0.423392 0.266928 0
208 1 0.458023 0.230806 0
210 1 0.48178 0.237975 0
239 1 0.464703 0.255353 0
240 1 0.489231 0.261852 0
241 1 0.00708061 0.274477 0
242 1 0.0302257 0.282324 0
271 1 0.0119197 0.29887 0
273 1 0.0363665 0.308104 0
245 1 0.0721423 0.274097 0
244 1 0.0541176 0.291156 0
246 1 0.078436 0.299452 0
275 1 0.0592866 0.315971 0
247 1 0.0957143 0.282139 0
249 1 0.119771 0.290287 0
248 1 0.102022 0.307991 0
279 1 0.125833 0.31647 0
219 1 0.138823 0.27443 0
251 1 0.162506 0.282209 0
250 1 0.144054 0.299303 0
281 1 0.168791 0.306196 0
252 1 0.186493 0.289209 0
254 1 0.209907 0.296864 0
283 1 0.191602 0.314223 0
255 1 0.228089 0.280662 0
256 1 0.251443 0.28682 0
285 1 0.233208 0.304297 0
287 1 0.257222 0.310738 0
259 1 0.291685 0.276529 0
258 1 0.274829 0.293806 0
289 1 0.298825 0.30086 0
260 1 0.316647 0.283005 0
262 1 0.340241 0.289945 0
291 1 0.323323 0.307506 0
292 1 0.346327 0.314821 0
293 1 0.364263 0.296436 0
264 1 0.38154 0.279083 0
295 1 0.388702 0.303024 0
266 1 0.405648 0.285378 0
238 1 0.446841 0.272903 0
267 1 0.429576 0.291987 0
297 1 0.412056 0.309373 0
298 1 0.435074 0.317467 0
268 1 0.45322 0.299222 0
269 1 0.47043 0.279793 0
270 1 0.4774 0.304228 0
1141 1 0.494847 0.28646 0
1081 1 0.498335 0.219836 0
1200 1 0.0172292 0.323374 0
272 1 0.0424031 0.333327 0
301 1 0.0227338 0.348714 0
303 1 0.0483462 0.358247 0
276 1 0.083891 0.324586 0
274 1 0.0662011 0.341496 0
305 1 0.0900127 0.348978 0
277 1 0.107934 0.331928 0
307 1 0.113664 0.357464 0
278 1 0.131145 0.341057 0
280 1 0.14968 0.323791 0
282 1 0.17395 0.331435 0
311 1 0.156266 0.348062 0
312 1 0.179056 0.356001 0
284 1 0.215059 0.321437 0
313 1 0.197415 0.338793 0
315 1 0.220864 0.346003 0
314 1 0.203884 0.363818 0
286 1 0.239486 0.329075 0
317 1 0.263219 0.335815 0
316 1 0.245479 0.354278 0
318 1 0.269651 0.360612 0
288 1 0.280969 0.317869 0
290 1 0.304726 0.325349 0
319 1 0.287485 0.342867 0
320 1 0.31172 0.350736 0
321 1 0.328364 0.332715 0
323 1 0.353218 0.339201 0
322 1 0.33547 0.357706 0
324 1 0.359738 0.364185 0
294 1 0.370985 0.32074 0
296 1 0.394222 0.327812 0
325 1 0.37698 0.344848 0
326 1 0.400508 0.352646 0
327 1 0.417864 0.335135 0
328 1 0.423767 0.359027 0
329 1 0.441991 0.340914 0
299 1 0.459726 0.323361 0
359 1 0.466233 0.347129 0
330 1 0.483936 0.33035 0
360 1 0.490471 0.353844 0
1230 1 0.00634237 0.366881 0
302 1 0.0291754 0.374546 0
332 1 0.0348951 0.399044 0
331 1 0.0119372 0.391446 0
304 1 0.0722677 0.366635 0
333 1 0.0541249 0.382336 0
335 1 0.0768792 0.390737 0
334 1 0.0594795 0.407142 0
306 1 0.0953563 0.374106 0
308 1 0.119135 0.382819 0
337 1 0.101735 0.398677 0
338 1 0.125693 0.406529 0
309 1 0.137455 0.365854 0
310 1 0.161738 0.373016 0
339 1 0.143643 0.390282 0
341 1 0.167667 0.397249 0
343 1 0.185955 0.380953 0
342 1 0.192307 0.406038 0
344 1 0.210221 0.388397 0
345 1 0.22749 0.37116 0
347 1 0.252029 0.378152 0
346 1 0.233426 0.395263 0
377 1 0.257666 0.403241 0
349 1 0.294341 0.368624 0
348 1 0.275462 0.385484 0
350 1 0.300309 0.392585 0
351 1 0.318245 0.375377 0
381 1 0.323901 0.400006 0
353 1 0.341564 0.381702 0
352 1 0.347061 0.406918 0
355 1 0.382799 0.370562 0
354 1 0.365553 0.389402 0
356 1 0.388237 0.395328 0
357 1 0.40638 0.377438 0
387 1 0.430845 0.383356 0
358 1 0.449132 0.36593 0
386 1 0.412483 0.401733 0
388 1 0.436658 0.408504 0
389 1 0.454553 0.391489 0
1232 1 0.472496 0.372594 0
1262 1 0.496411 0.37835 0
1261 1 0.478308 0.396845 0
361 1 0.0179552 0.416464 0
362 1 0.0238538 0.44164 0
363 1 0.0420779 0.424643 0
336 1 0.0832986 0.414855 0
364 1 0.0479377 0.449919 0
365 1 0.0649058 0.432534 0
366 1 0.0888906 0.439413 0
367 1 0.107301 0.422071 0
368 1 0.113654 0.448114 0
369 1 0.13156 0.431591 0
340 1 0.150288 0.414522 0
371 1 0.174126 0.423384 0
370 1 0.155677 0.439726 0
401 1 0.180238 0.44712 0
373 1 0.217269 0.412959 0
372 1 0.198594 0.430043 0
374 1 0.221521 0.43786 0
375 1 0.240567 0.421599 0
376 1 0.26456 0.427336 0
405 1 0.246152 0.4463 0
407 1 0.271052 0.453168 0
378 1 0.282292 0.409988 0
379 1 0.305783 0.417046 0
409 1 0.287813 0.434911 0
380 1 0.31117 0.441071 0
382 1 0.329426 0.423892 0
413 1 0.335701 0.449847 0
383 1 0.352841 0.432124 0
385 1 0.370304 0.414546 0
414 1 0.376725 0.438943 0
384 1 0.394246 0.420857 0
415 1 0.401004 0.444851 0
417 1 0.418705 0.426887 0
418 1 0.443071 0.433503 0
416 1 0.425136 0.451233 0
419 1 0.461015 0.414555 0
390 1 0.466972 0.439674 0
1291 1 0.4841 0.42134 0
1321 1 0.490774 0.44581 0
392 1 0.00529979 0.458474 0
393 1 0.0294076 0.466502 0
422 1 0.0108494 0.482956 0
423 1 0.0345996 0.491085 0
395 1 0.0715559 0.455978 0
394 1 0.0531189 0.473789 0
396 1 0.0766096 0.480931 0
425 1 0.0586386 0.497722 0
397 1 0.0955872 0.464799 0
398 1 0.119932 0.472819 0
427 1 0.101091 0.489811 0
428 1 0.125166 0.497251 0
399 1 0.138003 0.455711 0
400 1 0.162483 0.463801 0
429 1 0.143668 0.480141 0
431 1 0.166957 0.488643 0
403 1 0.2035 0.454717 0
402 1 0.186295 0.472025 0
432 1 0.192516 0.497131 0
433 1 0.210454 0.479457 0
404 1 0.227471 0.46312 0
406 1 0.251783 0.47011 0
435 1 0.233952 0.487603 0
436 1 0.257649 0.495005 0
410 1 0.294483 0.460648 0
408 1 0.276153 0.477902 0
441 1 0.299688 0.485858 0
411 1 0.317683 0.468228 0
412 1 0.359707 0.457467 0
442 1 0.342184 0.474473 0
440 1 0.323869 0.491573 0
448 1 0.455511 0.482779 0
473 1 0.366261 0.481238 0
443 1 0.383771 0.46342 0
444 1 0.390247 0.48885 0
445 1 0.407958 0.469842 0
475 1 0.414092 0.494177 0
447 1 0.449962 0.457748 0
446 1 0.432128 0.47583 0
420 1 0.473084 0.46323 0
450 1 0.496717 0.470648 0
454 1 0.0220462 0.53214 0
453 1 0.0164254 0.507895 0
424 1 0.0398296 0.515494 0
485 1 0.0460827 0.539519 0
455 1 0.0631717 0.522421 0
426 1 0.0816374 0.505912 0
456 1 0.0889986 0.530796 0
457 1 0.106216 0.513341 0
458 1 0.112446 0.538768 0
459 1 0.130836 0.521399 0
460 1 0.155416 0.529002 0
461 1 0.172846 0.51304 0
430 1 0.148577 0.50494 0
462 1 0.178378 0.538378 0
434 1 0.216517 0.50412 0
463 1 0.197343 0.521666 0
464 1 0.221384 0.529339 0
466 1 0.245904 0.53739 0
465 1 0.240046 0.512262 0
437 1 0.264345 0.520792 0
467 1 0.288314 0.527867 0
438 1 0.305802 0.510428 0
468 1 0.31113 0.535313 0
439 1 0.282326 0.502335 0
469 1 0.330574 0.518081 0
470 1 0.354649 0.524094 0
499 1 0.336661 0.542754 0
472 1 0.372402 0.505649 0
503 1 0.379417 0.5311 0
474 1 0.396831 0.512949 0
505 1 0.403494 0.537026 0
476 1 0.421154 0.518522 0
477 1 0.438414 0.500614 0
507 1 0.444997 0.525143 0
506 1 0.427524 0.544697 0
478 1 0.462366 0.506786 0
480 1 0.468623 0.531504 0
479 1 0.485734 0.513771 0
510 1 0.493298 0.537278 0
483 1 0.00349796 0.548615 0
513 1 0.0267258 0.557295 0
514 1 0.0325337 0.581065 0
482 1 0.00924573 0.573403 0
486 1 0.0690086 0.547077 0
484 1 0.0510283 0.564592 0
515 1 0.0745523 0.57279 0
545 1 0.0563146 0.588939 0
487 1 0.0924906 0.555587 0
488 1 0.117608 0.56337 0
517 1 0.098302 0.580787 0
519 1 0.121299 0.588121 0
489 1 0.135968 0.545869 0
491 1 0.159221 0.55401 0
490 1 0.140803 0.571198 0
521 1 0.164017 0.578798 0
493 1 0.202514 0.546939 0
492 1 0.184381 0.562704 0
523 1 0.190295 0.587029 0
494 1 0.20973 0.57064 0
497 1 0.270444 0.546811 0
495 1 0.227173 0.553456 0
496 1 0.251105 0.563063 0
525 1 0.233237 0.579628 0
526 1 0.257298 0.589248 0
527 1 0.276089 0.571173 0
498 1 0.293941 0.554055 0
529 1 0.300217 0.579208 0
500 1 0.317641 0.560633 0
501 1 0.361559 0.548083 0
531 1 0.34222 0.567711 0
530 1 0.324853 0.586623 0
533 1 0.367618 0.573356 0
502 1 0.385954 0.555525 0
534 1 0.392528 0.579384 0
504 1 0.410187 0.561662 0
508 1 0.434565 0.568998 0
509 1 0.451043 0.550442 0
535 1 0.41641 0.585862 0
539 1 0.458848 0.574175 0
540 1 0.475302 0.555981 0
569 1 0.483523 0.580807 0
1441 1 0.500017 0.561629 0
512 1 0.0150904 0.598203 0
542 1 0.0194299 0.623519 0
543 1 0.0382007 0.606825 0
544 1 0.0439392 0.631323 0
516 1 0.079901 0.597114 0
546 1 0.0618331 0.614625 0
547 1 0.0860961 0.623817 0
518 1 0.102802 0.605541 0
548 1 0.128089 0.612253 0
577 1 0.108829 0.630321 0
520 1 0.145952 0.594418 0
522 1 0.170237 0.602898 0
549 1 0.151717 0.617752 0
551 1 0.175224 0.627105 0
524 1 0.213666 0.596002 0
553 1 0.193569 0.611085 0
554 1 0.219211 0.620212 0
555 1 0.237878 0.604924 0
556 1 0.242144 0.630827 0
557 1 0.2618 0.614358 0
528 1 0.280561 0.597674 0
559 1 0.306871 0.604581 0
558 1 0.286058 0.62392 0
560 1 0.312645 0.629777 0
561 1 0.331349 0.611171 0
532 1 0.348555 0.591927 0
562 1 0.358036 0.614791 0
591 1 0.342422 0.633756 0
563 1 0.375213 0.597681 0
565 1 0.381488 0.622432 0
536 1 0.399464 0.60425 0
566 1 0.406257 0.629612 0
537 1 0.440798 0.593223 0
567 1 0.424344 0.611882 0
568 1 0.449156 0.617414 0
597 1 0.431647 0.635347 0
538 1 0.466389 0.598166 0
570 1 0.490555 0.605336 0
600 1 0.472714 0.624251 0
1501 1 0.496909 0.630327 0
571 1 0.0016302 0.639527 0
573 1 0.0250835 0.647416 0
603 1 0.0293167 0.67216 0
572 1 0.00620123 0.664666 0
574 1 0.0483741 0.655343 0
575 1 0.06849 0.63999 0
605 1 0.0713173 0.666202 0
604 1 0.0525 0.680231 0
576 1 0.0913086 0.65019 0
607 1 0.094837 0.676724 0
578 1 0.115056 0.659477 0
579 1 0.131231 0.639189 0
609 1 0.137486 0.677059 0
550 1 0.156179 0.642857 0
581 1 0.179199 0.652432 0
580 1 0.158606 0.66563 0
611 1 0.180654 0.67673 0
552 1 0.198641 0.635988 0
583 1 0.221194 0.645811 0
582 1 0.201996 0.662476 0
584 1 0.224078 0.672173 0
587 1 0.26396 0.640544 0
585 1 0.243309 0.656385 0
586 1 0.266403 0.667241 0
589 1 0.286247 0.651163 0
590 1 0.30684 0.665409 0
593 1 0.348826 0.660086 0
621 1 0.325505 0.64972 0
622 1 0.329786 0.675196 0
564 1 0.365811 0.64151 0
594 1 0.372723 0.666315 0
595 1 0.389654 0.64819 0
625 1 0.398478 0.673065 0
596 1 0.414695 0.653235 0
598 1 0.438169 0.660539 0
627 1 0.422519 0.678849 0
599 1 0.455729 0.641705 0
629 1 0.479424 0.6485 0
628 1 0.462755 0.66663 0
630 1 0.486982 0.672368 0
632 1 0.00249568 0.716041 0
633 1 0.029921 0.696343 0
634 1 0.0274281 0.721012 0
602 1 0.00730643 0.689829 0
635 1 0.0520224 0.704576 0
606 1 0.0739982 0.691478 0
636 1 0.0734349 0.717199 0
637 1 0.0949037 0.704165 0
608 1 0.115897 0.689165 0
638 1 0.11588 0.71652 0
639 1 0.137833 0.703954 0
610 1 0.158543 0.691585 0
641 1 0.159144 0.71696 0
612 1 0.180216 0.701606 0
642 1 0.181342 0.727596 0
613 1 0.202337 0.688356 0
614 1 0.224363 0.697699 0
643 1 0.202335 0.712768 0
645 1 0.224726 0.723097 0
615 1 0.244743 0.68254 0
617 1 0.265609 0.693191 0
616 1 0.246029 0.708784 0
647 1 0.266444 0.720515 0
588 1 0.287565 0.679382 0
619 1 0.311167 0.691297 0
618 1 0.287649 0.704694 0
620 1 0.308486 0.716648 0
592 1 0.356204 0.684807 0
653 1 0.336328 0.70092 0
651 1 0.330296 0.72594 0
624 1 0.362985 0.710711 0
623 1 0.380007 0.691911 0
626 1 0.405075 0.697537 0
655 1 0.388461 0.716883 0
657 1 0.445885 0.685733 0
656 1 0.429464 0.704486 0
686 1 0.413434 0.722923 0
658 1 0.454879 0.710603 0
659 1 0.471101 0.691513 0
660 1 0.479925 0.715631 0
1531 1 0.496027 0.697527 0
662 1 0.0136625 0.761936 0
664 1 0.0307192 0.744961 0
665 1 0.0512392 0.729012 0
666 1 0.0741243 0.741875 0
695 1 0.0536093 0.753815 0
697 1 0.0765176 0.766563 0
667 1 0.0957881 0.730657 0
668 1 0.0966544 0.754984 0
669 1 0.118152 0.742987 0
699 1 0.118122 0.767956 0
640 1 0.138659 0.729586 0
670 1 0.139068 0.75445 0
671 1 0.160082 0.741692 0
672 1 0.161306 0.766917 0
673 1 0.182465 0.752951 0
644 1 0.202948 0.737959 0
674 1 0.204341 0.763093 0
675 1 0.225404 0.749114 0
646 1 0.246433 0.735503 0
677 1 0.247693 0.759757 0
648 1 0.268555 0.746028 0
678 1 0.270563 0.771202 0
649 1 0.289274 0.730513 0
650 1 0.312334 0.742969 0
679 1 0.291497 0.756432 0
681 1 0.315503 0.768662 0
652 1 0.335409 0.750913 0
683 1 0.358968 0.756734 0
654 1 0.352558 0.732929 0
685 1 0.374931 0.737523 0
715 1 0.399189 0.742483 0
684 1 0.383298 0.761636 0
714 1 0.407607 0.76613 0
687 1 0.437779 0.728754 0
717 1 0.422732 0.748 0
688 1 0.446253 0.753354 0
689 1 0.46284 0.734878 0
690 1 0.487042 0.739775 0
719 1 0.47129 0.75981 0
1591 1 0.495676 0.764836 0
694 1 0.0304989 0.780566 0
693 1 0.00737439 0.78819 0
723 1 0.0243214 0.805523 0
725 1 0.0471684 0.801233 0
696 1 0.0545124 0.777952 0
727 1 0.0739159 0.793445 0
726 1 0.066401 0.817551 0
728 1 0.0955087 0.807865 0
698 1 0.0968045 0.78109 0
700 1 0.117503 0.79408 0
701 1 0.139988 0.780125 0
731 1 0.139851 0.805355 0
702 1 0.161271 0.792576 0
732 1 0.163231 0.816739 0
703 1 0.182898 0.778049 0
705 1 0.226908 0.774411 0
733 1 0.183769 0.803072 0
704 1 0.205402 0.787628 0
735 1 0.20574 0.81462 0
706 1 0.227704 0.800612 0
676 1 0.247208 0.785821 0
737 1 0.248988 0.810961 0
707 1 0.269151 0.796139 0
709 1 0.293264 0.781033 0
708 1 0.289002 0.806658 0
710 1 0.313114 0.814485 0
680 1 0.323781 0.793177 0
682 1 0.341348 0.775193 0
711 1 0.350514 0.799786 0
713 1 0.367004 0.781266 0
712 1 0.374418 0.805412 0
743 1 0.390484 0.786528 0
745 1 0.399279 0.811763 0
716 1 0.430794 0.772518 0
747 1 0.439408 0.797865 0
746 1 0.414914 0.791957 0
775 1 0.423447 0.815825 0
718 1 0.456017 0.77929 0
720 1 0.480457 0.784038 0
749 1 0.463643 0.803794 0
1621 1 0.487669 0.809619 0
751 1 0.0176898 0.829903 0
752 1 0.0107321 0.853824 0
753 1 0.0344759 0.849043 0
722 1 0.0412524 0.824153 0
724 1 0.0597053 0.841071 0
755 1 0.0773515 0.858185 0
757 1 0.0848702 0.833647 0
729 1 0.119527 0.820537 0
756 1 0.101752 0.852206 0
759 1 0.123981 0.845281 0
730 1 0.143217 0.830578 0
761 1 0.163322 0.8444 0
760 1 0.144568 0.861879 0
763 1 0.185281 0.828694 0
762 1 0.187511 0.852921 0
734 1 0.207612 0.83955 0
736 1 0.228412 0.825108 0
765 1 0.230495 0.852675 0
738 1 0.270855 0.821363 0
767 1 0.251438 0.835871 0
766 1 0.254533 0.860133 0
768 1 0.274954 0.847756 0
739 1 0.294531 0.832513 0
769 1 0.299733 0.857376 0
740 1 0.3184 0.838662 0
741 1 0.334682 0.81992 0
742 1 0.359431 0.824344 0
771 1 0.342655 0.844373 0
770 1 0.326137 0.863379 0
773 1 0.366485 0.848691 0
744 1 0.383234 0.830256 0
803 1 0.392163 0.854051 0
774 1 0.407099 0.834487 0
748 1 0.447053 0.821907 0
777 1 0.430916 0.840653 0
776 1 0.415641 0.860098 0
779 1 0.455488 0.84693 0
1651 1 0.496487 0.834227 0
750 1 0.472674 0.828554 0
780 1 0.480667 0.853191 0
783 1 0.0278906 0.873275 0
782 1 0.00453738 0.8789 0
813 1 0.0219615 0.897314 0
784 1 0.0473833 0.890291 0
754 1 0.0522796 0.865604 0
785 1 0.0707648 0.882406 0
786 1 0.0879779 0.900381 0
815 1 0.0638922 0.907586 0
758 1 0.119309 0.86982 0
787 1 0.0951355 0.876294 0
788 1 0.113519 0.894418 0
789 1 0.137818 0.888271 0
791 1 0.16189 0.880687 0
823 1 0.178928 0.900262 0
790 1 0.155216 0.907254 0
764 1 0.2086 0.868027 0
792 1 0.186244 0.877139 0
793 1 0.204886 0.893733 0
795 1 0.228397 0.886127 0
796 1 0.253209 0.883653 0
827 1 0.269864 0.900775 0
825 1 0.245005 0.907537 0
797 1 0.276921 0.873068 0
799 1 0.308553 0.880881 0
798 1 0.293601 0.898078 0
829 1 0.31672 0.904768 0
800 1 0.333187 0.886778 0
801 1 0.349805 0.868 0
802 1 0.356524 0.891585 0
772 1 0.37355 0.872521 0
805 1 0.398195 0.878306 0
804 1 0.381443 0.895895 0
806 1 0.40563 0.902409 0
778 1 0.440401 0.865715 0
807 1 0.422413 0.883422 0
808 1 0.447751 0.889674 0
809 1 0.464124 0.871659 0
1681 1 0.489347 0.876164 0
810 1 0.472302 0.895821 0
1711 1 0.496154 0.901038 0
842 1 0.0097074 0.944924 0
843 1 0.0162528 0.920976 0
844 1 0.034504 0.939136 0
814 1 0.0396013 0.914534 0
816 1 0.0825276 0.925618 0
845 1 0.0576313 0.931911 0
846 1 0.0758627 0.949639 0
819 1 0.130787 0.912437 0
817 1 0.106239 0.918593 0
818 1 0.124397 0.937651 0
847 1 0.0998976 0.943409 0
821 1 0.172352 0.924808 0
820 1 0.147936 0.931075 0
851 1 0.16641 0.949476 0
849 1 0.14164 0.956238 0
794 1 0.221341 0.911988 0
824 1 0.196835 0.918899 0
822 1 0.19025 0.943181 0
853 1 0.215297 0.936556 0
855 1 0.239325 0.931269 0
826 1 0.263888 0.924437 0
856 1 0.257197 0.950639 0
828 1 0.298044 0.923099 0
857 1 0.282176 0.942797 0
859 1 0.307136 0.946981 0
831 1 0.341481 0.909977 0
830 1 0.323184 0.927925 0
832 1 0.347745 0.934269 0
860 1 0.330811 0.952197 0
833 1 0.365966 0.915794 0
863 1 0.372113 0.939853 0
834 1 0.389071 0.921256 0
865 1 0.397999 0.945166 0
837 1 0.43089 0.90831 0
835 1 0.414197 0.926448 0
838 1 0.438464 0.932194 0
836 1 0.422764 0.950895 0
839 1 0.455502 0.913259 0
1741 1 0.487074 0.943713 0
840 1 0.479669 0.919853 0
869 1 0.462708 0.937658 0
872 1 0.0203133 0.988386 0
873 1 0.0273052 0.963628 0
871 1 0.00217938 0.968979 0
874 1 0.0449145 0.980588 0
5 1 0.0630861 0.999549 0
875 1 0.0516612 0.956662 0
876 1 0.0694745 0.975279 0
7 1 0.0867132 0.992594 0
877 1 0.0929297 0.967321 0
848 1 0.117636 0.961678 0
878 1 0.110853 0.985923 0
879 1 0.135524 0.980014 0
850 1 0.160276 0.97371 0
11 1 0.177276 0.992157 0
881 1 0.153753 0.997698 0
852 1 0.184059 0.967949 0
882 1 0.201143 0.986427 0
883 1 0.208094 0.960982 0
884 1 0.224843 0.980863 0
886 1 0.241888 0.998342 0
854 1 0.23236 0.957117 0
885 1 0.249683 0.974551 0
17 1 0.26729 0.991626 0
887 1 0.276004 0.968481 0
858 1 0.314651 0.971343 0
888 1 0.294885 0.988206 0
861 1 0.355292 0.957784 0
889 1 0.321896 0.994814 0
891 1 0.339064 0.976143 0
862 1 0.36435 0.982529 0
870 1 0.470216 0.962234 0
864 1 0.380644 0.963347 0
893 1 0.388093 0.987743 0
895 1 0.40535 0.969157 0
896 1 0.413077 0.99317 0
867 1 0.446582 0.956312 0
868 1 0.454458 0.98112 0
866 1 0.428955 0.975006 0
897 1 0.436329 0.999335 0
899 1 0.47829 0.986919 0
1771 1 0.49495 0.967451 0
692 1 -0.000145897 0.811782 0
890 1 0.34636 1.00029 0
471 1 0.347841 0.499378 0
902 1 0.534214 0.0226563 0
931 1 0.518512 0.0414044 0
901 1 0.51028 0.0167687 0
904 1 0.558047 0.0282095 0
906 1 0.576438 0.00960182 0
935 1 0.582746 0.0355504 0
905 1 0.551498 0.00422588 0
908 1 0.600394 0.0156757 0
937 1 0.607019 0.0414142 0
939 1 0.624332 0.0230484 0
940 1 0.648576 0.0283725 0
971 1 0.672055 0.0353561 0
942 1 0.666687 0.00800943 0
941 1 0.640684 0.0029188 0
944 1 0.696294 0.0308758 0
945 1 0.719918 0.0241088 0
943 1 0.70231 0.00639594 0
421 1 0.98653 0.474791 0
947 1 0.743985 0.0176271 0
948 1 0.76266 0.0346653 0
918 1 0.768362 0.0106915 0
946 1 0.739467 0.0413125 0
919 1 0.792749 0.00351234 0
949 1 0.786416 0.0274521 0
920 1 0.810476 0.0219169 0
951 1 0.834359 0.0151185 0
952 1 0.852632 0.0320554 0
922 1 0.858179 0.00773152 0
950 1 0.828998 0.0386685 0
953 1 0.875368 0.0256576 0
955 1 0.899287 0.0195773 0
924 1 0.882333 0.00125839 0
954 1 0.893857 0.0431871 0
926 1 0.92391 0.012917 0
928 1 0.948814 0.00745044 0
957 1 0.941034 0.0325728 0
956 1 0.917487 0.0369859 0
930 1 0.989912 0.0181865 0
959 1 0.966312 0.0248595 0
960 1 0.984115 0.0437103 0
1347 1 0.939336 0.459831 0
1350 1 0.968521 0.491499 0
933 1 0.54214 0.0476336 0
932 1 0.524742 0.0660192 0
962 1 0.531802 0.0898087 0
961 1 0.506955 0.0837748 0
934 1 0.565877 0.0537287 0
963 1 0.54957 0.0713287 0
965 1 0.573171 0.0780525 0
936 1 0.590636 0.0604704 0
938 1 0.632157 0.0477334 0
966 1 0.5967 0.0850468 0
967 1 0.613836 0.0659589 0
968 1 0.621057 0.0919738 0
969 1 0.638023 0.0736296 0
970 1 0.656001 0.0550085 0
999 1 0.66146 0.0794369 0
975 1 0.714406 0.0483984 0
972 1 0.685155 0.0810731 0
973 1 0.689296 0.055559 0
1003 1 0.708198 0.0730054 0
1004 1 0.727131 0.0903536 0
974 1 0.732144 0.0660024 0
976 1 0.756736 0.0579827 0
1005 1 0.750515 0.0835917 0
979 1 0.804465 0.0456286 0
1007 1 0.774212 0.0768275 0
977 1 0.780462 0.0526469 0
978 1 0.798109 0.069697 0
1009 1 0.815633 0.0880241 0
980 1 0.822624 0.0634342 0
981 1 0.846309 0.0568016 0
1011 1 0.84006 0.0814689 0
982 1 0.864035 0.0753218 0
983 1 0.870015 0.0506629 0
984 1 0.887199 0.0689206 0
1015 1 0.90415 0.0861656 0
985 1 0.911614 0.0620352 0
986 1 0.928362 0.0806363 0
987 1 0.935285 0.0563708 0
988 1 0.953695 0.0744042 0
958 1 0.959805 0.0494633 0
989 1 0.978137 0.0680349 0
990 1 0.99568 0.0858735 0
991 1 0.514025 0.109063 0
992 1 0.52048 0.132656 0
993 1 0.538546 0.11521 0
964 1 0.555391 0.0963316 0
994 1 0.56168 0.120675 0
995 1 0.579929 0.104114 0
996 1 0.586391 0.128532 0
997 1 0.603596 0.110157 0
1027 1 0.610661 0.135334 0
998 1 0.627526 0.116186 0
1000 1 0.644872 0.0983897 0
1001 1 0.671467 0.103486 0
1030 1 0.652118 0.122275 0
1032 1 0.675676 0.128528 0
1031 1 0.69768 0.121191 0
1002 1 0.703265 0.0971837 0
1033 1 0.721255 0.114161 0
1035 1 0.744367 0.107634 0
1006 1 0.768107 0.101643 0
1036 1 0.761943 0.126465 0
1034 1 0.738168 0.132679 0
1008 1 0.791715 0.094216 0
1037 1 0.78619 0.118615 0
1039 1 0.809714 0.112755 0
1040 1 0.827275 0.13027 0
1010 1 0.833284 0.106109 0
1012 1 0.857941 0.0991278 0
1041 1 0.851002 0.124013 0
1043 1 0.875024 0.11743 0
1013 1 0.880894 0.0933005 0
1014 1 0.898759 0.110378 0
1044 1 0.893196 0.135269 0
1016 1 0.917289 0.12995 0
1017 1 0.922363 0.104871 0
1018 1 0.946946 0.0991114 0
1047 1 0.940163 0.123224 0
1019 1 0.971293 0.0929836 0
1020 1 0.988972 0.110479 0
1049 1 0.963817 0.11666 0
1050 1 0.982016 0.134368 0
1023 1 0.544458 0.139463 0
1021 1 0.504168 0.151903 0
1022 1 0.527281 0.157365 0
1051 1 0.509686 0.176475 0
1025 1 0.568994 0.145556 0
1024 1 0.551064 0.163629 0
1055 1 0.575733 0.170391 0
1029 1 0.634493 0.140462 0
1026 1 0.592593 0.152492 0
1028 1 0.617579 0.160088 0
1057 1 0.600266 0.177597 0
1058 1 0.641461 0.166075 0
1059 1 0.658295 0.147084 0
1060 1 0.665784 0.172169 0
1063 1 0.714361 0.139212 0
1061 1 0.682886 0.153694 0
1062 1 0.707023 0.162779 0
1091 1 0.689377 0.180015 0
1064 1 0.731526 0.157298 0
1065 1 0.755288 0.150504 0
1095 1 0.750859 0.174939 0
1038 1 0.803118 0.137324 0
1066 1 0.773813 0.167764 0
1067 1 0.780238 0.143598 0
1068 1 0.797608 0.161375 0
1099 1 0.814676 0.178914 0
1069 1 0.821315 0.154895 0
1071 1 0.84525 0.148396 0
1070 1 0.838891 0.172808 0
1072 1 0.863144 0.165331 0
1042 1 0.868719 0.141457 0
1073 1 0.887117 0.159044 0
1074 1 0.90399 0.178193 0
1045 1 0.911428 0.154139 0
1075 1 0.928442 0.17199 0
1046 1 0.934813 0.147916 0
1077 1 0.952886 0.16594 0
1048 1 0.958335 0.141124 0
1079 1 0.976723 0.159496 0
1080 1 0.993329 0.177221 0
391 1 0.999908 0.433662 0
1053 1 0.533418 0.182555 0
1052 1 0.517277 0.200807 0
1082 1 0.522588 0.225305 0
1083 1 0.541134 0.207094 0
1054 1 0.558296 0.188274 0
1085 1 0.5649 0.213739 0
1056 1 0.582199 0.194825 0
1115 1 0.589159 0.218914 0
1086 1 0.606616 0.201959 0
1087 1 0.624439 0.183717 0
1088 1 0.630338 0.208448 0
1117 1 0.613493 0.226989 0
1089 1 0.648759 0.189922 0
1090 1 0.671866 0.197363 0
1119 1 0.653278 0.214974 0
1121 1 0.676667 0.222513 0
1093 1 0.713228 0.188296 0
1092 1 0.695887 0.204832 0
1123 1 0.720347 0.213264 0
1094 1 0.737562 0.194704 0
1096 1 0.762282 0.200803 0
1125 1 0.74497 0.219075 0
1097 1 0.791021 0.185518 0
1127 1 0.7847 0.209989 0
1098 1 0.80921 0.203943 0
1129 1 0.827947 0.220582 0
1100 1 0.832448 0.196308 0
1101 1 0.856936 0.190182 0
1131 1 0.850378 0.213914 0
1102 1 0.874127 0.207578 0
1103 1 0.880533 0.183192 0
1104 1 0.897568 0.203017 0
1133 1 0.890564 0.227559 0
1135 1 0.939156 0.214851 0
1105 1 0.921936 0.196405 0
1076 1 0.945632 0.189709 0
1107 1 0.963353 0.208781 0
1078 1 0.969607 0.183815 0
1109 1 0.987556 0.201527 0
1110 1 0.997047 0.224535 0
1111 1 0.506166 0.243776 0
1113 1 0.530618 0.249977 0
1112 1 0.512469 0.268977 0
1084 1 0.546565 0.231368 0
1143 1 0.554239 0.256601 0
1114 1 0.571592 0.238478 0
1145 1 0.578237 0.263599 0
1116 1 0.595447 0.243554 0
1147 1 0.61956 0.252031 0
1146 1 0.601725 0.269337 0
1118 1 0.636996 0.233758 0
1149 1 0.642326 0.259584 0
1120 1 0.659917 0.241425 0
1150 1 0.667562 0.26561 0
1151 1 0.684464 0.246958 0
1122 1 0.701485 0.229695 0
1153 1 0.707992 0.253963 0
1152 1 0.692385 0.272211 0
1126 1 0.768244 0.226544 0
1124 1 0.726485 0.236564 0
1154 1 0.732624 0.260682 0
1155 1 0.750655 0.243759 0
1156 1 0.756379 0.267819 0
1157 1 0.775006 0.250026 0
1128 1 0.793124 0.233151 0
1158 1 0.798391 0.258603 0
1159 1 0.816523 0.241327 0
1160 1 0.824914 0.264731 0
1130 1 0.843667 0.243329 0
1191 1 0.849176 0.271613 0
1132 1 0.86657 0.231302 0