ITEM: TIMESTEP
59000
ITEM: NUMBER OF ATOMS
1800
ITEM: BOX BOUNDS pp pp pp
3.0635692328063158e-01 1.6469364307672197e+02
2.2924486704877864e+00 1.6270755132951481e+02
0.0000000000000000e+00 5.5000000000000000e+00
ITEM: ATOMS id type xs ys zs
2 1 0.0147537 0.0121852 0
3 1 0.0389255 0.00585923 0
31 1 0.00797027 0.0367811 0
33 1 0.0322109 0.02961 0
4 1 0.0558932 0.023512 0
6 1 0.0800815 0.0164371 0
35 1 0.0734918 0.0405904 0
8 1 0.104212 0.0100252 0
37 1 0.0969565 0.0347352 0
39 1 0.121181 0.0278644 0
880 1 0.128608 0.00419858 0
9 1 0.145807 0.0222636 0
10 1 0.17026 0.0158335 0
40 1 0.163049 0.0408379 0
41 1 0.187873 0.0338451 0
12 1 0.194731 0.00965661 0
14 1 0.212143 0.0279407 0
13 1 0.218399 0.00359673 0
15 1 0.236692 0.0224326 0
16 1 0.259563 0.0164335 0
46 1 0.254418 0.0409751 0
47 1 0.277768 0.0348992 0
18 1 0.282458 0.0104434 0
49 1 0.313315 0.0354722 0
19 1 0.305906 0.0128248 0
20 1 0.33028 0.0182455 0
21 1 0.355703 0.0245799 0
51 1 0.337144 0.0426918 0
23 1 0.379217 0.0304287 0
894 1 0.395845 0.0124076 0
24 1 0.403437 0.0364414 0
892 1 0.371531 0.00582426 0
25 1 0.420013 0.0174514 0
27 1 0.44462 0.0235705 0
26 1 0.427922 0.0413744 0
29 1 0.468841 0.0299754 0
900 1 0.484824 0.0118851 0
30 1 0.493411 0.0352809 0
898 1 0.461327 0.00581107 0
32 1 0.025893 0.0545371 0
62 1 0.0190152 0.0799786 0
63 1 0.042929 0.0726494 0
61 1 0.00177838 0.0619864 0
34 1 0.0498705 0.047827 0
65 1 0.0673194 0.0661043 0
66 1 0.0842642 0.0837466 0
64 1 0.060125 0.0899846 0
36 1 0.090976 0.0591101 0
38 1 0.114795 0.0521024 0
67 1 0.10891 0.0770773 0
68 1 0.132658 0.0701359 0
69 1 0.139678 0.0464206 0
71 1 0.157324 0.0646104 0
72 1 0.173641 0.0828964 0
70 1 0.150278 0.0889642 0
42 1 0.181102 0.0588737 0
43 1 0.205027 0.0523775 0
73 1 0.197769 0.0771418 0
44 1 0.222019 0.0704473 0
45 1 0.230094 0.0459371 0
75 1 0.246512 0.0648579 0
76 1 0.262972 0.0864462 0
77 1 0.271545 0.060334 0
74 1 0.239231 0.0892825 0
48 1 0.295236 0.0536613 0
79 1 0.304146 0.0781815 0
22 1 0.361548 0.0488944 0
50 1 0.319919 0.0602562 0
81 1 0.327871 0.0833766 0
52 1 0.344571 0.0654719 0
82 1 0.352277 0.0901848 0
53 1 0.387063 0.0542104 0
83 1 0.369092 0.0724706 0
54 1 0.393494 0.0783277 0
28 1 0.4516 0.0474359 0
55 1 0.410898 0.0599455 0
57 1 0.434679 0.06656 0
56 1 0.41754 0.0841098 0
87 1 0.442189 0.0905398 0
59 1 0.476753 0.0539972 0
58 1 0.459324 0.0719454 0
89 1 0.483266 0.0783459 0
92 1 0.0298072 0.121954 0
93 1 0.0367625 0.096894 0
91 1 0.0127829 0.104686 0
121 1 0.00581867 0.129219 0
94 1 0.053308 0.115452 0
95 1 0.0773215 0.109211 0
125 1 0.0723059 0.132712 0
96 1 0.0955364 0.1257 0
97 1 0.101825 0.101904 0
98 1 0.12021 0.118513 0
99 1 0.126456 0.094552 0
100 1 0.143233 0.113026 0
101 1 0.16815 0.107126 0
130 1 0.161133 0.131763 0
103 1 0.191921 0.10101 0
102 1 0.185243 0.125581 0
105 1 0.21568 0.0948494 0
104 1 0.2097 0.119809 0
106 1 0.232908 0.113866 0
137 1 0.251758 0.131327 0
107 1 0.268031 0.112051 0
78 1 0.286052 0.0946234 0
109 1 0.293223 0.118705 0
80 1 0.31138 0.101948 0
108 1 0.276241 0.135752 0
110 1 0.3182 0.124664 0
111 1 0.335022 0.108156 0
141 1 0.342681 0.131959 0
113 1 0.359959 0.115049 0
84 1 0.376529 0.0967784 0
112 1 0.383795 0.120807 0
85 1 0.400314 0.102876 0
115 1 0.408451 0.12725 0
86 1 0.424876 0.108419 0
116 1 0.432424 0.133928 0
117 1 0.449029 0.115877 0
120 1 0.497252 0.127333 0
88 1 0.465731 0.096608 0
119 1 0.472821 0.121284 0
90 1 0.490574 0.103346 0
122 1 0.0240603 0.146605 0
152 1 0.0172688 0.171782 0
153 1 0.0412766 0.165226 0
420 1 0.473072 0.463465 0
123 1 0.0472831 0.139518 0
124 1 0.0647162 0.157311 0
155 1 0.0821722 0.174892 0
126 1 0.0891525 0.150647 0
127 1 0.112898 0.144315 0
128 1 0.130533 0.16108 0
157 1 0.107474 0.168718 0
129 1 0.137184 0.13701 0
159 1 0.15598 0.162251 0
131 1 0.17845 0.148978 0
132 1 0.179925 0.173215 0
133 1 0.202551 0.144395 0
134 1 0.220202 0.162453 0
163 1 0.203102 0.179895 0
135 1 0.227291 0.138031 0
136 1 0.260195 0.15413 0
165 1 0.243988 0.171307 0
167 1 0.267265 0.179035 0
139 1 0.301104 0.142267 0
138 1 0.283996 0.16047 0
169 1 0.30833 0.166856 0
140 1 0.325244 0.149354 0
142 1 0.348617 0.156181 0
171 1 0.331813 0.173586 0
172 1 0.355886 0.181277 0
143 1 0.367001 0.139003 0
114 1 0.391194 0.145343 0
144 1 0.398173 0.169256 0
173 1 0.37306 0.162673 0
145 1 0.415724 0.151811 0
146 1 0.421077 0.176596 0
147 1 0.439167 0.15829 0
118 1 0.456406 0.14021 0
149 1 0.480163 0.146279 0
148 1 0.462689 0.164965 0
150 1 0.487294 0.171544 0
183 1 0.0345147 0.190074 0
182 1 0.03768 0.214553 0
181 1 0.0123642 0.203799 0
154 1 0.0593502 0.182559 0
184 1 0.0610916 0.222644 0
185 1 0.0789436 0.205097 0
186 1 0.103741 0.216092 0
156 1 0.0992577 0.19225 0
158 1 0.12234 0.199025 0
187 1 0.127174 0.224568 0
160 1 0.140337 0.183317 0
161 1 0.162906 0.189858 0
189 1 0.145021 0.207388 0
191 1 0.168708 0.215172 0
162 1 0.186083 0.198222 0
193 1 0.209661 0.205154 0
192 1 0.192034 0.222639 0
164 1 0.226689 0.187237 0
195 1 0.232817 0.212355 0
166 1 0.250329 0.195749 0
196 1 0.256602 0.221129 0
168 1 0.291979 0.185106 0
197 1 0.273604 0.203769 0
199 1 0.297096 0.210039 0
170 1 0.315416 0.192565 0
201 1 0.339193 0.198667 0
200 1 0.322141 0.216705 0
202 1 0.345315 0.223526 0
203 1 0.362794 0.205041 0
174 1 0.380654 0.187003 0
204 1 0.386389 0.211548 0
175 1 0.404057 0.19337 0
177 1 0.445141 0.182348 0
205 1 0.410423 0.217629 0
176 1 0.428251 0.20073 0
207 1 0.434271 0.225262 0
178 1 0.451903 0.207363 0
179 1 0.469006 0.189651 0
209 1 0.476569 0.213369 0
180 1 0.494018 0.196276 0
212 1 0.0258882 0.257275 0
211 1 0.0198447 0.231162 0
1140 1 0.00255132 0.248842 0
213 1 0.0434048 0.239544 0
243 1 0.0493587 0.264402 0
215 1 0.0850135 0.232242 0
214 1 0.0673104 0.248083 0
216 1 0.090605 0.257283 0
217 1 0.109016 0.240687 0
218 1 0.114498 0.265636 0
188 1 0.13232 0.249442 0
190 1 0.150398 0.232188 0
221 1 0.174226 0.239952 0
220 1 0.155921 0.25657 0
222 1 0.180288 0.264336 0
194 1 0.215725 0.230267 0
223 1 0.197928 0.247303 0
224 1 0.22162 0.254251 0
253 1 0.204604 0.271366 0
225 1 0.239265 0.237094 0
227 1 0.262728 0.245283 0
226 1 0.2452 0.261916 0
257 1 0.268778 0.269689 0
198 1 0.28038 0.228016 0
229 1 0.304052 0.234319 0
228 1 0.28604 0.252211 0
230 1 0.310869 0.258605 0
231 1 0.327483 0.240838 0
232 1 0.351654 0.247744 0
261 1 0.33406 0.264943 0
233 1 0.369063 0.231008 0
235 1 0.392662 0.236421 0
234 1 0.375764 0.254913 0
265 1 0.39962 0.260318 0
206 1 0.416842 0.242507 0
237 1 0.440656 0.249085 0
236 1 0.422425 0.268104 0
208 1 0.458475 0.23127 0
210 1 0.482454 0.238272 0
239 1 0.463919 0.255439 0
240 1 0.487608 0.262535 0
241 1 0.00687887 0.27424 0
242 1 0.0308646 0.283528 0
271 1 0.0125513 0.299348 0
273 1 0.0362975 0.307805 0
245 1 0.0715955 0.273834 0
244 1 0.0544214 0.291129 0
246 1 0.0782474 0.298977 0
275 1 0.0598234 0.315619 0
247 1 0.0969706 0.282556 0
249 1 0.119748 0.289859 0
248 1 0.101345 0.307436 0
279 1 0.12528 0.314748 0
219 1 0.138439 0.273381 0
251 1 0.161912 0.281694 0
250 1 0.143116 0.298384 0
281 1 0.168176 0.306089 0
252 1 0.185892 0.289186 0
254 1 0.21034 0.296576 0
283 1 0.191442 0.313154 0
255 1 0.22794 0.280131 0
256 1 0.250749 0.287591 0
285 1 0.233583 0.304739 0
287 1 0.257386 0.311958 0
259 1 0.292614 0.276383 0
258 1 0.274544 0.29381 0
289 1 0.299152 0.300499 0
260 1 0.317108 0.282539 0
263 1 0.358347 0.272854 0
262 1 0.340449 0.290039 0
291 1 0.323458 0.307557 0
292 1 0.345766 0.316137 0
293 1 0.364086 0.297296 0
264 1 0.38168 0.278514 0
295 1 0.388203 0.304011 0
266 1 0.40477 0.286031 0
238 1 0.446524 0.273802 0
267 1 0.428941 0.292147 0
297 1 0.411001 0.310855 0
298 1 0.434808 0.316951 0
268 1 0.452942 0.298222 0
269 1 0.470032 0.280042 0
270 1 0.476727 0.304579 0
1141 1 0.494362 0.286391 0
1200 1 0.0177601 0.324773 0
272 1 0.0414667 0.331806 0
301 1 0.0233111 0.348708 0
448 1 0.45584 0.482508 0
303 1 0.0476218 0.357593 0
276 1 0.0847719 0.324279 0
274 1 0.0647545 0.340315 0
305 1 0.0888588 0.348441 0
277 1 0.107708 0.332271 0
307 1 0.112716 0.357155 0
278 1 0.132367 0.340134 0
280 1 0.148976 0.322628 0
282 1 0.174353 0.330392 0
311 1 0.156846 0.347125 0
312 1 0.18001 0.354473 0
284 1 0.215612 0.321129 0
313 1 0.197692 0.338163 0
315 1 0.221036 0.346584 0
314 1 0.203052 0.362351 0
286 1 0.23938 0.329432 0
317 1 0.26289 0.336735 0
316 1 0.244841 0.353523 0
318 1 0.2703 0.360344 0
288 1 0.280512 0.318289 0
290 1 0.304219 0.326261 0
319 1 0.287067 0.34296 0
320 1 0.31047 0.350427 0
321 1 0.328751 0.332677 0
323 1 0.352243 0.339956 0
322 1 0.334756 0.357535 0
294 1 0.369676 0.321788 0
296 1 0.393387 0.328849 0
325 1 0.375946 0.346769 0
326 1 0.39963 0.353099 0
327 1 0.417699 0.33523 0
328 1 0.42455 0.359716 0
329 1 0.4426 0.341248 0
299 1 0.459893 0.323301 0
359 1 0.466458 0.348485 0
330 1 0.483759 0.330286 0
360 1 0.489929 0.35516 0
1230 1 0.00484996 0.365569 0
302 1 0.0292831 0.373224 0
332 1 0.0354759 0.398075 0
331 1 0.0116608 0.390398 0
304 1 0.0712281 0.365356 0
333 1 0.0533074 0.381594 0
335 1 0.0763324 0.390324 0
334 1 0.058632 0.406909 0
306 1 0.0949114 0.373749 0
308 1 0.11936 0.381302 0
337 1 0.101606 0.398531 0
338 1 0.124814 0.405017 0
309 1 0.138069 0.36394 0
310 1 0.162299 0.372216 0
339 1 0.143266 0.389095 0
341 1 0.167396 0.396745 0
343 1 0.185892 0.379613 0
342 1 0.190509 0.404792 0
344 1 0.209577 0.388373 0
345 1 0.228114 0.371253 0
347 1 0.251642 0.377947 0
346 1 0.233664 0.394982 0
377 1 0.257867 0.402635 0
349 1 0.29339 0.367787 0
348 1 0.274887 0.385758 0
350 1 0.299243 0.393082 0
351 1 0.317286 0.375012 0
324 1 0.358687 0.363645 0
381 1 0.323799 0.400253 0
353 1 0.340972 0.381752 0
352 1 0.347676 0.407331 0
355 1 0.381734 0.371573 0
354 1 0.364002 0.388437 0
356 1 0.388686 0.395315 0
357 1 0.405958 0.378019 0
387 1 0.430933 0.383606 0
358 1 0.448155 0.365289 0
386 1 0.412925 0.401691 0
388 1 0.436323 0.40818 0
389 1 0.453736 0.390318 0
1232 1 0.472066 0.372518 0
1262 1 0.495577 0.379436 0
1261 1 0.477376 0.397194 0
361 1 0.0171559 0.415937 0
362 1 0.0237158 0.440897 0
363 1 0.0398531 0.424011 0
336 1 0.0823988 0.415568 0
364 1 0.0463417 0.449641 0
365 1 0.0642134 0.431513 0
366 1 0.0877727 0.439328 0
367 1 0.106657 0.423097 0
368 1 0.112449 0.448019 0
369 1 0.130177 0.4306 0
340 1 0.148704 0.414393 0
371 1 0.172856 0.422032 0
370 1 0.153843 0.438801 0
401 1 0.178353 0.446894 0
373 1 0.215889 0.412924 0
372 1 0.197296 0.429008 0
374 1 0.222019 0.436962 0
403 1 0.202926 0.452969 0
375 1 0.239281 0.419103 0
376 1 0.263509 0.427387 0
405 1 0.245136 0.44436 0
407 1 0.2688 0.451981 0
378 1 0.281303 0.410348 0
379 1 0.304852 0.418936 0
409 1 0.287213 0.436535 0
380 1 0.312294 0.442941 0
382 1 0.329455 0.42457 0
413 1 0.335567 0.449702 0
383 1 0.352953 0.430928 0
385 1 0.371287 0.413351 0
414 1 0.377386 0.438803 0
384 1 0.395828 0.420835 0
415 1 0.400535 0.445246 0
417 1 0.419332 0.426602 0
418 1 0.443139 0.433256 0
416 1 0.425214 0.451077 0
419 1 0.46089 0.414622 0
390 1 0.466561 0.439049 0
1291 1 0.483632 0.421774 0
1321 1 0.490805 0.446656 0
392 1 0.00399091 0.456828 0
393 1 0.0281756 0.466018 0
422 1 0.0101738 0.48246 0
423 1 0.0333812 0.490375 0
395 1 0.0699893 0.456753 0
394 1 0.051733 0.473389 0
396 1 0.0763341 0.481069 0
425 1 0.0577039 0.499008 0
397 1 0.0937683 0.464219 0
398 1 0.118306 0.472352 0
427 1 0.101233 0.490191 0
428 1 0.125343 0.497454 0
399 1 0.135802 0.454947 0
400 1 0.159912 0.463454 0
429 1 0.142693 0.48023 0
431 1 0.167017 0.488255 0
402 1 0.185227 0.470469 0
432 1 0.192154 0.495569 0
433 1 0.209507 0.477461 0
404 1 0.228232 0.461896 0
406 1 0.251912 0.468966 0
435 1 0.234336 0.485968 0
436 1 0.257912 0.495919 0
410 1 0.294416 0.46004 0
408 1 0.276248 0.477504 0
441 1 0.299054 0.485112 0
411 1 0.318091 0.468317 0
412 1 0.359826 0.456438 0
442 1 0.341956 0.474845 0
440 1 0.322953 0.492293 0
473 1 0.366022 0.480759 0
443 1 0.383356 0.463271 0
444 1 0.388831 0.487536 0
445 1 0.407305 0.469012 0
475 1 0.414225 0.494784 0
447 1 0.448739 0.457847 0
446 1 0.431952 0.475719 0
449 1 0.479178 0.489624 0
450 1 0.497079 0.471312 0
471 1 0.347722 0.499542 0
890 1 0.346928 0.0003034 0
454 1 0.0229857 0.532428 0
453 1 0.0154493 0.507628 0
424 1 0.0400958 0.515443 0
485 1 0.0470607 0.541108 0
455 1 0.0651677 0.523358 0
426 1 0.082597 0.50576 0
456 1 0.0879186 0.530715 0
457 1 0.106192 0.514182 0
458 1 0.11197 0.538753 0
459 1 0.13006 0.522021 0
489 1 0.135876 0.545533 0
460 1 0.154322 0.528776 0
461 1 0.172544 0.512368 0
430 1 0.148835 0.505066 0
462 1 0.178178 0.53681 0
434 1 0.216121 0.504937 0
463 1 0.196315 0.519892 0
464 1 0.221214 0.529848 0
466 1 0.244666 0.536863 0
465 1 0.239257 0.512596 0
437 1 0.263517 0.520499 0
467 1 0.288114 0.527474 0
438 1 0.305699 0.50973 0
468 1 0.313242 0.535025 0
439 1 0.280406 0.502595 0
469 1 0.330367 0.516503 0
470 1 0.35396 0.524602 0
499 1 0.336075 0.542219 0
899 1 0.479136 0.98832 0
472 1 0.371996 0.505235 0
503 1 0.377637 0.531123 0
474 1 0.396327 0.512096 0
505 1 0.402533 0.53767 0
476 1 0.419548 0.519016 0
477 1 0.438102 0.500321 0
507 1 0.44399 0.524818 0
506 1 0.426395 0.543865 0
478 1 0.462193 0.506424 0
480 1 0.468051 0.53123 0
479 1 0.485804 0.513609 0
510 1 0.492268 0.537815 0
483 1 0.0043692 0.550197 0
513 1 0.0286516 0.556883 0
514 1 0.0340791 0.581696 0
482 1 0.0105203 0.57389 0
486 1 0.0705254 0.548031 0
484 1 0.0523374 0.564737 0
515 1 0.0750489 0.573373 0
545 1 0.0567514 0.590531 0
487 1 0.0927227 0.556511 0
488 1 0.117496 0.563084 0
517 1 0.0996192 0.581246 0
519 1 0.122972 0.587717 0
491 1 0.159118 0.55284 0
490 1 0.141502 0.570677 0
521 1 0.165835 0.577168 0
493 1 0.202293 0.545252 0
492 1 0.18415 0.561075 0
523 1 0.1892 0.585451 0
494 1 0.208094 0.56974 0
495 1 0.22688 0.553924 0
497 1 0.269702 0.545783 0
496 1 0.25148 0.561805 0
525 1 0.233358 0.577425 0
526 1 0.256681 0.587664 0
527 1 0.274945 0.571006 0
498 1 0.293889 0.553812 0
529 1 0.298944 0.579067 0
500 1 0.318884 0.560345 0
501 1 0.360061 0.548332 0
531 1 0.342485 0.567482 0
530 1 0.324398 0.58459 0
533 1 0.366824 0.574267 0
502 1 0.384141 0.55534 0
534 1 0.391218 0.57946 0
504 1 0.408313 0.561398 0
508 1 0.433889 0.568012 0
509 1 0.450544 0.549839 0
535 1 0.415846 0.586782 0
539 1 0.45847 0.574699 0
540 1 0.475045 0.556208 0
569 1 0.48253 0.581143 0
1771 1 0.495812 0.969247 0
512 1 0.0150041 0.598838 0
542 1 0.0198876 0.623263 0
543 1 0.0387775 0.606985 0
544 1 0.0438073 0.63038 0
516 1 0.0810261 0.597988 0
546 1 0.062674 0.614532 0
547 1 0.0866811 0.623833 0
518 1 0.104193 0.605837 0
548 1 0.127184 0.613016 0
577 1 0.109363 0.633547 0
520 1 0.146684 0.59471 0
522 1 0.170126 0.601142 0
549 1 0.151288 0.617271 0
551 1 0.175445 0.625613 0
524 1 0.215082 0.594274 0
553 1 0.194191 0.610491 0
554 1 0.218888 0.619735 0
552 1 0.198546 0.635154 0
555 1 0.238388 0.603589 0
556 1 0.24265 0.629958 0
557 1 0.262489 0.614859 0
528 1 0.281113 0.597044 0
559 1 0.305627 0.603342 0
558 1 0.286279 0.623317 0
560 1 0.312814 0.627994 0
561 1 0.331198 0.609317 0
532 1 0.34922 0.592318 0
562 1 0.357487 0.61563 0
591 1 0.340512 0.632774 0
563 1 0.374043 0.597773 0
565 1 0.381667 0.622783 0
536 1 0.397341 0.604807 0
566 1 0.404929 0.629571 0
537 1 0.44048 0.592593 0
567 1 0.422388 0.61127 0
568 1 0.447008 0.617957 0
538 1 0.46449 0.599066 0
570 1 0.488461 0.605923 0
600 1 0.471112 0.623573 0
1501 1 0.496365 0.629385 0
571 1 0.000824366 0.641096 0
573 1 0.0253477 0.647545 0
603 1 0.0297148 0.672296 0
572 1 0.00754067 0.664798 0
574 1 0.0486962 0.655012 0
575 1 0.067914 0.639717 0
605 1 0.0719234 0.665926 0
604 1 0.0522023 0.679891 0
576 1 0.0908715 0.649824 0
607 1 0.0946275 0.676436 0
578 1 0.115238 0.661806 0
579 1 0.132658 0.639325 0
609 1 0.136882 0.676556 0
550 1 0.157847 0.642976 0
581 1 0.179312 0.651057 0
580 1 0.159081 0.666418 0
611 1 0.181301 0.677 0
583 1 0.222508 0.645699 0
582 1 0.201621 0.661302 0
584 1 0.223718 0.671056 0
587 1 0.264743 0.641025 0
585 1 0.244154 0.656054 0
586 1 0.265239 0.66781 0
589 1 0.287341 0.649892 0
590 1 0.305569 0.665596 0
588 1 0.287057 0.68104 0
593 1 0.347351 0.658341 0
621 1 0.324599 0.649716 0
622 1 0.32911 0.674872 0
564 1 0.363802 0.640299 0
594 1 0.371782 0.665553 0
595 1 0.388497 0.646929 0
625 1 0.395693 0.671996 0
597 1 0.429866 0.635885 0
596 1 0.412715 0.653995 0
598 1 0.436831 0.660218 0
627 1 0.420103 0.680024 0
599 1 0.454462 0.643363 0
629 1 0.478763 0.649071 0
628 1 0.462164 0.667309 0
630 1 0.486186 0.672883 0
632 1 0.00248125 0.716685 0
633 1 0.0299049 0.696323 0
634 1 0.0281374 0.721492 0
602 1 0.00666984 0.691423 0
635 1 0.0522461 0.705498 0
606 1 0.0739088 0.691995 0
636 1 0.0736491 0.717239 0
637 1 0.0958268 0.703219 0
608 1 0.116159 0.687884 0
638 1 0.117668 0.714441 0
639 1 0.137616 0.701527 0
610 1 0.159484 0.690411 0
641 1 0.161533 0.71564 0
612 1 0.181685 0.701386 0
613 1 0.203203 0.685881 0
614 1 0.223965 0.696006 0
643 1 0.204022 0.711418 0
645 1 0.226952 0.722743 0
615 1 0.245922 0.683396 0
617 1 0.267413 0.693663 0
616 1 0.246176 0.707693 0
647 1 0.268615 0.719306 0
619 1 0.309787 0.689898 0
618 1 0.289583 0.705749 0
620 1 0.311976 0.715293 0
592 1 0.352909 0.683475 0
653 1 0.333304 0.700098 0
651 1 0.333314 0.725604 0
624 1 0.359403 0.708563 0
623 1 0.377634 0.689849 0
626 1 0.402554 0.697186 0
655 1 0.384256 0.714018 0
657 1 0.444938 0.685448 0
656 1 0.428516 0.704034 0
686 1 0.411111 0.722218 0
658 1 0.45355 0.710747 0
659 1 0.469182 0.691803 0
660 1 0.477804 0.716401 0
1531 1 0.493916 0.697145 0
662 1 0.0125268 0.760887 0
664 1 0.0326499 0.746409 0
665 1 0.0517785 0.730275 0
666 1 0.0763569 0.74184 0
695 1 0.0553048 0.754999 0
697 1 0.0772135 0.767232 0
667 1 0.0974427 0.728774 0
668 1 0.0980793 0.754011 0
669 1 0.118258 0.741995 0
699 1 0.11945 0.767078 0
640 1 0.139957 0.727402 0
670 1 0.13951 0.753699 0
671 1 0.161673 0.741313 0
672 1 0.162737 0.766191 0
673 1 0.183209 0.752216 0
642 1 0.18304 0.727135 0
644 1 0.206315 0.737168 0
674 1 0.204169 0.763974 0
675 1 0.227544 0.74895 0
646 1 0.248741 0.734438 0
677 1 0.248689 0.759517 0
648 1 0.271765 0.745208 0
678 1 0.273223 0.771204 0
649 1 0.290845 0.731103 0
650 1 0.31359 0.740795 0
679 1 0.293937 0.756154 0
681 1 0.320605 0.76807 0
652 1 0.337559 0.750092 0
683 1 0.361649 0.758202 0
654 1 0.356235 0.733144 0
685 1 0.378865 0.739791 0
715 1 0.401926 0.745702 0
684 1 0.385918 0.76353 0
714 1 0.409399 0.76939 0
687 1 0.434972 0.728226 0
717 1 0.424774 0.750465 0
688 1 0.44823 0.755071 0
689 1 0.461398 0.734391 0
690 1 0.486339 0.739477 0
719 1 0.472374 0.760807 0
1591 1 0.495207 0.767176 0
694 1 0.0304236 0.779049 0
693 1 0.00628937 0.785413 0
723 1 0.0239952 0.804302 0
725 1 0.0484446 0.800804 0
696 1 0.0554773 0.778692 0
727 1 0.0752983 0.793083 0
726 1 0.0659578 0.817249 0
728 1 0.0975923 0.809123 0
698 1 0.0977432 0.781033 0
700 1 0.120522 0.794096 0
701 1 0.141163 0.779457 0
731 1 0.142673 0.805517 0
702 1 0.162896 0.791585 0
732 1 0.164981 0.816539 0
703 1 0.184357 0.777389 0
705 1 0.226481 0.773463 0
733 1 0.185832 0.802287 0
704 1 0.206354 0.788545 0
735 1 0.208214 0.814157 0
706 1 0.228053 0.800747 0
676 1 0.248416 0.784889 0
737 1 0.249677 0.811008 0
707 1 0.268309 0.796134 0
709 1 0.297638 0.781063 0
708 1 0.291145 0.805539 0
710 1 0.31395 0.813131 0
680 1 0.327702 0.792077 0
682 1 0.344477 0.775368 0
711 1 0.351949 0.799568 0
713 1 0.368662 0.781984 0
712 1 0.375753 0.806207 0
743 1 0.393445 0.787001 0
745 1 0.399912 0.812977 0
716 1 0.43307 0.774939 0
747 1 0.440833 0.79927 0
746 1 0.416602 0.793805 0
775 1 0.424083 0.818688 0
718 1 0.456604 0.78016 0
720 1 0.480803 0.78693 0
749 1 0.465176 0.804791 0
1621 1 0.488485 0.811061 0
751 1 0.0173161 0.829192 0
752 1 0.0107848 0.854391 0
753 1 0.034699 0.848107 0
722 1 0.0413994 0.824144 0
724 1 0.0600016 0.840718 0
755 1 0.0773997 0.858493 0
757 1 0.0855499 0.832518 0
729 1 0.120511 0.819913 0
756 1 0.10118 0.852074 0
759 1 0.124421 0.84467 0
730 1 0.143544 0.830579 0
761 1 0.164117 0.845219 0
760 1 0.144407 0.862292 0
763 1 0.187606 0.826828 0
762 1 0.188095 0.852203 0
734 1 0.20937 0.840626 0
736 1 0.230255 0.825861 0
765 1 0.231852 0.853211 0
738 1 0.272408 0.821476 0
767 1 0.252746 0.835999 0
766 1 0.257144 0.860606 0
768 1 0.277095 0.847099 0
739 1 0.295683 0.829997 0
769 1 0.30061 0.855112 0
740 1 0.319132 0.837074 0
741 1 0.336333 0.820387 0
742 1 0.360274 0.825729 0
771 1 0.34325 0.845339 0
770 1 0.325183 0.862158 0
773 1 0.367879 0.849886 0
744 1 0.384474 0.831685 0
803 1 0.391179 0.856683 0
774 1 0.407898 0.836538 0
748 1 0.448636 0.823823 0
777 1 0.432615 0.842577 0
776 1 0.415019 0.860339 0
779 1 0.455595 0.848536 0
1651 1 0.495439 0.835182 0
750 1 0.472091 0.829354 0
780 1 0.479345 0.853055 0
783 1 0.0294186 0.872447 0
782 1 0.00435092 0.879497 0
813 1 0.0223899 0.897018 0
784 1 0.0459308 0.890279 0
754 1 0.0542371 0.865303 0
785 1 0.0719129 0.883038 0
786 1 0.0892602 0.901584 0
815 1 0.0646335 0.907411 0
758 1 0.120096 0.868854 0
787 1 0.0951731 0.876232 0
788 1 0.112996 0.894947 0
789 1 0.136886 0.887178 0
791 1 0.160921 0.881193 0
823 1 0.177406 0.900352 0
790 1 0.154031 0.906096 0
764 1 0.208715 0.866356 0
792 1 0.185918 0.876627 0
793 1 0.202457 0.894491 0
795 1 0.225439 0.885855 0
796 1 0.249995 0.88268 0
827 1 0.267008 0.898843 0
825 1 0.242975 0.905876 0
797 1 0.281506 0.87539 0
799 1 0.307603 0.879322 0
798 1 0.290602 0.898771 0
829 1 0.314315 0.903404 0
800 1 0.332098 0.886892 0
801 1 0.349767 0.869432 0
802 1 0.356317 0.893124 0
772 1 0.373756 0.873506 0
805 1 0.398786 0.880615 0
804 1 0.382046 0.898061 0
806 1 0.406961 0.903644 0
778 1 0.439149 0.866388 0
807 1 0.422961 0.885924 0
808 1 0.446856 0.891432 0
837 1 0.429991 0.910208 0
809 1 0.463637 0.872418 0
1681 1 0.48767 0.876971 0
810 1 0.472887 0.89681 0
1711 1 0.497302 0.902337 0
842 1 0.0105021 0.945592 0
843 1 0.0158896 0.92113 0
844 1 0.0342404 0.939174 0
814 1 0.0406037 0.914494 0
816 1 0.0822494 0.926141 0
845 1 0.0586112 0.931966 0
846 1 0.0764906 0.95031 0
819 1 0.130448 0.912341 0
817 1 0.107868 0.91914 0
818 1 0.124481 0.937728 0
847 1 0.100282 0.943921 0
821 1 0.172633 0.925369 0
820 1 0.148324 0.930947 0
851 1 0.166163 0.949315 0
794 1 0.219674 0.911582 0
824 1 0.196338 0.918884 0
822 1 0.190359 0.942832 0
853 1 0.214379 0.936856 0
855 1 0.23756 0.930474 0
826 1 0.260936 0.923089 0
856 1 0.255834 0.948112 0
828 1 0.297337 0.922665 0
857 1 0.280215 0.941175 0
859 1 0.304381 0.946667 0
831 1 0.339586 0.910186 0
830 1 0.321421 0.928786 0
832 1 0.347171 0.934099 0
860 1 0.330138 0.952365 0
833 1 0.364602 0.916139 0
863 1 0.372127 0.940226 0
834 1 0.389534 0.921819 0
865 1 0.397185 0.946007 0
835 1 0.413408 0.927925 0
838 1 0.437957 0.933841 0
836 1 0.421437 0.952165 0
839 1 0.455811 0.914726 0
1741 1 0.487636 0.944808 0
840 1 0.480307 0.920676 0
869 1 0.463023 0.93947 0
872 1 0.0213321 0.988046 0
873 1 0.0276931 0.963882 0
871 1 0.00319581 0.969291 0
874 1 0.0452521 0.981263 0
5 1 0.0632888 0.999284 0
875 1 0.0526419 0.956795 0
876 1 0.0694346 0.97487 0
7 1 0.0868214 0.991981 0
877 1 0.0932638 0.967425 0
848 1 0.117251 0.961529 0
878 1 0.11118 0.985437 0
879 1 0.135267 0.979065 0
849 1 0.141378 0.954822 0
850 1 0.159345 0.973163 0
11 1 0.176881 0.991638 0
881 1 0.152617 0.997362 0
852 1 0.183978 0.967448 0
882 1 0.202085 0.985861 0
883 1 0.207748 0.961235 0
884 1 0.225708 0.978868 0
886 1 0.242734 0.997584 0
854 1 0.232074 0.954456 0
885 1 0.250176 0.972678 0
17 1 0.267591 0.991002 0
887 1 0.274031 0.965572 0
858 1 0.313926 0.971267 0
888 1 0.294602 0.98818 0
861 1 0.355502 0.957964 0
889 1 0.321928 0.994529 0
891 1 0.339182 0.975981 0
862 1 0.363402 0.982076 0
1441 1 0.499288 0.56145 0
864 1 0.379794 0.964052 0
893 1 0.387854 0.988068 0
895 1 0.404911 0.970073 0
896 1 0.412581 0.994709 0
867 1 0.447181 0.957051 0
868 1 0.454087 0.981648 0
866 1 0.430124 0.975583 0
870 1 0.471779 0.963611 0
897 1 0.436644 0.998896 0
692 1 0.000185888 0.811657 0
902 1 0.534197 0.0239889 0
931 1 0.516639 0.0425143 0
901 1 0.510439 0.0180028 0
904 1 0.559235 0.0291594 0
906 1 0.57666 0.0100714 0
935 1 0.583586 0.0352452 0
905 1 0.552408 0.00578364 0
908 1 0.600896 0.0166809 0
937 1 0.607445 0.0421854 0
939 1 0.62454 0.0224415 0
940 1 0.649436 0.0279299 0
971 1 0.672772 0.035223 0
942 1 0.66738 0.00906643 0
941 1 0.643361 0.00309663 0
944 1 0.697153 0.0304834 0
945 1 0.720648 0.0233566 0
943 1 0.702142 0.00574015 0
947 1 0.744704 0.0171634 0
948 1 0.761816 0.0350809 0
918 1 0.768853 0.00992028 0
946 1 0.738034 0.0411017 0
919 1 0.7926 0.00347423 0
949 1 0.786078 0.0284263 0
920 1 0.810603 0.0211184 0
951 1 0.834379 0.0144993 0
952 1 0.851342 0.0326054 0
922 1 0.858313 0.00860753 0
950 1 0.828391 0.0398562 0
953 1 0.877272 0.0249959 0
955 1 0.900793 0.0198411 0
924 1 0.882204 0.00134792 0
954 1 0.894494 0.0443205 0
926 1 0.924582 0.0135889 0
928 1 0.948967 0.00760711 0
957 1 0.941996 0.0316216 0
956 1 0.918857 0.0377921 0
930 1 0.990576 0.0180416 0
959 1 0.966968 0.0250373 0
960 1 0.98477 0.0430437 0
60 1 0.500288 0.0600113 0
933 1 0.542151 0.0477948 0
932 1 0.524441 0.0662935 0
962 1 0.531635 0.0912025 0
961 1 0.507375 0.084407 0
421 1 0.986629 0.475422 0
934 1 0.565666 0.0544992 0
963 1 0.548618 0.0725188 0
965 1 0.573083 0.0792263 0
936 1 0.590149 0.0598209 0
938 1 0.632024 0.047125 0
966 1 0.597135 0.0852784 0
967 1 0.614176 0.0665097 0
968 1 0.621551 0.0909673 0
969 1 0.638335 0.0720489 0
970 1 0.656181 0.0537305 0
999 1 0.661165 0.0795251 0
975 1 0.714524 0.047766 0
972 1 0.684703 0.0792968 0
973 1 0.689854 0.0536004 0
1003 1 0.707927 0.072149 0
1004 1 0.726424 0.0885689 0
974 1 0.731946 0.0650815 0
976 1 0.756285 0.058752 0
1005 1 0.750288 0.0837532 0
979 1 0.803758 0.0460818 0
1007 1 0.773497 0.0765183 0
977 1 0.780124 0.0529584 0
978 1 0.797781 0.0701189 0
1009 1 0.815722 0.0874932 0
980 1 0.822205 0.0634014 0
981 1 0.846328 0.0571106 0
1011 1 0.839897 0.0813787 0
982 1 0.863774 0.0746182 0
983 1 0.869879 0.0493974 0
984 1 0.888279 0.0684626 0
1015 1 0.905226 0.0866085 0
985 1 0.913231 0.0627208 0
986 1 0.929324 0.0798609 0
987 1 0.936742 0.0560325 0
988 1 0.954022 0.0750531 0
958 1 0.960201 0.0491341 0
989 1 0.978324 0.0683688 0
990 1 0.995718 0.0862153 0
991 1 0.514418 0.108214 0
992 1 0.5211 0.134601 0
993 1 0.537946 0.115229 0
964 1 0.556212 0.0980233 0
994 1 0.562895 0.122321 0
995 1 0.580186 0.104719 0
996 1 0.58693 0.128242 0
997 1 0.604362 0.109004 0
1027 1 0.610048 0.134569 0
998 1 0.628275 0.116215 0
1000 1 0.645182 0.0980659 0
1001 1 0.676218 0.104194 0
1030 1 0.651552 0.12184 0
1032 1 0.674118 0.130183 0
1031 1 0.696429 0.120878 0
1002 1 0.702241 0.0967711 0
1033 1 0.720215 0.113849 0
1035 1 0.743677 0.107894 0
1006 1 0.768088 0.101218 0
1036 1 0.761513 0.125086 0
1034 1 0.736765 0.132469 0
1008 1 0.792786 0.0954186 0
1037 1 0.785079 0.118991 0
1039 1 0.81037 0.1128 0
1040 1 0.827676 0.13058 0
1010 1 0.833803 0.105128 0
1012 1 0.858074 0.0978784 0
1041 1 0.850973 0.122879 0
1043 1 0.875784 0.116707 0
1013 1 0.881502 0.0921493 0
1014 1 0.89922 0.110452 0
1044 1 0.89351 0.135528 0
1016 1 0.917136 0.129541 0
1017 1 0.923328 0.104666 0
1018 1 0.947533 0.098499 0
1047 1 0.940908 0.123464 0
1019 1 0.972334 0.0929964 0
1020 1 0.988492 0.111405 0
1049 1 0.964907 0.117325 0
1050 1 0.982722 0.135568 0
1023 1 0.545195 0.14036 0
1021 1 0.504578 0.153783 0
1022 1 0.528151 0.158917 0
1051 1 0.510635 0.17776 0
1025 1 0.569262 0.147274 0
1024 1 0.552476 0.164989 0
1055 1 0.576904 0.170929 0
1029 1 0.633897 0.140113 0
1026 1 0.593089 0.152587 0
1028 1 0.617408 0.158953 0
1057 1 0.600695 0.177385 0
1058 1 0.640724 0.1656 0
1059 1 0.658096 0.148232 0
1060 1 0.665637 0.171481 0
1063 1 0.713088 0.138519 0
1061 1 0.683464 0.154491 0
1062 1 0.707683 0.162704 0
1091 1 0.690585 0.180932 0
1064 1 0.73204 0.157498 0
1065 1 0.755169 0.149713 0
1095 1 0.750112 0.173508 0
1038 1 0.803545 0.136183 0
1066 1 0.774109 0.16724 0
1067 1 0.779742 0.143733 0
1068 1 0.797339 0.160508 0
1099 1 0.814667 0.178288 0
1069 1 0.821307 0.154157 0
1071 1 0.845182 0.147589 0
1070 1 0.838088 0.172424 0
1072 1 0.863185 0.165239 0
1042 1 0.869794 0.141919 0
1073 1 0.886846 0.159924 0
1074 1 0.904602 0.178945 0
1045 1 0.911336 0.153889 0
1075 1 0.928518 0.172837 0
1046 1 0.934513 0.147899 0
1077 1 0.951731 0.165451 0
1048 1 0.959228 0.141046 0
1079 1 0.976019 0.159509 0
1080 1 0.993517 0.1778 0
1053 1 0.534834 0.182683 0
1052 1 0.518144 0.20122 0
1082 1 0.523965 0.225767 0
1083 1 0.5412 0.20708 0
1349 1 0.963069 0.46789 0
1054 1 0.558842 0.188863 0
1085 1 0.565012 0.214352 0
1056 1 0.583072 0.196517 0
1115 1 0.589479 0.22067 0
1086 1 0.607198 0.202309 0
1087 1 0.62431 0.183945 0
1088 1 0.630488 0.20925 0
1117 1 0.613184 0.227863 0
1089 1 0.648118 0.189953 0
1090 1 0.672965 0.197427 0
1119 1 0.654255 0.216179 0
1121 1 0.678565 0.221436 0
1093 1 0.715454 0.186564 0
1092 1 0.697501 0.205796 0
1123 1 0.720428 0.212392 0
1094 1 0.738053 0.194428 0
1096 1 0.763435 0.196231 0
1125 1 0.745149 0.217995 0
1126 1 0.76856 0.225731 0
1097 1 0.791256 0.184825 0
1127 1 0.785158 0.20852 0
1098 1 0.808827 0.201947 0
1129 1 0.826293 0.220031 0
1100 1 0.832134 0.196015 0
1101 1 0.856007 0.189664 0
1131 1 0.849703 0.21312 0
1102 1 0.873315 0.208197 0
1103 1 0.879968 0.184455 0
1104 1 0.897449 0.202769 0
1135 1 0.938346 0.216205 0
1105 1 0.920854 0.197674 0
1076 1 0.945465 0.191572 0
1107 1 0.962509 0.209012 0
1078 1 0.969609 0.184696 0
1109 1 0.986961 0.202134 0
1110 1 0.996818 0.224497 0
1111 1 0.506096 0.244066 0
1113 1 0.528852 0.250247 0
1112 1 0.512073 0.268648 0
1084 1 0.547867 0.231817 0
1143 1 0.553689 0.25655 0
1114 1 0.572436 0.238053 0
1145 1 0.578653 0.263665 0
1116 1 0.595561 0.245575 0
1147 1 0.619927 0.252653 0
1146 1 0.602269 0.269384 0
1118 1 0.636334 0.234435 0
1149 1 0.64346 0.258399 0
1120 1 0.661403 0.239657 0
1150 1 0.667719 0.266243 0
1151 1 0.684827 0.24858 0
1122 1 0.701805 0.230425 0
1153 1 0.708332 0.255354 0
1152 1 0.691565 0.272433 0
1124 1 0.728635 0.236653 0
1154 1 0.733537 0.260782 0
1155 1 0.750821 0.242708 0
1156 1 0.757637 0.267659 0
1157 1 0.775555 0.249864 0
1128 1 0.793896 0.232746 0
1158 1 0.799445 0.257223 0
1159 1 0.817633 0.241862 0
1160 1 0.825236 0.264783 0
1130 1 0.843039 0.244924 0
1191 1 0.84948 0.271793 0
1133 1 0.889408 0.229609 0
1132 1 0.864913 0.23194 0
1161 1 0.867947 0.256168 0
1163 1 0.89225 0.259899 0