ITEM: TIMESTEP
55000
ITEM: NUMBER OF ATOMS
1800
ITEM: BOX BOUNDS pp pp pp
2.7044688449947785e-01 1.6472955311550243e+02
2.2574063463985681e+00 1.6274259365360402e+02
0.0000000000000000e+00 5.5000000000000000e+00
ITEM: ATOMS id type xs ys zs
2 1 0.014304 0.0120273 0
3 1 0.0384469 0.00599361 0
31 1 0.00825227 0.036801 0
33 1 0.03186 0.0299449 0
4 1 0.0565535 0.0231895 0
6 1 0.0799942 0.0176474 0
35 1 0.0738448 0.0420287 0
8 1 0.104332 0.0113998 0
37 1 0.0975251 0.0362872 0
39 1 0.121567 0.0291422 0
880 1 0.127765 0.00429101 0
9 1 0.146868 0.0224081 0
10 1 0.170496 0.0162188 0
40 1 0.164059 0.0404307 0
41 1 0.187787 0.0346679 0
12 1 0.195088 0.00976356 0
14 1 0.212137 0.0294483 0
13 1 0.218159 0.0036999 0
15 1 0.23579 0.0227867 0
16 1 0.259568 0.0171227 0
46 1 0.254417 0.0405742 0
47 1 0.278186 0.0335919 0
18 1 0.28262 0.00982275 0
49 1 0.313741 0.035384 0
19 1 0.305725 0.0121401 0
20 1 0.329558 0.0178973 0
21 1 0.354119 0.0235163 0
51 1 0.337628 0.0418099 0
23 1 0.378078 0.0285762 0
894 1 0.394909 0.0112119 0
24 1 0.40354 0.034836 0
892 1 0.37152 0.00528509 0
25 1 0.420229 0.0170796 0
27 1 0.443749 0.0219457 0
26 1 0.427262 0.0401822 0
29 1 0.467936 0.0283397 0
900 1 0.484952 0.0102499 0
30 1 0.493598 0.0345229 0
898 1 0.46037 0.00436391 0
32 1 0.0260725 0.055215 0
62 1 0.0199433 0.0793277 0
63 1 0.0431535 0.0735036 0
450 1 0.496836 0.471265 0
34 1 0.0499489 0.0483912 0
65 1 0.0668367 0.0667117 0
66 1 0.0838591 0.0848238 0
36 1 0.091085 0.0606493 0
38 1 0.115548 0.0541887 0
67 1 0.107826 0.0780282 0
68 1 0.133366 0.071191 0
69 1 0.13936 0.0466727 0
71 1 0.155943 0.0654041 0
72 1 0.173915 0.0823606 0
70 1 0.150328 0.0893255 0
42 1 0.181339 0.0586625 0
43 1 0.205442 0.0526343 0
73 1 0.198806 0.0769164 0
44 1 0.223178 0.0715498 0
45 1 0.230131 0.0473965 0
75 1 0.24732 0.0650756 0
76 1 0.266418 0.0836009 0
77 1 0.271474 0.0593053 0
74 1 0.240415 0.0899235 0
48 1 0.295936 0.0522798 0
79 1 0.303039 0.0768911 0
22 1 0.362047 0.0477832 0
50 1 0.320451 0.0589245 0
81 1 0.328184 0.0834653 0
52 1 0.345184 0.0657363 0
82 1 0.352428 0.0896385 0
53 1 0.386751 0.0536933 0
83 1 0.3691 0.0714948 0
54 1 0.393742 0.0788503 0
28 1 0.452004 0.0463796 0
55 1 0.411046 0.0591272 0
57 1 0.434251 0.0654659 0
56 1 0.417179 0.0845325 0
87 1 0.440281 0.0896764 0
59 1 0.476111 0.0526581 0
58 1 0.457978 0.0711063 0
89 1 0.483609 0.0785016 0
92 1 0.0289807 0.123205 0
93 1 0.0361477 0.0983214 0
91 1 0.0126683 0.104869 0
121 1 0.0059967 0.130378 0
64 1 0.0599072 0.0918191 0
94 1 0.0533388 0.116452 0
95 1 0.0766771 0.109908 0
125 1 0.0709011 0.134373 0
96 1 0.0954823 0.127136 0
97 1 0.10158 0.103191 0
98 1 0.118845 0.119837 0
99 1 0.125484 0.0957371 0
100 1 0.142921 0.113684 0
101 1 0.16765 0.107929 0
130 1 0.160218 0.131954 0
103 1 0.190602 0.1007 0
102 1 0.185068 0.126206 0
105 1 0.215647 0.0951014 0
104 1 0.209048 0.120745 0
106 1 0.232445 0.113143 0
137 1 0.250388 0.130647 0
107 1 0.268093 0.111567 0
78 1 0.287026 0.0953744 0
109 1 0.29459 0.119031 0
80 1 0.311126 0.100725 0
110 1 0.31819 0.126064 0
111 1 0.334829 0.107748 0
141 1 0.342988 0.13218 0
113 1 0.358559 0.114002 0
84 1 0.375409 0.0961478 0
112 1 0.382774 0.120222 0
85 1 0.399687 0.103243 0
115 1 0.407117 0.127191 0
86 1 0.424176 0.108534 0
116 1 0.431675 0.133428 0
117 1 0.448548 0.114076 0
120 1 0.497419 0.126835 0
88 1 0.465804 0.0956781 0
119 1 0.472702 0.119938 0
90 1 0.489281 0.102447 0
122 1 0.0234771 0.148369 0
152 1 0.0170028 0.173464 0
153 1 0.0407984 0.166123 0
123 1 0.0473079 0.141475 0
124 1 0.0654406 0.159406 0
155 1 0.081866 0.177847 0
126 1 0.0891045 0.151753 0
127 1 0.112424 0.145032 0
128 1 0.130683 0.161629 0
157 1 0.107716 0.169441 0
129 1 0.136929 0.137823 0
159 1 0.156647 0.164408 0
131 1 0.177598 0.149525 0
132 1 0.179446 0.173723 0
133 1 0.201861 0.145631 0
134 1 0.22054 0.162647 0
135 1 0.22728 0.138739 0
163 1 0.20435 0.180033 0
136 1 0.259527 0.153879 0
165 1 0.243661 0.171292 0
167 1 0.266564 0.177902 0
108 1 0.277067 0.134962 0
139 1 0.300486 0.143013 0
138 1 0.28408 0.159801 0
169 1 0.307763 0.166754 0
140 1 0.325172 0.149461 0
142 1 0.349226 0.156311 0
171 1 0.332819 0.1741 0
172 1 0.355754 0.181231 0
143 1 0.366448 0.138888 0
114 1 0.390406 0.144385 0
144 1 0.39739 0.168985 0
173 1 0.372799 0.163336 0
145 1 0.414436 0.15026 0
146 1 0.42143 0.175497 0
147 1 0.438355 0.158082 0
177 1 0.445707 0.181792 0
118 1 0.455577 0.139841 0
149 1 0.480544 0.145419 0
148 1 0.462411 0.163953 0
150 1 0.486991 0.169138 0
183 1 0.0337852 0.191133 0
182 1 0.0391821 0.215173 0
181 1 0.0106868 0.201559 0
154 1 0.0579444 0.183967 0
184 1 0.0625279 0.223423 0
185 1 0.0802328 0.206219 0
186 1 0.104355 0.217538 0
156 1 0.100727 0.192438 0
158 1 0.122905 0.201271 0
187 1 0.127325 0.225716 0
160 1 0.140233 0.183886 0
161 1 0.163096 0.190715 0
189 1 0.145743 0.2091 0
191 1 0.168835 0.215844 0
162 1 0.186505 0.198713 0
193 1 0.209209 0.206341 0
192 1 0.192259 0.223574 0
164 1 0.227052 0.188541 0
195 1 0.233202 0.21276 0
166 1 0.250644 0.196426 0
196 1 0.256313 0.22158 0
168 1 0.290542 0.184425 0
197 1 0.274617 0.202604 0
199 1 0.29796 0.209505 0
170 1 0.314205 0.190731 0
201 1 0.33807 0.199026 0
200 1 0.321054 0.216653 0
202 1 0.344719 0.223581 0
203 1 0.362491 0.204847 0
174 1 0.379773 0.186672 0
204 1 0.386219 0.210769 0
175 1 0.403512 0.193134 0
205 1 0.410306 0.217023 0
176 1 0.427889 0.199516 0
207 1 0.434046 0.224387 0
178 1 0.451209 0.206766 0
179 1 0.469649 0.188446 0
209 1 0.474405 0.21232 0
180 1 0.49296 0.194981 0
448 1 0.454952 0.482264 0
212 1 0.0261969 0.258268 0
211 1 0.020346 0.232916 0
1140 1 0.00150931 0.249934 0
213 1 0.0434285 0.241164 0
243 1 0.0494382 0.267314 0
215 1 0.0849974 0.232925 0
214 1 0.0675567 0.248876 0
216 1 0.0902418 0.257908 0
217 1 0.109281 0.24202 0
218 1 0.114484 0.266126 0
188 1 0.132211 0.25031 0
190 1 0.150122 0.233667 0
221 1 0.174257 0.240092 0
220 1 0.156935 0.25742 0
222 1 0.180426 0.265409 0
219 1 0.138796 0.274934 0
194 1 0.215167 0.230201 0
223 1 0.198196 0.247946 0
224 1 0.221906 0.2556 0
225 1 0.237717 0.237295 0
227 1 0.263595 0.245106 0
226 1 0.244863 0.263312 0
257 1 0.268347 0.270189 0
198 1 0.280468 0.227458 0
229 1 0.303871 0.23503 0
228 1 0.28711 0.252918 0
230 1 0.310599 0.258875 0
231 1 0.327451 0.24145 0
232 1 0.351705 0.247463 0
261 1 0.334649 0.26529 0
233 1 0.36831 0.228891 0
235 1 0.393152 0.235687 0
234 1 0.37542 0.253528 0
265 1 0.399548 0.26084 0
206 1 0.416951 0.242314 0
237 1 0.440633 0.248755 0
236 1 0.423097 0.2675 0
208 1 0.458209 0.231222 0
210 1 0.481623 0.23667 0
239 1 0.463995 0.255406 0
240 1 0.488741 0.262208 0
241 1 0.00684938 0.275368 0
242 1 0.0311685 0.282859 0
271 1 0.0129575 0.300136 0
273 1 0.036701 0.308007 0
245 1 0.0718801 0.275124 0
244 1 0.0549653 0.29247 0
246 1 0.0783883 0.300317 0
275 1 0.0609522 0.317246 0
247 1 0.0954928 0.283465 0
249 1 0.119561 0.291709 0
248 1 0.102016 0.308432 0
279 1 0.126211 0.316077 0
251 1 0.161953 0.281467 0
250 1 0.143939 0.299623 0
281 1 0.168202 0.306578 0
253 1 0.203691 0.271891 0
252 1 0.186145 0.289675 0
254 1 0.209576 0.296789 0
283 1 0.192481 0.314664 0
255 1 0.226733 0.279778 0
256 1 0.250648 0.286759 0
285 1 0.233756 0.305165 0
287 1 0.257221 0.311062 0
259 1 0.293904 0.2759 0
258 1 0.274976 0.293854 0
289 1 0.299429 0.300979 0
260 1 0.316965 0.282715 0
263 1 0.358159 0.271756 0
262 1 0.341553 0.289547 0
291 1 0.322628 0.308526 0
292 1 0.346549 0.315193 0
264 1 0.38249 0.278176 0
293 1 0.365204 0.296074 0
295 1 0.388998 0.303957 0
266 1 0.406129 0.285847 0
238 1 0.446875 0.274305 0
267 1 0.429648 0.292117 0
297 1 0.411751 0.310869 0
298 1 0.4361 0.317047 0
268 1 0.452809 0.29924 0
269 1 0.4709 0.28009 0
270 1 0.477833 0.304401 0
1141 1 0.495375 0.287668 0
1200 1 0.0182678 0.325181 0
272 1 0.0424593 0.333106 0
301 1 0.0243634 0.350512 0
303 1 0.0473534 0.358367 0
276 1 0.0844226 0.325556 0
274 1 0.0656456 0.342273 0
305 1 0.0892463 0.350061 0
277 1 0.107784 0.332579 0
307 1 0.113298 0.358052 0
278 1 0.13161 0.34131 0
280 1 0.14999 0.324886 0
282 1 0.174769 0.331402 0
311 1 0.155846 0.349932 0
312 1 0.181093 0.356577 0
284 1 0.215613 0.32263 0
313 1 0.19779 0.33914 0
315 1 0.222581 0.347545 0
314 1 0.204169 0.364448 0
286 1 0.238978 0.329231 0
317 1 0.26338 0.336217 0
316 1 0.246183 0.354095 0
318 1 0.270308 0.361731 0
288 1 0.280845 0.317925 0
290 1 0.304864 0.325458 0
319 1 0.286583 0.343192 0
320 1 0.310789 0.349869 0
321 1 0.328507 0.3328 0
323 1 0.353242 0.33947 0
322 1 0.334798 0.357091 0
294 1 0.370938 0.32192 0
296 1 0.394377 0.329333 0
325 1 0.376555 0.346102 0
326 1 0.400477 0.352927 0
327 1 0.418654 0.33533 0
328 1 0.423549 0.36031 0
329 1 0.442674 0.341108 0
299 1 0.460894 0.322894 0
359 1 0.466373 0.3485 0
330 1 0.484065 0.329271 0
360 1 0.489988 0.354664 0
1230 1 0.00580629 0.366055 0
302 1 0.0296449 0.374664 0
332 1 0.0361677 0.398716 0
331 1 0.0116343 0.390893 0
304 1 0.0726864 0.367132 0
333 1 0.0545064 0.383096 0
335 1 0.0777008 0.392338 0
334 1 0.0593808 0.408484 0
306 1 0.0963371 0.374851 0
308 1 0.119958 0.382458 0
337 1 0.102221 0.399806 0
338 1 0.126035 0.407791 0
309 1 0.138337 0.365687 0
310 1 0.162273 0.373734 0
339 1 0.143662 0.389959 0
341 1 0.168518 0.398558 0
343 1 0.185619 0.381301 0
342 1 0.192252 0.405472 0
344 1 0.210016 0.388756 0
345 1 0.228569 0.371883 0
347 1 0.252085 0.377544 0
346 1 0.233738 0.396675 0
377 1 0.258225 0.403281 0
349 1 0.293944 0.367892 0
348 1 0.275944 0.385838 0
350 1 0.299751 0.393709 0
351 1 0.316885 0.374497 0
324 1 0.358089 0.36392 0
381 1 0.322828 0.399055 0
353 1 0.340884 0.382407 0
352 1 0.346454 0.406531 0
355 1 0.381937 0.370976 0
354 1 0.364246 0.388477 0
356 1 0.388333 0.395839 0
357 1 0.405695 0.377941 0
387 1 0.430058 0.384859 0
358 1 0.446609 0.366881 0
386 1 0.412201 0.402256 0
388 1 0.436347 0.40968 0
389 1 0.454365 0.392166 0
1232 1 0.471138 0.37381 0
1262 1 0.495887 0.379443 0
1261 1 0.478116 0.397979 0
361 1 0.0179398 0.416487 0
362 1 0.0239941 0.441443 0
363 1 0.0419049 0.424882 0
420 1 0.473079 0.464947 0
336 1 0.0828313 0.416418 0
364 1 0.0471664 0.450048 0
365 1 0.0651945 0.432937 0
366 1 0.0899035 0.441683 0
367 1 0.107382 0.424447 0
368 1 0.113496 0.448502 0
369 1 0.132262 0.43256 0
340 1 0.150407 0.415492 0
371 1 0.174783 0.422814 0
370 1 0.156792 0.440687 0
401 1 0.180207 0.448229 0
373 1 0.215734 0.413307 0
372 1 0.198798 0.431786 0
374 1 0.222317 0.438372 0
375 1 0.239745 0.421443 0
376 1 0.263615 0.428068 0
405 1 0.245524 0.445804 0
407 1 0.26998 0.452932 0
378 1 0.282161 0.409979 0
379 1 0.305969 0.417479 0
409 1 0.288222 0.434792 0
380 1 0.311774 0.442156 0
382 1 0.329374 0.424124 0
413 1 0.336175 0.44906 0
383 1 0.352527 0.431083 0
385 1 0.370362 0.414169 0
414 1 0.376669 0.438104 0
384 1 0.394724 0.42026 0
415 1 0.400873 0.444589 0
417 1 0.417671 0.427041 0
418 1 0.441863 0.433718 0
416 1 0.424975 0.451271 0
419 1 0.460487 0.416188 0
390 1 0.466502 0.440204 0
1291 1 0.48478 0.422153 0
1321 1 0.491358 0.446817 0
392 1 0.00588803 0.458911 0
393 1 0.029225 0.467364 0
422 1 0.0113587 0.48376 0
423 1 0.0355003 0.491654 0
395 1 0.0712458 0.457887 0
394 1 0.0536693 0.475386 0
396 1 0.0779657 0.482804 0
425 1 0.0593925 0.499277 0
397 1 0.0954391 0.465658 0
398 1 0.119021 0.472831 0
427 1 0.101626 0.490203 0
428 1 0.125097 0.497155 0
399 1 0.137553 0.457016 0
400 1 0.162965 0.464636 0
429 1 0.143957 0.481154 0
431 1 0.168423 0.488199 0
403 1 0.204823 0.455866 0
402 1 0.18636 0.471659 0
432 1 0.192354 0.49739 0
433 1 0.210288 0.480661 0
404 1 0.228713 0.463666 0
406 1 0.25303 0.470253 0
435 1 0.235343 0.48857 0
436 1 0.259018 0.495522 0
410 1 0.293989 0.460469 0
408 1 0.275951 0.478423 0
441 1 0.300639 0.48467 0
411 1 0.318292 0.466749 0
412 1 0.359514 0.455825 0
442 1 0.342698 0.474012 0
440 1 0.324245 0.491666 0
473 1 0.365897 0.480872 0
443 1 0.382844 0.462358 0
444 1 0.389602 0.487607 0
445 1 0.407782 0.470029 0
475 1 0.41451 0.494102 0
447 1 0.449059 0.458155 0
446 1 0.431929 0.475712 0
449 1 0.479639 0.489021 0
61 1 0.0022018 0.0624774 0
1229 1 0.000677039 0.341885 0
60 1 0.500993 0.0597783 0
1081 1 0.499752 0.219677 0
151 1 -0.000794442 0.154484 0
454 1 0.0230933 0.533478 0
453 1 0.017166 0.508603 0
424 1 0.0404655 0.516147 0
1771 1 0.494482 0.968432 0
485 1 0.0465948 0.541214 0
455 1 0.0641095 0.523502 0
426 1 0.0825038 0.507425 0
456 1 0.0887578 0.532534 0
457 1 0.106529 0.513865 0
458 1 0.112636 0.538977 0
459 1 0.130439 0.520813 0
489 1 0.135904 0.546063 0
460 1 0.154193 0.529893 0
461 1 0.17401 0.51284 0
430 1 0.150077 0.504982 0
462 1 0.17803 0.53839 0
434 1 0.216352 0.50505 0
463 1 0.197738 0.522755 0
464 1 0.221773 0.529113 0
466 1 0.245875 0.53736 0
465 1 0.240343 0.512481 0
437 1 0.264414 0.520494 0
467 1 0.291025 0.529399 0
438 1 0.307333 0.511019 0
468 1 0.315016 0.536135 0
439 1 0.282759 0.503323 0
469 1 0.330024 0.517441 0
470 1 0.35522 0.524442 0
499 1 0.337801 0.542512 0
870 1 0.470016 0.962472 0
472 1 0.372163 0.505415 0
503 1 0.378019 0.530776 0
474 1 0.396254 0.51244 0
505 1 0.403459 0.537506 0
476 1 0.420366 0.519869 0
477 1 0.438233 0.501069 0
507 1 0.444535 0.526168 0
506 1 0.42683 0.544105 0
478 1 0.462261 0.507139 0
480 1 0.468213 0.531829 0
479 1 0.486322 0.513243 0
510 1 0.492271 0.53723 0
483 1 0.00493474 0.549913 0
513 1 0.0277299 0.558037 0
514 1 0.0331685 0.583276 0
482 1 0.00967696 0.574901 0
486 1 0.0702858 0.549087 0
484 1 0.0512834 0.565729 0
515 1 0.0754222 0.574602 0
487 1 0.0932656 0.556996 0
488 1 0.116812 0.564154 0
517 1 0.100152 0.582213 0
519 1 0.12364 0.588737 0
491 1 0.159503 0.554451 0
490 1 0.141181 0.569974 0
521 1 0.16581 0.578263 0
493 1 0.203654 0.547002 0
492 1 0.183661 0.562003 0
523 1 0.189921 0.586147 0
494 1 0.209555 0.571073 0
495 1 0.227996 0.554756 0
496 1 0.253109 0.562342 0
525 1 0.234055 0.579239 0
497 1 0.271009 0.544836 0
526 1 0.257594 0.589124 0
527 1 0.275389 0.572158 0
498 1 0.295869 0.553726 0
529 1 0.300518 0.578725 0
500 1 0.320071 0.560676 0
501 1 0.360554 0.550468 0
531 1 0.342975 0.568941 0
530 1 0.324731 0.58621 0
533 1 0.368601 0.573484 0
502 1 0.385763 0.555836 0
534 1 0.392847 0.580744 0
504 1 0.410005 0.56187 0
508 1 0.434734 0.568967 0
509 1 0.451199 0.550197 0
535 1 0.416887 0.586445 0
539 1 0.459531 0.574191 0
540 1 0.476258 0.555933 0
569 1 0.482928 0.581361 0
512 1 0.014638 0.599348 0
542 1 0.0204192 0.623938 0
543 1 0.0392399 0.60758 0
544 1 0.0429993 0.631752 0
545 1 0.0577954 0.591237 0
516 1 0.0819288 0.600338 0
546 1 0.0629742 0.616241 0
547 1 0.086304 0.625521 0
518 1 0.105443 0.608223 0
548 1 0.128291 0.615919 0
577 1 0.110368 0.63606 0
520 1 0.146852 0.593857 0
522 1 0.17044 0.602647 0
549 1 0.152003 0.61857 0
551 1 0.175607 0.626816 0
524 1 0.215205 0.59588 0
553 1 0.195285 0.61092 0
554 1 0.218058 0.620541 0
555 1 0.237897 0.605216 0
556 1 0.240857 0.630433 0
557 1 0.262013 0.614777 0
528 1 0.282824 0.597763 0
559 1 0.307559 0.603782 0
558 1 0.285814 0.625191 0
560 1 0.313616 0.629117 0
561 1 0.333215 0.610146 0
532 1 0.351161 0.592496 0
562 1 0.359763 0.616255 0
591 1 0.3413 0.634376 0
563 1 0.375759 0.598232 0
565 1 0.383207 0.62294 0
536 1 0.400675 0.605064 0
566 1 0.406972 0.629016 0
537 1 0.441962 0.592828 0
567 1 0.424377 0.611868 0
568 1 0.449959 0.617005 0
538 1 0.465805 0.598954 0
570 1 0.490275 0.605294 0
600 1 0.473569 0.623149 0
1501 1 0.497177 0.630124 0
571 1 0.00062788 0.63973 0
573 1 0.024411 0.647705 0
603 1 0.027834 0.672906 0
572 1 0.00644256 0.663915 0
574 1 0.0471413 0.657368 0
604 1 0.0507444 0.681854 0
575 1 0.0673094 0.641515 0
605 1 0.0702552 0.666201 0
576 1 0.0902487 0.651631 0
607 1 0.092654 0.677383 0
578 1 0.113096 0.663531 0
579 1 0.13263 0.650082 0
609 1 0.134239 0.676457 0
550 1 0.156551 0.641649 0
581 1 0.17818 0.651462 0
580 1 0.156865 0.665665 0
611 1 0.179407 0.676379 0
552 1 0.197533 0.636888 0
583 1 0.220372 0.645885 0
582 1 0.199746 0.661143 0
584 1 0.222018 0.670562 0
587 1 0.263827 0.641131 0
585 1 0.24283 0.656839 0
586 1 0.265578 0.666471 0
615 1 0.2439 0.681913 0
589 1 0.286062 0.651609 0
588 1 0.285876 0.679447 0
590 1 0.306439 0.666975 0
593 1 0.348637 0.659855 0
621 1 0.32515 0.651685 0
622 1 0.330938 0.676902 0
564 1 0.365544 0.641682 0
594 1 0.373528 0.666769 0
595 1 0.390014 0.64772 0
625 1 0.397652 0.672072 0
596 1 0.415923 0.654718 0
597 1 0.432447 0.636353 0
598 1 0.43959 0.660956 0
627 1 0.421605 0.678879 0
599 1 0.456547 0.641382 0
629 1 0.480013 0.647938 0
628 1 0.463948 0.666075 0
630 1 0.489065 0.672033 0
632 1 0.00145152 0.717401 0
633 1 0.0297311 0.697962 0
634 1 0.0271184 0.72251 0
602 1 0.00514699 0.692178 0
635 1 0.0514307 0.706518 0
606 1 0.0724886 0.691666 0
636 1 0.0733577 0.717117 0
637 1 0.0955043 0.704199 0
608 1 0.114396 0.689953 0
638 1 0.116353 0.715457 0
639 1 0.136263 0.701414 0
610 1 0.157461 0.690159 0
641 1 0.158919 0.71476 0
612 1 0.18014 0.701223 0
642 1 0.181076 0.725601 0
613 1 0.201043 0.687585 0
614 1 0.223738 0.696097 0
643 1 0.202184 0.712321 0
645 1 0.225262 0.721954 0
617 1 0.26584 0.692471 0
616 1 0.245401 0.707477 0
647 1 0.267047 0.718633 0
619 1 0.309225 0.692333 0
618 1 0.287903 0.705238 0
620 1 0.308484 0.716726 0
592 1 0.355154 0.685126 0
653 1 0.334783 0.701902 0
651 1 0.329136 0.725757 0
623 1 0.380797 0.691199 0
624 1 0.362818 0.710523 0
626 1 0.404734 0.698639 0
655 1 0.388429 0.717882 0
657 1 0.447468 0.684476 0
656 1 0.430125 0.702809 0
686 1 0.413317 0.723346 0
658 1 0.454138 0.709021 0
659 1 0.472058 0.690488 0
660 1 0.479072 0.716133 0
1531 1 0.495806 0.696828 0
662 1 0.0113205 0.760678 0
664 1 0.0314593 0.746726 0
665 1 0.0524384 0.730011 0
666 1 0.075652 0.742709 0
695 1 0.0543471 0.755263 0
697 1 0.0762952 0.768012 0
667 1 0.0957496 0.729577 0
668 1 0.0974495 0.755138 0
669 1 0.118202 0.741721 0
699 1 0.119162 0.76755 0
640 1 0.138073 0.726899 0
670 1 0.139559 0.753452 0
671 1 0.159726 0.739269 0
672 1 0.161706 0.765159 0
673 1 0.18218 0.750665 0
644 1 0.202314 0.737219 0
674 1 0.203928 0.762995 0
675 1 0.225574 0.747506 0
646 1 0.246694 0.733363 0
677 1 0.247043 0.759284 0
648 1 0.268781 0.745403 0
678 1 0.269535 0.770747 0
649 1 0.288974 0.731475 0
650 1 0.312098 0.743288 0
679 1 0.291453 0.757546 0
681 1 0.315325 0.768479 0
652 1 0.334103 0.752172 0
683 1 0.359037 0.756428 0
654 1 0.351623 0.733177 0
685 1 0.375225 0.737746 0
715 1 0.399295 0.743267 0
684 1 0.383105 0.76114 0
714 1 0.407572 0.767493 0
687 1 0.437652 0.728227 0
717 1 0.422731 0.747539 0
688 1 0.447102 0.752184 0
689 1 0.462468 0.73429 0
690 1 0.487398 0.740197 0
719 1 0.470944 0.758186 0
1591 1 0.494572 0.765068 0
694 1 0.0297316 0.779444 0
693 1 0.00544257 0.786016 0
723 1 0.0231187 0.804695 0
725 1 0.0461683 0.801548 0
696 1 0.0550208 0.778032 0
727 1 0.0766893 0.793248 0
726 1 0.0649512 0.816757 0
728 1 0.0970579 0.809833 0
698 1 0.0976002 0.7813 0
700 1 0.119161 0.793002 0
701 1 0.140993 0.779655 0
731 1 0.141214 0.805428 0
702 1 0.16236 0.791741 0
732 1 0.163574 0.817104 0
703 1 0.182919 0.776785 0
705 1 0.226236 0.773417 0
733 1 0.185232 0.802214 0
704 1 0.20572 0.787742 0
735 1 0.206879 0.812982 0
706 1 0.226763 0.79943 0
676 1 0.248517 0.784901 0
737 1 0.249845 0.810405 0
707 1 0.268996 0.796109 0
709 1 0.293222 0.782549 0
708 1 0.289702 0.806992 0
710 1 0.312281 0.8138 0
680 1 0.325494 0.792997 0
682 1 0.341969 0.775332 0
711 1 0.350102 0.798397 0
713 1 0.367432 0.780577 0
712 1 0.374966 0.804659 0
743 1 0.391078 0.785619 0
745 1 0.399799 0.809637 0
716 1 0.430973 0.772246 0
747 1 0.440168 0.796687 0
746 1 0.415581 0.791061 0
775 1 0.422746 0.815883 0
718 1 0.455419 0.776496 0
720 1 0.478555 0.784571 0
749 1 0.46405 0.802951 0
1621 1 0.487581 0.80947 0
751 1 0.0165735 0.830082 0
752 1 0.0105797 0.854319 0
753 1 0.0349818 0.849061 0
722 1 0.0407465 0.824595 0
724 1 0.0603179 0.841442 0
755 1 0.0770398 0.858725 0
757 1 0.084147 0.833187 0
729 1 0.120441 0.817739 0
756 1 0.101129 0.852142 0
759 1 0.123078 0.843745 0
730 1 0.143389 0.830926 0
761 1 0.164746 0.843024 0
760 1 0.143716 0.859999 0
763 1 0.18568 0.826938 0
762 1 0.187637 0.852625 0
734 1 0.209359 0.838853 0
736 1 0.228431 0.825219 0
765 1 0.231739 0.85082 0
738 1 0.271556 0.822473 0
767 1 0.251268 0.835757 0
766 1 0.256027 0.859303 0
768 1 0.276442 0.848429 0
739 1 0.2941 0.831666 0
769 1 0.299714 0.856114 0
740 1 0.317137 0.838378 0
741 1 0.335554 0.817762 0
742 1 0.358949 0.824141 0
771 1 0.341858 0.842283 0
770 1 0.325929 0.861866 0
773 1 0.366388 0.848316 0
744 1 0.38333 0.830466 0
803 1 0.390369 0.85399 0
774 1 0.407677 0.835106 0
748 1 0.44677 0.820875 0
777 1 0.430788 0.840536 0
776 1 0.414365 0.860027 0
779 1 0.45428 0.845735 0
1651 1 0.496075 0.834424 0
750 1 0.471649 0.828397 0
780 1 0.479617 0.852036 0
783 1 0.0287853 0.872024 0
782 1 0.00500013 0.878217 0
813 1 0.0221567 0.897238 0
784 1 0.0466453 0.889671 0
754 1 0.0533743 0.865896 0
785 1 0.0717316 0.883668 0
786 1 0.0892164 0.901019 0
815 1 0.0651717 0.908588 0
758 1 0.120119 0.868881 0
787 1 0.0960323 0.876387 0
788 1 0.113285 0.894515 0
789 1 0.136969 0.886818 0
791 1 0.160523 0.879791 0
823 1 0.179028 0.900638 0
790 1 0.155379 0.905413 0
764 1 0.210769 0.864964 0
792 1 0.18548 0.877036 0
793 1 0.203089 0.894069 0
795 1 0.227614 0.885375 0
796 1 0.251282 0.883902 0
827 1 0.268157 0.901994 0
825 1 0.243739 0.907315 0
797 1 0.279607 0.874656 0
799 1 0.307991 0.880153 0
798 1 0.292037 0.898269 0
829 1 0.315645 0.903258 0
800 1 0.332904 0.885728 0
801 1 0.349703 0.866224 0
802 1 0.356363 0.890777 0
772 1 0.373894 0.872755 0
805 1 0.397475 0.878237 0
804 1 0.380523 0.897297 0
806 1 0.405485 0.901602 0
778 1 0.438041 0.865397 0
807 1 0.42168 0.88385 0
808 1 0.445853 0.889 0
837 1 0.429618 0.908099 0
809 1 0.462012 0.870075 0
1681 1 0.487873 0.875914 0
810 1 0.470554 0.893548 0
1711 1 0.494102 0.899495 0
842 1 0.00992856 0.945251 0
843 1 0.0163945 0.920809 0
844 1 0.0342295 0.93957 0
814 1 0.0402002 0.913893 0
816 1 0.082173 0.925234 0
845 1 0.0582163 0.931854 0
846 1 0.0762313 0.950286 0
819 1 0.130451 0.912607 0
817 1 0.106628 0.919472 0
818 1 0.123765 0.937133 0
847 1 0.100047 0.943055 0
821 1 0.172541 0.925077 0
820 1 0.148817 0.930366 0
851 1 0.16554 0.948493 0
794 1 0.220564 0.912301 0
824 1 0.196078 0.918962 0
822 1 0.19043 0.943041 0
853 1 0.214566 0.93681 0
855 1 0.238685 0.931968 0
826 1 0.26343 0.925118 0
856 1 0.25649 0.949543 0
828 1 0.298721 0.921888 0
857 1 0.28118 0.94285 0
859 1 0.306234 0.946036 0
831 1 0.339916 0.909799 0
830 1 0.322905 0.927511 0
832 1 0.347682 0.933729 0
860 1 0.330749 0.951693 0
833 1 0.363563 0.915512 0
863 1 0.372061 0.939049 0
834 1 0.389208 0.920131 0
865 1 0.397491 0.944161 0
835 1 0.41415 0.926825 0
838 1 0.438129 0.931662 0
836 1 0.421158 0.950061 0
839 1 0.454812 0.912822 0
1741 1 0.48654 0.943177 0
840 1 0.4783 0.918729 0
869 1 0.462989 0.937689 0
872 1 0.0214131 0.988206 0
873 1 0.0280814 0.963547 0
871 1 0.0036053 0.970125 0
874 1 0.0453292 0.980841 0
875 1 0.0518867 0.955413 0
876 1 0.0698136 0.974526 0
7 1 0.0869368 0.992758 0
886 1 0.242686 0.998166 0
877 1 0.0933363 0.968048 0
848 1 0.116369 0.961415 0
878 1 0.111536 0.985438 0
879 1 0.13528 0.979208 0
849 1 0.141029 0.954209 0
850 1 0.159634 0.973025 0
11 1 0.177232 0.991505 0
896 1 0.411326 0.992589 0
852 1 0.18349 0.967256 0
882 1 0.200804 0.985461 0
883 1 0.208147 0.960809 0
884 1 0.225598 0.979592 0
854 1 0.231898 0.955945 0
885 1 0.248888 0.973428 0
17 1 0.266476 0.992515 0
881 1 0.152337 0.997205 0
887 1 0.274171 0.968528 0
858 1 0.313513 0.969946 0
888 1 0.293594 0.985709 0
861 1 0.355798 0.957307 0
889 1 0.321767 0.994381 0
891 1 0.338498 0.975683 0
899 1 0.477652 0.986641 0
862 1 0.3632 0.981411 0
864 1 0.380193 0.963219 0
893 1 0.387606 0.987017 0
895 1 0.404302 0.968135 0
867 1 0.446439 0.955934 0
868 1 0.453032 0.980606 0
866 1 0.428645 0.973636 0
890 1 0.346308 0.999863 0
471 1 0.347438 0.49942 0
5 1 0.062934 0.998573 0
897 1 0.436205 0.997593 0
902 1 0.53425 0.0218628 0
931 1 0.517096 0.0413177 0
901 1 0.509971 0.0172504 0
904 1 0.558485 0.0289145 0
906 1 0.574656 0.010302 0
935 1 0.583608 0.0345392 0
905 1 0.551216 0.00386832 0
908 1 0.599834 0.0163949 0
937 1 0.607634 0.0405458 0
939 1 0.625274 0.0214617 0
940 1 0.649205 0.0271928 0
971 1 0.672079 0.0330991 0
942 1 0.666863 0.00901448 0
1350 1 0.969501 0.492427 0
944 1 0.696397 0.029455 0
945 1 0.720344 0.023043 0
943 1 0.701883 0.00504852 0
975 1 0.71368 0.0466378 0
947 1 0.744822 0.016183 0
948 1 0.763093 0.0330879 0
918 1 0.7685 0.00910522 0
946 1 0.737206 0.0404992 0
919 1 0.792948 0.00239739 0
949 1 0.787436 0.0261005 0
920 1 0.81156 0.020828 0
979 1 0.80477 0.0446603 0
951 1 0.835117 0.0142886 0
952 1 0.852689 0.0321775 0
922 1 0.859111 0.00773733 0
950 1 0.829032 0.0387516 0
953 1 0.876634 0.02585 0
955 1 0.900798 0.0200936 0
924 1 0.883236 0.00187963 0
954 1 0.894006 0.0449183 0
926 1 0.924901 0.0127222 0
928 1 0.948215 0.00659726 0
957 1 0.941596 0.0312743 0
956 1 0.918525 0.0380857 0
930 1 0.990307 0.0203114 0
959 1 0.9654 0.0253591 0
929 1 0.973168 0.000485247 0
960 1 0.984415 0.0438322 0
933 1 0.541699 0.0466798 0
932 1 0.524967 0.065162 0
962 1 0.531483 0.0900418 0
961 1 0.507568 0.0836916 0
941 1 0.642602 0.00277847 0
934 1 0.566292 0.0535209 0
963 1 0.548944 0.0718491 0
965 1 0.573519 0.0774574 0
936 1 0.58968 0.0588265 0
938 1 0.632353 0.046327 0
966 1 0.598116 0.0838423 0
967 1 0.614248 0.0651154 0
968 1 0.621548 0.0908988 0
969 1 0.638066 0.0713546 0
970 1 0.656362 0.0529166 0
999 1 0.662348 0.0777874 0
972 1 0.686315 0.0793276 0
973 1 0.688694 0.0522338 0
1003 1 0.708336 0.0708495 0
1004 1 0.726941 0.0883392 0
974 1 0.732572 0.0640036 0
976 1 0.756605 0.0580046 0
1005 1 0.750834 0.0819926 0
1007 1 0.77378 0.0750466 0
977 1 0.780401 0.0506031 0
978 1 0.799183 0.0687286 0
1009 1 0.816363 0.0866223 0
980 1 0.82238 0.0624501 0
981 1 0.846725 0.0559029 0
1011 1 0.840426 0.0807802 0
982 1 0.864391 0.0753206 0
983 1 0.870042 0.0505186 0
984 1 0.88854 0.0690407 0
1015 1 0.906026 0.087542 0
985 1 0.912184 0.0625051 0
986 1 0.930199 0.0801817 0
987 1 0.936439 0.0550984 0
988 1 0.953704 0.0745233 0
958 1 0.960427 0.0499897 0
989 1 0.978232 0.0684143 0
990 1 0.995057 0.0864484 0
991 1 0.514162 0.108696 0
992 1 0.522454 0.133176 0
993 1 0.538079 0.1142 0
964 1 0.555651 0.095886 0
994 1 0.563097 0.120692 0
995 1 0.579682 0.102919 0
996 1 0.585795 0.127393 0
997 1 0.603509 0.108381 0
1027 1 0.609489 0.133709 0
998 1 0.627112 0.115402 0
1000 1 0.645356 0.0971663 0
1001 1 0.671673 0.103705 0
1030 1 0.6521 0.120697 0
1031 1 0.697454 0.120422 0
1002 1 0.701908 0.0965357 0
1033 1 0.721001 0.114025 0
1063 1 0.713807 0.138106 0
1035 1 0.743907 0.106113 0
1006 1 0.767827 0.100199 0
1036 1 0.760642 0.123918 0
1034 1 0.737735 0.131713 0
1008 1 0.791816 0.0927647 0
1037 1 0.78537 0.118662 0
1039 1 0.809239 0.110961 0
1038 1 0.802666 0.136033 0
1040 1 0.827047 0.12859 0
1010 1 0.833195 0.104612 0
1012 1 0.857529 0.10069 0
1041 1 0.851011 0.123649 0
1043 1 0.875635 0.117999 0
1013 1 0.881359 0.0949078 0
1014 1 0.899589 0.111501 0
1044 1 0.892599 0.13596 0
1016 1 0.916223 0.130241 0
1017 1 0.923592 0.104796 0
1018 1 0.948271 0.0990003 0
1047 1 0.940245 0.123266 0
1019 1 0.971538 0.093743 0
1020 1 0.989491 0.111901 0
1049 1 0.965651 0.118625 0
1050 1 0.982262 0.136566 0
1023 1 0.546198 0.139311 0
1021 1 0.504754 0.150955 0
1022 1 0.528615 0.157742 0
1051 1 0.510185 0.175588 0
1025 1 0.569058 0.145848 0
1024 1 0.55214 0.162753 0
1055 1 0.575892 0.171398 0
1029 1 0.634739 0.139461 0
1026 1 0.592982 0.152394 0
1028 1 0.617756 0.158981 0
1057 1 0.600628 0.177493 0
1058 1 0.641223 0.165764 0
1059 1 0.65809 0.148241 0
1061 1 0.683442 0.153548 0
1060 1 0.666328 0.17285 0
1032 1 0.675153 0.1299 0
1062 1 0.707394 0.162579 0
1093 1 0.715131 0.186205 0
1064 1 0.731681 0.15569 0
1065 1 0.755403 0.149006 0
1095 1 0.749394 0.173 0
1066 1 0.772687 0.16707 0
1067 1 0.779237 0.142891 0
1068 1 0.796005 0.160725 0
1099 1 0.814316 0.177959 0
1069 1 0.820521 0.153618 0
1071 1 0.844909 0.148138 0
1070 1 0.837743 0.172638 0
1072 1 0.862073 0.165899 0
1042 1 0.869109 0.14225 0
1073 1 0.885806 0.161103 0
1074 1 0.903263 0.179873 0
1045 1 0.910795 0.154929 0
1075 1 0.927044 0.173168 0
1046 1 0.933888 0.148228 0
1077 1 0.951101 0.167068 0
1048 1 0.957797 0.142051 0
1079 1 0.976212 0.16066 0
1080 1 0.994086 0.180086 0
391 1 1.00038 0.434226 0
1053 1 0.535576 0.182107 0
1052 1 0.516516 0.2009 0
1082 1 0.523676 0.225713 0
1083 1 0.541878 0.206969 0
1054 1 0.558806 0.188426 0
1085 1 0.565681 0.213637 0
1056 1 0.583668 0.195037 0
1115 1 0.589315 0.220267 0
1086 1 0.607139 0.20268 0
1087 1 0.624138 0.184564 0
1088 1 0.631233 0.208497 0
1089 1 0.649089 0.190089 0
1090 1 0.672616 0.197089 0
1119 1 0.654532 0.215806 0
1121 1 0.679407 0.222131 0
1091 1 0.689712 0.180165 0
1092 1 0.697295 0.204346 0
1123 1 0.721903 0.212486 0
1094 1 0.739368 0.194122 0
1096 1 0.765269 0.193581 0
1125 1 0.74597 0.219088 0
1097 1 0.789782 0.18483 0
1127 1 0.783573 0.209554 0
1098 1 0.807232 0.20287 0
1129 1 0.825197 0.219607 0
1100 1 0.831201 0.196277 0
1101 1 0.855679 0.190711 0
1131 1 0.848879 0.213812 0
1102 1 0.873702 0.209175 0
1103 1 0.879288 0.185316 0
1104 1 0.897321 0.204582 0
1135 1 0.935801 0.216698 0
1105 1 0.920389 0.197878 0
1076 1 0.94505 0.191985 0
1107 1 0.962913 0.210806 0
1078 1 0.969039 0.184681 0
1109 1 0.98664 0.204052 0
1110 1 0.998009 0.22516 0
1111 1 0.505581 0.2441 0
1113 1 0.529251 0.250443 0
1112 1 0.51268 0.269268 0
1084 1 0.546499 0.232911 0
1143 1 0.554445 0.256322 0
1114 1 0.5715 0.238452 0
1145 1 0.5779 0.263483 0
1116 1 0.596073 0.244464 0
1117 1 0.613416 0.226492 0
1147 1 0.619205 0.252366 0
1146 1 0.601851 0.269822 0
1118 1 0.63685 0.234287 0
1149 1 0.643623 0.258777 0
1120 1 0.662301 0.24069 0
1150 1 0.667524 0.265156 0
1151 1 0.685785 0.246734 0
1122 1 0.702957 0.229474 0
1153 1 0.70997 0.254164 0
1126 1 0.768467 0.228109 0
1124 1 0.727672 0.237725 0
1154 1 0.733616 0.262039 0
1155 1 0.751028 0.245369 0
1156 1 0.758856 0.268995 0
1157 1 0.777015 0.250823 0
1128 1 0.795642 0.232266 0
1158 1 0.800555 0.258484 0
1159 1 0.818931 0.243369 0
1160 1 0.825842 0.266574 0
1130 1 0.843626 0.248976 0
1132 1 0.863753 0.23251 0
1161 1 0.868073 0.256917 0
1133 1 0.888684 0.230178 0
1163 1 0.892774 0.259504 0
1134 1 0.912346 0.242658 0