ITEM: TIMESTEP
52000
ITEM: NUMBER OF ATOMS
1800
ITEM: BOX BOUNDS pp pp pp
2.3594287931665292e-01 1.6476405712068453e+02
2.2237360811172096e+00 1.6277626391888484e+02
0.0000000000000000e+00 5.5000000000000000e+00
ITEM: ATOMS id type xs ys zs
2 1 0.0133722 0.0131313 0
3 1 0.0364064 0.00689291 0
31 1 0.00655284 0.0382329 0
33 1 0.0302641 0.0314123 0
4 1 0.054515 0.0250411 0
6 1 0.0786099 0.0187982 0
35 1 0.0731881 0.0427356 0
450 1 0.49661 0.475801 0
8 1 0.102549 0.0114884 0
37 1 0.0970947 0.0355954 0
39 1 0.121383 0.0292388 0
880 1 0.126841 0.00512184 0
9 1 0.144682 0.0235301 0
10 1 0.169101 0.0169234 0
40 1 0.163251 0.0411748 0
41 1 0.18659 0.0338045 0
12 1 0.194085 0.010398 0
14 1 0.211945 0.0272951 0
13 1 0.21757 0.00349516 0
15 1 0.235659 0.0220643 0
16 1 0.259307 0.0170692 0
46 1 0.252559 0.0402625 0
47 1 0.277607 0.0349234 0
18 1 0.282779 0.0099038 0
49 1 0.312862 0.0342076 0
19 1 0.306025 0.0102289 0
20 1 0.328888 0.015709 0
21 1 0.353416 0.022871 0
51 1 0.336182 0.0404189 0
22 1 0.362528 0.0457364 0
23 1 0.378753 0.027255 0
894 1 0.394587 0.00840695 0
24 1 0.402487 0.0324585 0
892 1 0.37024 0.0037504 0
25 1 0.419206 0.0144596 0
27 1 0.445042 0.0201147 0
26 1 0.427737 0.0378877 0
28 1 0.452859 0.0434042 0
29 1 0.469273 0.0252749 0
900 1 0.485822 0.00713583 0
30 1 0.4937 0.0317455 0
898 1 0.461744 0.00258087 0
32 1 0.0248791 0.0557084 0
62 1 0.0182832 0.0804851 0
5 1 0.0614366 0.000454465 0
63 1 0.0431805 0.0744259 0
34 1 0.0492542 0.0493804 0
65 1 0.0665497 0.068009 0
66 1 0.0847257 0.0858982 0
36 1 0.0908812 0.0603819 0
38 1 0.11418 0.0531666 0
67 1 0.108411 0.0783955 0
68 1 0.132632 0.0717716 0
69 1 0.13825 0.0474054 0
71 1 0.155795 0.0653658 0
72 1 0.174672 0.0834133 0
70 1 0.150419 0.0906956 0
42 1 0.180197 0.059123 0
43 1 0.204866 0.0532557 0
73 1 0.198336 0.0776582 0
44 1 0.222523 0.0710682 0
45 1 0.228569 0.0471184 0
75 1 0.246836 0.0660026 0
76 1 0.264275 0.084701 0
74 1 0.24072 0.0901187 0
77 1 0.272048 0.0598685 0
48 1 0.296139 0.0524024 0
79 1 0.304171 0.0760553 0
50 1 0.320015 0.0584512 0
81 1 0.328549 0.0821672 0
52 1 0.344711 0.0641324 0
82 1 0.352739 0.087821 0
53 1 0.387196 0.0512332 0
83 1 0.369463 0.0692146 0
54 1 0.393859 0.0749271 0
55 1 0.411384 0.0565249 0
57 1 0.434201 0.062198 0
56 1 0.418066 0.0801508 0
87 1 0.442046 0.086303 0
59 1 0.476929 0.0500891 0
58 1 0.459562 0.068198 0
89 1 0.483763 0.0727704 0
88 1 0.467369 0.0912476 0
92 1 0.0290928 0.123437 0
93 1 0.0357471 0.0985564 0
91 1 0.012577 0.105337 0
121 1 0.0055663 0.129735 0
64 1 0.0602936 0.0918509 0
94 1 0.0541032 0.115724 0
95 1 0.0772372 0.109202 0
125 1 0.070942 0.134449 0
96 1 0.0947794 0.127546 0
97 1 0.101843 0.103754 0
98 1 0.119702 0.121164 0
99 1 0.125761 0.0969022 0
100 1 0.143971 0.114146 0
101 1 0.168671 0.108115 0
130 1 0.16057 0.132216 0
103 1 0.192066 0.102547 0
102 1 0.185174 0.126458 0
105 1 0.216588 0.0949449 0
104 1 0.210461 0.121113 0
106 1 0.233285 0.113312 0
137 1 0.252897 0.129185 0
107 1 0.269078 0.110193 0
78 1 0.287198 0.0930896 0
109 1 0.294623 0.116427 0
80 1 0.312079 0.0997314 0
108 1 0.277324 0.133998 0
110 1 0.31946 0.123666 0
111 1 0.336042 0.105633 0
141 1 0.343641 0.129575 0
113 1 0.359936 0.111525 0
84 1 0.377457 0.0935795 0
112 1 0.384461 0.117424 0
85 1 0.401032 0.0994344 0
143 1 0.367795 0.136077 0
115 1 0.408481 0.123224 0
86 1 0.425221 0.104266 0
116 1 0.432641 0.128312 0
117 1 0.44927 0.109617 0
119 1 0.473769 0.115123 0
90 1 0.490528 0.0975713 0
118 1 0.45661 0.134023 0
122 1 0.0232129 0.147804 0
152 1 0.0162101 0.172435 0
153 1 0.040579 0.165803 0
123 1 0.0481637 0.139935 0
124 1 0.0642809 0.159661 0
155 1 0.0817514 0.177485 0
126 1 0.0887 0.153012 0
127 1 0.112585 0.145183 0
128 1 0.129596 0.163112 0
157 1 0.106022 0.169379 0
129 1 0.13781 0.13994 0
159 1 0.15452 0.160199 0
131 1 0.17805 0.150127 0
132 1 0.182931 0.17337 0
133 1 0.203051 0.145924 0
134 1 0.222832 0.162895 0
163 1 0.205984 0.182001 0
135 1 0.228169 0.138029 0
136 1 0.261532 0.152593 0
165 1 0.245182 0.170874 0
167 1 0.269826 0.17675 0
139 1 0.302113 0.140834 0
138 1 0.285381 0.15784 0
169 1 0.308718 0.164638 0
140 1 0.326877 0.147844 0
142 1 0.3507 0.153608 0
171 1 0.334017 0.172352 0
172 1 0.358083 0.177655 0
114 1 0.391707 0.141332 0
144 1 0.399045 0.165667 0
173 1 0.375463 0.160321 0
145 1 0.416059 0.147054 0
146 1 0.423522 0.170341 0
147 1 0.44033 0.151504 0
177 1 0.448021 0.17612 0
149 1 0.481433 0.139859 0
148 1 0.464941 0.158419 0
150 1 0.489111 0.163985 0
179 1 0.472391 0.18226 0
183 1 0.0333107 0.189823 0
182 1 0.0383321 0.214542 0
181 1 0.0137483 0.206904 0
154 1 0.0574918 0.185682 0
184 1 0.0627072 0.223408 0
185 1 0.0801356 0.203684 0
186 1 0.105911 0.216379 0
156 1 0.101072 0.193088 0
158 1 0.124495 0.200084 0
187 1 0.129689 0.22397 0
160 1 0.142145 0.18375 0
161 1 0.165034 0.190466 0
189 1 0.1472 0.208011 0
191 1 0.171197 0.215628 0
162 1 0.187295 0.19749 0
193 1 0.21112 0.2072 0
192 1 0.193629 0.223773 0
164 1 0.229094 0.189886 0
195 1 0.236191 0.212998 0
166 1 0.253075 0.195697 0
196 1 0.259622 0.22016 0
168 1 0.293478 0.182942 0
197 1 0.276939 0.201931 0
199 1 0.300953 0.208055 0
198 1 0.283817 0.22659 0
170 1 0.317561 0.189787 0
201 1 0.34137 0.196305 0
200 1 0.324335 0.214059 0
202 1 0.34839 0.220708 0
174 1 0.381477 0.183812 0
203 1 0.364914 0.202499 0
204 1 0.389442 0.207736 0
175 1 0.405518 0.189142 0
233 1 0.373238 0.226078 0
205 1 0.413861 0.213994 0
176 1 0.431102 0.194865 0
207 1 0.438837 0.218625 0
178 1 0.455206 0.200701 0
209 1 0.481256 0.20518 0
208 1 0.463518 0.223648 0
180 1 0.497398 0.187341 0
212 1 0.0261826 0.257121 0
211 1 0.0209529 0.232162 0
1140 1 0.00305482 0.24986 0
213 1 0.0445089 0.24026 0
243 1 0.0507423 0.265021 0
215 1 0.0868215 0.231758 0
214 1 0.068241 0.248043 0
216 1 0.0923039 0.256946 0
217 1 0.110597 0.240353 0
218 1 0.116044 0.265376 0
188 1 0.134029 0.248794 0
190 1 0.153759 0.232623 0
221 1 0.17675 0.24074 0
220 1 0.157898 0.257113 0
222 1 0.182226 0.265354 0
194 1 0.218866 0.231241 0
223 1 0.200394 0.248039 0
224 1 0.224868 0.255695 0
253 1 0.206977 0.272531 0
225 1 0.24191 0.238168 0
227 1 0.266677 0.243728 0
226 1 0.248831 0.261788 0
257 1 0.2733 0.267811 0
229 1 0.307344 0.233202 0
228 1 0.290724 0.250593 0
230 1 0.314657 0.257935 0
231 1 0.331162 0.238555 0
232 1 0.354739 0.244058 0
261 1 0.338663 0.263918 0
263 1 0.362774 0.269011 0
235 1 0.397185 0.231455 0
234 1 0.380382 0.249517 0
265 1 0.404774 0.255956 0
206 1 0.420774 0.237092 0
237 1 0.446739 0.242715 0
236 1 0.429902 0.260595 0
238 1 0.453857 0.266177 0
210 1 0.488091 0.229981 0
239 1 0.470299 0.247905 0
240 1 0.495147 0.253359 0
269 1 0.47776 0.272635 0
241 1 0.00758586 0.27481 0
242 1 0.0315106 0.281699 0
271 1 0.0137909 0.299179 0
273 1 0.037829 0.306217 0
245 1 0.0738382 0.273474 0
244 1 0.0558291 0.28987 0
246 1 0.0795369 0.297964 0
275 1 0.0614141 0.314671 0
247 1 0.0982907 0.282012 0
249 1 0.122006 0.290422 0
248 1 0.103384 0.306039 0
279 1 0.127596 0.315469 0
219 1 0.140502 0.274183 0
251 1 0.164441 0.282759 0
250 1 0.146246 0.298466 0
281 1 0.171033 0.306775 0
252 1 0.189008 0.290113 0
254 1 0.213161 0.296538 0
283 1 0.194552 0.314402 0
255 1 0.231707 0.279439 0
256 1 0.255571 0.2858 0
285 1 0.237109 0.30418 0
287 1 0.261111 0.311229 0
259 1 0.297128 0.276158 0
258 1 0.279001 0.29296 0
288 1 0.285421 0.317514 0
289 1 0.303573 0.299984 0
260 1 0.321989 0.282406 0
262 1 0.345708 0.288002 0
291 1 0.327565 0.306689 0
292 1 0.351822 0.312374 0
264 1 0.386706 0.275545 0
293 1 0.36956 0.294471 0
295 1 0.393947 0.300216 0
294 1 0.376614 0.318328 0
266 1 0.410817 0.280375 0
267 1 0.435252 0.285279 0
297 1 0.41849 0.303958 0
298 1 0.443385 0.309181 0
268 1 0.459899 0.290331 0
270 1 0.484874 0.296064 0
299 1 0.468247 0.313887 0
449 1 0.479258 0.493728 0
1200 1 0.0204733 0.323738 0
272 1 0.0438855 0.331217 0
301 1 0.0257903 0.348371 0
303 1 0.0498112 0.356771 0
276 1 0.0854056 0.322684 0
274 1 0.0682543 0.339795 0
305 1 0.0912799 0.347741 0
277 1 0.109557 0.330894 0
307 1 0.115231 0.356016 0
278 1 0.133145 0.339628 0
280 1 0.152306 0.323051 0
282 1 0.176111 0.330756 0
311 1 0.157776 0.347697 0
309 1 0.139051 0.364254 0
312 1 0.183259 0.354098 0
284 1 0.219347 0.321023 0
313 1 0.20103 0.338292 0
314 1 0.207808 0.362275 0
315 1 0.226644 0.346436 0
286 1 0.24351 0.328116 0
317 1 0.267583 0.335526 0
316 1 0.249557 0.352987 0
318 1 0.274125 0.360454 0
290 1 0.309108 0.325565 0
319 1 0.29131 0.342639 0
320 1 0.316597 0.350042 0
321 1 0.334683 0.331115 0
323 1 0.358762 0.33612 0
322 1 0.341416 0.355391 0
296 1 0.401796 0.32326 0
324 1 0.365505 0.359834 0
325 1 0.383855 0.341381 0
326 1 0.40887 0.347261 0
327 1 0.426484 0.327955 0
328 1 0.433271 0.351887 0
329 1 0.450891 0.332808 0
300 1 0.492299 0.31993 0
359 1 0.459691 0.356498 0
330 1 0.4762 0.338234 0
360 1 0.484622 0.36223 0
420 1 0.472221 0.471026 0
1230 1 0.006805 0.364552 0
302 1 0.0318399 0.373853 0
332 1 0.037215 0.398181 0
331 1 0.0136534 0.390522 0
304 1 0.0734206 0.364742 0
333 1 0.0560764 0.381624 0
335 1 0.0794434 0.389596 0
334 1 0.0604958 0.40659 0
306 1 0.0970036 0.372247 0
308 1 0.120834 0.380725 0
337 1 0.103299 0.397579 0
338 1 0.127512 0.40548 0
310 1 0.163886 0.372328 0
339 1 0.145847 0.389362 0
341 1 0.170705 0.396032 0
343 1 0.189564 0.380001 0
342 1 0.194451 0.404412 0
344 1 0.213309 0.387956 0
345 1 0.232292 0.370175 0
347 1 0.256044 0.376904 0
346 1 0.237098 0.394711 0
377 1 0.261003 0.401666 0
349 1 0.297882 0.367221 0
348 1 0.279684 0.385408 0
350 1 0.304335 0.391291 0
378 1 0.284855 0.40967 0
351 1 0.32257 0.374365 0
381 1 0.329575 0.398268 0
353 1 0.34877 0.380172 0
352 1 0.354756 0.404814 0
355 1 0.390626 0.364995 0
354 1 0.373534 0.384077 0
385 1 0.381645 0.407003 0
356 1 0.399659 0.387626 0
387 1 0.425445 0.393099 0
357 1 0.416935 0.370154 0
358 1 0.44382 0.373773 0
389 1 0.450089 0.399243 0
1232 1 0.467284 0.379492 0
1262 1 0.491149 0.386161 0
1261 1 0.47414 0.4052 0
361 1 0.0188265 0.414945 0
362 1 0.0236011 0.440033 0
363 1 0.0425768 0.424442 0
391 1 0.000732966 0.431532 0
336 1 0.085152 0.414386 0
364 1 0.0489168 0.447903 0
365 1 0.066229 0.431267 0
366 1 0.0903088 0.439495 0
367 1 0.108999 0.421602 0
368 1 0.114512 0.446824 0
369 1 0.13351 0.430641 0
340 1 0.152345 0.413297 0
371 1 0.175827 0.420629 0
370 1 0.157681 0.437643 0
399 1 0.138057 0.454357 0
373 1 0.219241 0.411509 0
401 1 0.181436 0.446038 0
372 1 0.200676 0.429033 0
403 1 0.205104 0.453827 0
374 1 0.223701 0.437424 0
375 1 0.242384 0.42059 0
376 1 0.266489 0.428068 0
405 1 0.247925 0.445289 0
379 1 0.308735 0.416711 0
407 1 0.271629 0.453287 0
409 1 0.290823 0.433939 0
380 1 0.314382 0.441642 0
382 1 0.332953 0.424555 0
413 1 0.338174 0.448877 0
383 1 0.358097 0.430102 0
386 1 0.408487 0.410479 0
414 1 0.376233 0.446402 0
384 1 0.392205 0.428607 0
415 1 0.39952 0.452841 0
417 1 0.415852 0.435134 0
388 1 0.433319 0.417775 0
418 1 0.439858 0.44169 0
419 1 0.457975 0.423726 0
1293 1 0.499654 0.410585 0
390 1 0.464189 0.447563 0
1291 1 0.482507 0.428351 0
1321 1 0.489499 0.451905 0
392 1 0.00552053 0.45709 0
393 1 0.0300039 0.464116 0
422 1 0.0120869 0.480772 0
423 1 0.0358624 0.489016 0
395 1 0.0725501 0.456222 0
394 1 0.0551074 0.472931 0
396 1 0.0791098 0.482014 0
425 1 0.0602778 0.497699 0
397 1 0.0963177 0.464455 0
398 1 0.120448 0.472001 0
427 1 0.102537 0.48834 0
428 1 0.126064 0.496017 0
400 1 0.162777 0.462765 0
429 1 0.144076 0.479198 0
431 1 0.168913 0.487424 0
402 1 0.187417 0.470802 0
432 1 0.192904 0.495489 0
433 1 0.211146 0.478932 0
404 1 0.228338 0.461666 0
406 1 0.252703 0.470863 0
435 1 0.234977 0.487438 0
436 1 0.259955 0.496001 0
410 1 0.296071 0.459426 0
408 1 0.277366 0.478099 0
441 1 0.300688 0.485999 0
411 1 0.319993 0.467647 0
412 1 0.358279 0.462497 0
442 1 0.341609 0.480191 0
473 1 0.363637 0.487751 0
443 1 0.381552 0.470083 0
444 1 0.387661 0.495697 0
445 1 0.406628 0.477821 0
448 1 0.455382 0.488886 0
447 1 0.447857 0.465867 0
446 1 0.430546 0.483429 0
416 1 0.42344 0.459684 0
1229 1 0.00134772 0.341034 0
440 1 0.32354 0.495581 0
120 1 0.498067 0.12076 0
61 1 0.000499857 0.0622629 0
454 1 0.0232619 0.53128 0
453 1 0.0179194 0.506001 0
424 1 0.0424872 0.514257 0
870 1 0.470539 0.959755 0
485 1 0.047236 0.539455 0
455 1 0.0652965 0.522555 0
426 1 0.0834202 0.505356 0
456 1 0.0891095 0.530406 0
457 1 0.107672 0.513154 0
458 1 0.11337 0.538106 0
459 1 0.131668 0.519823 0
489 1 0.137409 0.544789 0
460 1 0.155678 0.528449 0
461 1 0.173934 0.512427 0
430 1 0.150398 0.503786 0
462 1 0.179232 0.537315 0
434 1 0.216464 0.504127 0
463 1 0.1975 0.519955 0
464 1 0.221894 0.528967 0
493 1 0.20254 0.545182 0
466 1 0.246641 0.537025 0
465 1 0.240399 0.512483 0
437 1 0.264541 0.520003 0
467 1 0.287681 0.52934 0
438 1 0.305841 0.513154 0
468 1 0.3117 0.539191 0
899 1 0.478276 0.984212 0
469 1 0.329525 0.522573 0
470 1 0.352499 0.530803 0
471 1 0.346825 0.505338 0
868 1 0.453224 0.978199 0
472 1 0.369693 0.513058 0
503 1 0.377584 0.535978 0
474 1 0.394733 0.519175 0
505 1 0.401975 0.543231 0
476 1 0.420281 0.525915 0
477 1 0.437266 0.507185 0
507 1 0.444025 0.530718 0
475 1 0.412327 0.501583 0
478 1 0.461364 0.512965 0
480 1 0.468719 0.53643 0
479 1 0.484884 0.518383 0
510 1 0.493418 0.542953 0
483 1 0.00587848 0.547873 0
513 1 0.0290044 0.556137 0
514 1 0.034327 0.580897 0
482 1 0.0110203 0.572579 0
486 1 0.0709035 0.546784 0
484 1 0.0526766 0.564264 0
515 1 0.0763402 0.571922 0
545 1 0.0578798 0.588743 0
487 1 0.0942077 0.555353 0
488 1 0.117918 0.562176 0
517 1 0.100683 0.580535 0
519 1 0.124126 0.587682 0
491 1 0.16075 0.553289 0
490 1 0.141632 0.569566 0
521 1 0.165596 0.576762 0
492 1 0.184636 0.561925 0
523 1 0.188968 0.585891 0
494 1 0.207581 0.569951 0
495 1 0.227721 0.554401 0
496 1 0.251302 0.563919 0
525 1 0.233376 0.580649 0
497 1 0.270208 0.547176 0
527 1 0.274193 0.573976 0
498 1 0.292768 0.556715 0
529 1 0.298465 0.583097 0
500 1 0.315515 0.564288 0
499 1 0.335111 0.548888 0
501 1 0.358418 0.554653 0
531 1 0.340215 0.573861 0
533 1 0.365984 0.578788 0
502 1 0.385051 0.561176 0
534 1 0.392469 0.584804 0
504 1 0.409586 0.566625 0
506 1 0.427212 0.549565 0
508 1 0.434698 0.572885 0
509 1 0.451631 0.555465 0
439 1 0.282537 0.502767 0
539 1 0.459175 0.578224 0
540 1 0.476524 0.560132 0
569 1 0.483356 0.584708 0
512 1 0.0159527 0.597282 0
542 1 0.0206534 0.621824 0
543 1 0.0399746 0.605803 0
544 1 0.0440839 0.631328 0
516 1 0.0819021 0.597723 0
546 1 0.0635286 0.614343 0
547 1 0.0871822 0.624999 0
518 1 0.104424 0.606119 0
548 1 0.128055 0.612297 0
577 1 0.111754 0.632671 0
520 1 0.147351 0.593274 0
522 1 0.170362 0.601692 0
549 1 0.151173 0.617048 0
551 1 0.173754 0.626039 0
524 1 0.212924 0.595522 0
553 1 0.193917 0.611143 0
554 1 0.216201 0.622505 0
552 1 0.197012 0.636221 0
526 1 0.255589 0.590514 0
555 1 0.236599 0.606467 0
556 1 0.239685 0.631239 0
557 1 0.259944 0.61612 0
528 1 0.279235 0.600704 0
559 1 0.303891 0.609082 0
558 1 0.283095 0.627427 0
530 1 0.322011 0.591419 0
561 1 0.328791 0.616431 0
532 1 0.349006 0.597879 0
562 1 0.359481 0.620755 0
563 1 0.374708 0.601864 0
565 1 0.382784 0.627065 0
536 1 0.39944 0.608645 0
566 1 0.40649 0.633039 0
535 1 0.416581 0.590991 0
537 1 0.442107 0.596705 0
567 1 0.423165 0.614904 0
568 1 0.449858 0.620628 0
538 1 0.466645 0.603111 0
570 1 0.491393 0.609562 0
600 1 0.474158 0.626869 0
1501 1 0.499017 0.633279 0
571 1 0.00158097 0.637365 0
573 1 0.024566 0.646106 0
603 1 0.0282166 0.671063 0
572 1 0.0057533 0.662365 0
574 1 0.0478088 0.655816 0
604 1 0.0496962 0.681785 0
575 1 0.0675783 0.641563 0
605 1 0.0698657 0.666798 0
576 1 0.089735 0.651565 0
607 1 0.0919529 0.677788 0
578 1 0.11159 0.663804 0
579 1 0.132452 0.652493 0
609 1 0.135603 0.678039 0
550 1 0.154044 0.64123 0
581 1 0.175732 0.650685 0
580 1 0.155693 0.664961 0
611 1 0.178045 0.676022 0
583 1 0.219175 0.646833 0
582 1 0.19867 0.66101 0
584 1 0.219606 0.672357 0
587 1 0.260803 0.641727 0
585 1 0.241883 0.656007 0
586 1 0.262968 0.668005 0
560 1 0.306648 0.638556 0
589 1 0.282785 0.653333 0
588 1 0.283823 0.679981 0
590 1 0.303805 0.665264 0
591 1 0.341215 0.638197 0
593 1 0.349114 0.664232 0
621 1 0.326692 0.656861 0
564 1 0.366069 0.645578 0
594 1 0.373363 0.669963 0
595 1 0.389897 0.651996 0
625 1 0.39813 0.675562 0
596 1 0.414399 0.656431 0
597 1 0.431567 0.639353 0
598 1 0.439994 0.662528 0
599 1 0.45751 0.644657 0
629 1 0.482008 0.650558 0
628 1 0.465151 0.668226 0
630 1 0.490178 0.674635 0
632 1 0.00227075 0.715745 0
633 1 0.0281747 0.694848 0
634 1 0.0268199 0.719463 0
602 1 0.00544962 0.687882 0
635 1 0.0505735 0.705824 0
606 1 0.0714624 0.69151 0
636 1 0.0714721 0.717658 0
637 1 0.0928123 0.704597 0
608 1 0.113456 0.689597 0
638 1 0.112997 0.716173 0
639 1 0.134368 0.702895 0
610 1 0.1566 0.69074 0
641 1 0.157643 0.716576 0
612 1 0.178628 0.70121 0
642 1 0.179762 0.726863 0
613 1 0.199351 0.68692 0
614 1 0.221603 0.697542 0
643 1 0.201064 0.71165 0
645 1 0.223433 0.724142 0
615 1 0.241194 0.682668 0
617 1 0.263546 0.695045 0
616 1 0.242609 0.708854 0
647 1 0.26496 0.720061 0
619 1 0.30714 0.690327 0
618 1 0.284589 0.705817 0
620 1 0.306491 0.716551 0
622 1 0.332051 0.68222 0
592 1 0.357571 0.688772 0
653 1 0.342323 0.707977 0
651 1 0.327521 0.727143 0
623 1 0.382515 0.69423 0
624 1 0.366041 0.713026 0
626 1 0.407393 0.699412 0
655 1 0.391017 0.718776 0
627 1 0.422948 0.680834 0
657 1 0.448278 0.686471 0
656 1 0.431109 0.706028 0
686 1 0.41457 0.724736 0
658 1 0.455475 0.711718 0
659 1 0.472328 0.692743 0
660 1 0.479929 0.716861 0
1531 1 0.497503 0.699882 0
1771 1 0.495151 0.967042 0
662 1 0.0124159 0.762498 0
664 1 0.0281799 0.744124 0
665 1 0.0500213 0.729746 0
666 1 0.0724211 0.743231 0
695 1 0.0514562 0.753827 0
697 1 0.075151 0.76785 0
640 1 0.136148 0.72845 0
667 1 0.0927831 0.729501 0
668 1 0.0965539 0.755691 0
669 1 0.115498 0.741464 0
699 1 0.116661 0.768776 0
670 1 0.137272 0.753975 0
671 1 0.15804 0.740599 0
672 1 0.159086 0.766557 0
673 1 0.179264 0.752356 0
644 1 0.201696 0.738265 0
674 1 0.202609 0.763946 0
675 1 0.223697 0.749603 0
646 1 0.244704 0.735914 0
677 1 0.2455 0.760508 0
648 1 0.267059 0.746273 0
678 1 0.268127 0.771385 0
649 1 0.286846 0.731171 0
650 1 0.309635 0.743411 0
679 1 0.289577 0.75658 0
681 1 0.313065 0.769397 0
652 1 0.333512 0.751733 0
683 1 0.357821 0.75607 0
654 1 0.349545 0.732883 0
685 1 0.374383 0.737671 0
715 1 0.398626 0.743137 0
684 1 0.382023 0.761864 0
714 1 0.405376 0.767705 0
687 1 0.438356 0.729386 0
717 1 0.422649 0.749141 0
688 1 0.446086 0.754626 0
689 1 0.462141 0.735189 0
690 1 0.487301 0.741248 0
719 1 0.470048 0.759659 0
1591 1 0.495139 0.764313 0
694 1 0.0305189 0.779872 0
693 1 0.00636328 0.787391 0
723 1 0.0238129 0.804747 0
725 1 0.0479645 0.800161 0
696 1 0.0538408 0.777777 0
727 1 0.0726497 0.793478 0
726 1 0.0662881 0.8175 0
728 1 0.0930176 0.808894 0
698 1 0.0945159 0.783149 0
700 1 0.118013 0.795198 0
701 1 0.138106 0.780157 0
731 1 0.139619 0.805678 0
703 1 0.180573 0.777393 0
702 1 0.160596 0.791702 0
732 1 0.162284 0.816907 0
705 1 0.223564 0.774436 0
733 1 0.182898 0.802944 0
704 1 0.202837 0.788763 0
735 1 0.20539 0.814074 0
706 1 0.225264 0.799849 0
676 1 0.245916 0.785965 0
737 1 0.247046 0.811213 0
707 1 0.267718 0.795826 0
709 1 0.291065 0.781601 0
708 1 0.288236 0.805192 0
710 1 0.310961 0.813283 0
680 1 0.324656 0.793191 0
682 1 0.341225 0.774819 0
711 1 0.348424 0.799116 0
713 1 0.365702 0.780106 0
712 1 0.372955 0.804168 0
743 1 0.389616 0.785344 0
745 1 0.397542 0.809799 0
716 1 0.431136 0.773186 0
747 1 0.438428 0.797307 0
746 1 0.413629 0.791568 0
775 1 0.422473 0.815329 0
718 1 0.454402 0.778153 0
720 1 0.478428 0.783775 0
749 1 0.463228 0.802651 0
1621 1 0.487594 0.808293 0
751 1 0.0170004 0.82965 0
752 1 0.0105659 0.855103 0
753 1 0.0342361 0.84893 0
722 1 0.0403954 0.824841 0
724 1 0.0589985 0.841387 0
755 1 0.0759284 0.859124 0
757 1 0.0838526 0.835365 0
729 1 0.118335 0.820604 0
756 1 0.100351 0.853102 0
759 1 0.122398 0.845894 0
730 1 0.141257 0.830965 0
761 1 0.163007 0.843097 0
760 1 0.142943 0.86215 0
763 1 0.183685 0.827986 0
762 1 0.186511 0.853006 0
734 1 0.206911 0.83979 0
736 1 0.227423 0.825364 0
765 1 0.229356 0.851047 0
738 1 0.269382 0.821482 0
767 1 0.250158 0.835566 0
766 1 0.254882 0.860154 0
768 1 0.273962 0.846887 0
739 1 0.292551 0.830684 0
769 1 0.296817 0.855281 0
740 1 0.316279 0.837536 0
741 1 0.333893 0.818894 0
742 1 0.357416 0.822499 0
771 1 0.340543 0.842891 0
770 1 0.323617 0.860944 0
773 1 0.365015 0.847796 0
744 1 0.381708 0.829151 0
803 1 0.390066 0.852732 0
774 1 0.405991 0.833801 0
748 1 0.446421 0.821374 0
777 1 0.430096 0.839519 0
776 1 0.413515 0.857083 0
779 1 0.454585 0.846017 0
1651 1 0.495393 0.832832 0
750 1 0.470654 0.826569 0
780 1 0.478613 0.851292 0
783 1 0.0284114 0.872101 0
782 1 0.0040508 0.878994 0
813 1 0.0222049 0.897469 0
784 1 0.046724 0.891323 0
754 1 0.0518312 0.865463 0
785 1 0.0691374 0.883624 0
786 1 0.0875337 0.902082 0
758 1 0.118071 0.870989 0
787 1 0.0940375 0.87701 0
788 1 0.111625 0.895353 0
789 1 0.13622 0.887658 0
791 1 0.159855 0.88128 0
823 1 0.177788 0.900823 0
790 1 0.153672 0.905668 0
764 1 0.208021 0.867536 0
792 1 0.184589 0.877358 0
793 1 0.201982 0.895126 0
795 1 0.224332 0.88734 0
796 1 0.247676 0.882485 0
827 1 0.266831 0.898575 0
825 1 0.244177 0.907507 0
797 1 0.275937 0.873259 0
799 1 0.307283 0.878745 0
798 1 0.290635 0.896047 0
829 1 0.314092 0.90327 0
800 1 0.331282 0.884724 0
801 1 0.3479 0.865562 0
802 1 0.355333 0.888884 0
831 1 0.338927 0.908131 0
772 1 0.372499 0.870528 0
805 1 0.396784 0.876383 0
804 1 0.379978 0.894723 0
806 1 0.403313 0.900926 0
778 1 0.437082 0.863979 0
807 1 0.421033 0.883733 0
808 1 0.446139 0.888082 0
837 1 0.428872 0.907101 0
809 1 0.462022 0.869386 0
1681 1 0.486771 0.874991 0
810 1 0.470469 0.893752 0
1711 1 0.495525 0.898583 0
842 1 0.00884737 0.946719 0
843 1 0.0154786 0.922138 0
844 1 0.033064 0.939481 0
814 1 0.0397488 0.916183 0
815 1 0.0644489 0.908742 0
816 1 0.0814018 0.927137 0
845 1 0.0575849 0.933199 0
846 1 0.0741583 0.950911 0
819 1 0.129629 0.913265 0
817 1 0.105759 0.920622 0
818 1 0.122784 0.937682 0
847 1 0.098293 0.945652 0
821 1 0.171408 0.9255 0
820 1 0.146996 0.930959 0
851 1 0.163879 0.949902 0
794 1 0.219676 0.912668 0
824 1 0.195934 0.920001 0
822 1 0.188303 0.943805 0
853 1 0.213118 0.93767 0
855 1 0.237902 0.931185 0
826 1 0.262468 0.923285 0
856 1 0.25552 0.948792 0
828 1 0.296226 0.921959 0
857 1 0.280146 0.941666 0
859 1 0.304698 0.945806 0
830 1 0.321271 0.926907 0
832 1 0.346025 0.932108 0
860 1 0.330093 0.951766 0
833 1 0.363673 0.913695 0
863 1 0.370341 0.936477 0
834 1 0.38803 0.918603 0
865 1 0.396916 0.943587 0
835 1 0.412657 0.924528 0
838 1 0.438388 0.930481 0
836 1 0.421292 0.948357 0
839 1 0.45485 0.911771 0
867 1 0.446662 0.95362 0
1741 1 0.487441 0.941826 0
840 1 0.479834 0.916513 0
869 1 0.462604 0.935553 0
872 1 0.0193578 0.988734 0
873 1 0.0264942 0.964494 0
871 1 0.00248751 0.971202 0
874 1 0.0436701 0.98185 0
875 1 0.0506714 0.957288 0
876 1 0.0673938 0.976069 0
7 1 0.0856733 0.993332 0
877 1 0.0911546 0.969004 0
848 1 0.116947 0.962845 0
878 1 0.109681 0.987216 0
879 1 0.13327 0.981033 0
849 1 0.140443 0.955802 0
850 1 0.158608 0.974831 0
11 1 0.175809 0.993206 0
866 1 0.428809 0.97249 0
852 1 0.18259 0.968081 0
882 1 0.199867 0.986185 0
883 1 0.207157 0.962236 0
884 1 0.225252 0.980225 0
854 1 0.231941 0.955795 0
885 1 0.249351 0.973844 0
17 1 0.267397 0.990902 0
886 1 0.242531 0.998149 0
887 1 0.275086 0.966883 0
858 1 0.312055 0.969148 0
888 1 0.292992 0.986917 0
861 1 0.354154 0.955623 0
889 1 0.322176 0.992361 0
891 1 0.338036 0.974588 0
890 1 0.345763 0.999165 0
862 1 0.362954 0.979911 0
864 1 0.378432 0.959756 0
893 1 0.386562 0.983969 0
895 1 0.405005 0.966915 0
897 1 0.436937 0.996323 0
896 1 0.41172 0.990137 0
452 1 -0.00016781 0.522908 0
881 1 0.151203 0.998452 0
902 1 0.534806 0.0181962 0
931 1 0.517897 0.0364154 0
901 1 0.511036 0.0126593 0
933 1 0.5429 0.0413879 0
904 1 0.559538 0.0229312 0
906 1 0.577152 0.00473498 0
935 1 0.58478 0.0286753 0
908 1 0.601985 0.0113178 0
937 1 0.608636 0.0355562 0
939 1 0.626367 0.0159352 0
938 1 0.634762 0.0407788 0
940 1 0.649881 0.0212833 0
971 1 0.670686 0.0356891 0
942 1 0.674713 0.00934251 0
944 1 0.694086 0.0286397 0
945 1 0.719028 0.0229729 0
943 1 0.700242 0.00487703 0
947 1 0.742512 0.0172913 0
948 1 0.760731 0.0358184 0
918 1 0.767187 0.0117136 0
946 1 0.736455 0.0420222 0
919 1 0.79203 0.0047614 0
949 1 0.784779 0.0293832 0
920 1 0.809369 0.0221262 0
951 1 0.833912 0.0155183 0
952 1 0.851249 0.0336868 0
922 1 0.857175 0.0094796 0
950 1 0.827424 0.0406495 0
953 1 0.875045 0.0277707 0
955 1 0.899019 0.0202438 0
924 1 0.881658 0.00330283 0
954 1 0.892913 0.0452843 0
926 1 0.922962 0.01488 0
928 1 0.947549 0.0086227 0
957 1 0.941307 0.0328771 0
956 1 0.916649 0.0393836 0
930 1 0.989312 0.0202645 0
959 1 0.965877 0.0263366 0
929 1 0.971973 0.0026595 0
960 1 0.982994 0.0451432 0
932 1 0.52548 0.0599427 0
962 1 0.533176 0.0845355 0
961 1 0.508744 0.0786611 0
60 1 0.500999 0.0550513 0
934 1 0.567474 0.0465166 0
963 1 0.549607 0.065515 0
965 1 0.574221 0.0721503 0
964 1 0.55709 0.0895793 0
936 1 0.592131 0.0533114 0
966 1 0.598163 0.0774779 0
967 1 0.616028 0.0590872 0
968 1 0.623252 0.0825943 0
969 1 0.640563 0.0659804 0
970 1 0.664324 0.0601283 0
999 1 0.656909 0.0860724 0
972 1 0.68219 0.0779465 0
975 1 0.71208 0.0470845 0
973 1 0.687411 0.053569 0
1003 1 0.706526 0.0713443 0
974 1 0.730179 0.066144 0
976 1 0.754083 0.0599538 0
1005 1 0.748572 0.0842759 0
1007 1 0.772392 0.0776377 0
979 1 0.803144 0.0470043 0
977 1 0.779235 0.0536519 0
978 1 0.796522 0.0711896 0
1009 1 0.814285 0.089185 0
980 1 0.820978 0.0652865 0
981 1 0.84437 0.0583718 0
1011 1 0.838123 0.0823859 0
982 1 0.86199 0.0768869 0
983 1 0.869247 0.0528059 0
984 1 0.886753 0.0706041 0
1015 1 0.903393 0.0876507 0
985 1 0.910984 0.0641255 0
986 1 0.928863 0.0826825 0
987 1 0.934326 0.0573821 0
988 1 0.953084 0.0761866 0
958 1 0.958387 0.0510983 0
989 1 0.975942 0.0692623 0
990 1 0.994602 0.0868807 0
991 1 0.51531 0.102603 0
992 1 0.523027 0.125658 0
993 1 0.541195 0.107782 0
1350 1 0.970558 0.49174 0
994 1 0.564499 0.114104 0
995 1 0.581342 0.0957113 0
1023 1 0.547868 0.13217 0
996 1 0.590258 0.119144 0
997 1 0.606562 0.100229 0
1027 1 0.613841 0.124539 0
998 1 0.630071 0.105607 0
1000 1 0.653642 0.111621 0
1001 1 0.676985 0.101783 0
1029 1 0.637434 0.129353 0
1030 1 0.661562 0.135669 0
1004 1 0.72348 0.0911529 0
1031 1 0.693669 0.119828 0
1002 1 0.700859 0.0955453 0
1033 1 0.717427 0.11484 0
1035 1 0.741925 0.108753 0
1006 1 0.765741 0.101615 0
1036 1 0.758614 0.12692 0
1034 1 0.734751 0.132737 0
1008 1 0.789994 0.095425 0
1037 1 0.783171 0.120001 0
1039 1 0.807098 0.113663 0
1040 1 0.825098 0.130481 0
1010 1 0.831944 0.106541 0
1012 1 0.855364 0.100743 0
1041 1 0.849386 0.124307 0
1043 1 0.873484 0.119475 0
1013 1 0.878953 0.0943988 0
1014 1 0.897629 0.112533 0
1016 1 0.915493 0.131359 0
1017 1 0.922144 0.107107 0
1018 1 0.94645 0.10082 0
1047 1 0.939383 0.124958 0
1019 1 0.970179 0.0935588 0
1020 1 0.988185 0.11138 0
1049 1 0.963414 0.11878 0
1050 1 0.981642 0.135599 0
1021 1 0.506119 0.144629 0
1022 1 0.531135 0.150042 0
1053 1 0.538871 0.175425 0
1051 1 0.51355 0.169234 0
1025 1 0.573163 0.138762 0
1024 1 0.555108 0.156252 0
1055 1 0.580445 0.162071 0
1054 1 0.563091 0.180344 0
1026 1 0.59719 0.142984 0
1028 1 0.621627 0.149098 0
1057 1 0.604573 0.166969 0
1058 1 0.629124 0.173145 0
1059 1 0.644924 0.153938 0
1061 1 0.668969 0.159617 0
1060 1 0.653375 0.178335 0
1032 1 0.685973 0.142783 0
1063 1 0.711396 0.140295 0
1062 1 0.701679 0.16413 0
1064 1 0.727585 0.160099 0
1065 1 0.751926 0.151679 0
1095 1 0.746648 0.176397 0
1066 1 0.769358 0.168564 0
1038 1 0.800916 0.137604 0
1067 1 0.776328 0.144107 0
1068 1 0.794368 0.161189 0
1099 1 0.811418 0.178873 0
1069 1 0.818198 0.154819 0
1071 1 0.842691 0.148717 0
1070 1 0.836224 0.172206 0
1072 1 0.861048 0.167981 0
1044 1 0.891852 0.13775 0
1042 1 0.867325 0.143871 0
1073 1 0.886279 0.161489 0
1074 1 0.902484 0.18189 0
1045 1 0.909711 0.157419 0
1075 1 0.925877 0.175364 0
1046 1 0.933651 0.149846 0
1077 1 0.950657 0.167754 0
451 1 0.994231 0.497722 0
1048 1 0.95731 0.143097 0
1079 1 0.975149 0.161605 0
1080 1 0.993047 0.179441 0
1052 1 0.522008 0.194521 0
1082 1 0.530863 0.217518 0
1081 1 0.504798 0.211415 0
1083 1 0.547128 0.19812 0
1085 1 0.571495 0.203847 0
1084 1 0.553746 0.223862 0
1056 1 0.587868 0.18537 0
1086 1 0.59606 0.209062 0
1087 1 0.612683 0.19107 0
1088 1 0.62017 0.215582 0
1089 1 0.637696 0.197037 0
1090 1 0.663293 0.200557 0
1119 1 0.646515 0.219881 0
1121 1 0.670565 0.225937 0
1091 1 0.681241 0.181498 0
1092 1 0.688042 0.206711 0
1093 1 0.705512 0.189144 0
1123 1 0.712273 0.213277 0
1094 1 0.72946 0.194851 0
1096 1 0.754975 0.20083 0
1125 1 0.737356 0.218957 0
1126 1 0.761991 0.225442 0
1097 1 0.787238 0.184116 0
1127 1 0.779529 0.208211 0
1098 1 0.803503 0.203998 0
1129 1 0.821594 0.220512 0
1100 1 0.829395 0.196312 0
1101 1 0.853137 0.190918 0
1131 1 0.846069 0.214488 0
1102 1 0.871648 0.210298 0
1103 1 0.878736 0.186455 0
1104 1 0.896174 0.207891 0
1135 1 0.93159 0.22453 0
1105 1 0.920503 0.200182 0
1076 1 0.94484 0.193561 0
1107 1 0.964085 0.210403 0
1078 1 0.968687 0.185647 0
1109 1 0.988173 0.203212 0
1110 1 0.99755 0.226084 0
1111 1 0.512 0.235095 0
1113 1 0.535812 0.241212 0
1112 1 0.51959 0.259094 0
1143 1 0.543884 0.264528 0
1115 1 0.579334 0.228056 0
1114 1 0.561852 0.247446 0
1116 1 0.586678 0.252667 0
1145 1 0.570113 0.270699 0
1117 1 0.603965 0.234094 0
1118 1 0.628719 0.239289 0
1147 1 0.61184 0.257493 0
1149 1 0.635934 0.263198 0
1120 1 0.653833 0.244064 0
1151 1 0.677753 0.250517 0
1150 1 0.660053 0.267513 0
1122 1 0.694161 0.231793 0
1124 1 0.720381 0.237697 0
1153 1 0.703147 0.255132 0
1154 1 0.726962 0.261866 0
1155 1 0.744851 0.243978 0
1156 1 0.75223 0.267838 0
1157 1 0.768648 0.249519 0
1128 1 0.788374 0.23203 0
1159 1 0.811633 0.241549 0
1158 1 0.793191 0.256911 0
1160 1 0.823188 0.263749 0
1130 1 0.838105 0.2421 0
1161 1 0.869972 0.256448 0
1191 1 0.848417 0.268868 0
1133 1 0.887175 0.233773 0
1132 1 0.861236 0.232457 0
1163 1 0.89349 0.258612 0
1134 1 0.912189 0.241308 0