ITEM: TIMESTEP
50000
ITEM: NUMBER OF ATOMS
1800
ITEM: BOX BOUNDS pp pp pp
-8.3091948209586830e-01 1.6583091948209778e+02
1.1826529217466231e+00 1.6381734707825530e+02
0.0000000000000000e+00 5.5000000000000000e+00
ITEM: ATOMS id type xs ys zs
2 1 0.0129405 0.0130987 0
3 1 0.035715 0.00691575 0
31 1 0.00744294 0.0374554 0
33 1 0.0301837 0.0313489 0
4 1 0.0542922 0.0239198 0
6 1 0.0783913 0.0189063 0
35 1 0.0733847 0.0423908 0
5 1 0.0615999 0.00013077 0
8 1 0.103526 0.0127496 0
37 1 0.097239 0.0359869 0
39 1 0.122194 0.0295762 0
880 1 0.127887 0.00501023 0
9 1 0.146479 0.0232796 0
10 1 0.170109 0.0155684 0
40 1 0.165103 0.0401092 0
41 1 0.188415 0.033456 0
12 1 0.19441 0.0092807 0
14 1 0.212492 0.0278524 0
13 1 0.218251 0.0033822 0
15 1 0.23685 0.0206752 0
16 1 0.25993 0.0143243 0
46 1 0.254337 0.0392295 0
45 1 0.231138 0.0450906 0
47 1 0.278038 0.0325075 0
18 1 0.283911 0.00896352 0
49 1 0.312887 0.0343935 0
19 1 0.30677 0.0101661 0
20 1 0.331287 0.0161838 0
21 1 0.355081 0.0214254 0
51 1 0.3394 0.0400211 0
23 1 0.378863 0.0280497 0
894 1 0.395853 0.00892362 0
24 1 0.403068 0.033432 0
892 1 0.371273 0.00311224 0
25 1 0.420011 0.0130217 0
27 1 0.444435 0.020109 0
26 1 0.427209 0.0371278 0
28 1 0.451874 0.0432718 0
29 1 0.469602 0.0256345 0
900 1 0.486275 0.00735521 0
30 1 0.494029 0.0310016 0
898 1 0.461201 0.00268867 0
32 1 0.0248416 0.0559096 0
62 1 0.0178989 0.0799691 0
61 1 0.00126417 0.0630448 0
63 1 0.0423082 0.0740308 0
34 1 0.0479998 0.0483762 0
65 1 0.0658338 0.0669312 0
66 1 0.0835956 0.0850391 0
36 1 0.0894709 0.061032 0
38 1 0.113663 0.0542109 0
67 1 0.108714 0.078888 0
68 1 0.133349 0.0713338 0
69 1 0.139196 0.0481846 0
71 1 0.157494 0.0653403 0
72 1 0.174742 0.0827702 0
70 1 0.15164 0.0894137 0
42 1 0.181142 0.0584205 0
43 1 0.206566 0.0517088 0
73 1 0.198278 0.0754665 0
44 1 0.222963 0.0700063 0
75 1 0.247561 0.0633702 0
76 1 0.265072 0.083145 0
74 1 0.239932 0.0883638 0
77 1 0.271867 0.0575937 0
48 1 0.296129 0.0523698 0
79 1 0.305862 0.0759698 0
22 1 0.362501 0.0459765 0
50 1 0.321957 0.0570915 0
81 1 0.329426 0.0821596 0
52 1 0.345143 0.0644218 0
82 1 0.353992 0.0884162 0
53 1 0.387157 0.0518029 0
83 1 0.368838 0.0697085 0
54 1 0.393991 0.0748245 0
55 1 0.411297 0.0579084 0
57 1 0.435341 0.0610654 0
56 1 0.419723 0.0800781 0
87 1 0.443864 0.0859345 0
59 1 0.476677 0.0496661 0
58 1 0.45989 0.0679709 0
89 1 0.484002 0.0738003 0
92 1 0.0306356 0.122284 0
93 1 0.0361581 0.0977819 0
91 1 0.0130421 0.10433 0
121 1 0.00621304 0.128037 0
64 1 0.0599273 0.0916463 0
94 1 0.054029 0.115577 0
95 1 0.0780666 0.110404 0
125 1 0.0716783 0.133909 0
96 1 0.0955048 0.127347 0
97 1 0.101524 0.102409 0
98 1 0.119364 0.119895 0
99 1 0.126611 0.0959879 0
100 1 0.143959 0.113744 0
101 1 0.169084 0.108269 0
130 1 0.160963 0.131616 0
103 1 0.192143 0.100679 0
102 1 0.186594 0.124651 0
105 1 0.215805 0.0938972 0
104 1 0.210309 0.118778 0
106 1 0.233507 0.112018 0
137 1 0.253448 0.128424 0
107 1 0.270391 0.109706 0
78 1 0.288888 0.0926626 0
109 1 0.295766 0.117171 0
80 1 0.313114 0.0998556 0
108 1 0.279182 0.135028 0
110 1 0.319855 0.123594 0
111 1 0.337032 0.106546 0
141 1 0.34498 0.129098 0
113 1 0.362689 0.110913 0
84 1 0.377911 0.092985 0
112 1 0.386714 0.11657 0
85 1 0.402958 0.0984382 0
143 1 0.370164 0.134019 0
115 1 0.410427 0.122649 0
86 1 0.426408 0.104871 0
116 1 0.434488 0.129259 0
117 1 0.451601 0.110769 0
88 1 0.46775 0.092159 0
119 1 0.475397 0.116456 0
90 1 0.493066 0.0976015 0
118 1 0.459239 0.134592 0
122 1 0.0246325 0.145926 0
152 1 0.0183769 0.169105 0
153 1 0.0425525 0.164558 0
151 1 0.000286133 0.153016 0
123 1 0.0485255 0.139586 0
124 1 0.0650593 0.158214 0
155 1 0.0813103 0.177105 0
126 1 0.0887126 0.151808 0
127 1 0.112951 0.144286 0
128 1 0.13028 0.161833 0
157 1 0.10613 0.169356 0
129 1 0.137102 0.137649 0
159 1 0.16009 0.164693 0
131 1 0.179012 0.148078 0
132 1 0.182578 0.172865 0
133 1 0.20596 0.143847 0
134 1 0.222441 0.162399 0
163 1 0.205616 0.180285 0
135 1 0.229103 0.137067 0
136 1 0.26269 0.151966 0
165 1 0.245814 0.169784 0
167 1 0.269705 0.17604 0
139 1 0.303698 0.14119 0
138 1 0.288247 0.159478 0
169 1 0.311541 0.164265 0
140 1 0.328542 0.146674 0
142 1 0.352165 0.152848 0
171 1 0.334863 0.171313 0
172 1 0.359455 0.1769 0
114 1 0.393756 0.140989 0
144 1 0.40005 0.164939 0
173 1 0.375766 0.158103 0
145 1 0.418259 0.146644 0
146 1 0.42523 0.171422 0
147 1 0.442374 0.152911 0
177 1 0.449786 0.177132 0
149 1 0.48404 0.139624 0
148 1 0.466457 0.157583 0
150 1 0.491182 0.163738 0
183 1 0.0330267 0.188497 0
182 1 0.0380836 0.212806 0
181 1 0.0130133 0.204778 0
154 1 0.0578643 0.184883 0
184 1 0.0610767 0.221161 0
185 1 0.0804027 0.204992 0
186 1 0.104954 0.217178 0
156 1 0.101402 0.193466 0
158 1 0.123962 0.199869 0
187 1 0.128691 0.224328 0
160 1 0.142171 0.182809 0
161 1 0.165848 0.18949 0
189 1 0.147228 0.207752 0
191 1 0.169998 0.21402 0
162 1 0.188529 0.197907 0
193 1 0.211438 0.205147 0
192 1 0.19354 0.221717 0
164 1 0.227621 0.187297 0
195 1 0.235186 0.211094 0
166 1 0.251762 0.193749 0
196 1 0.258744 0.218073 0
168 1 0.294713 0.182539 0
197 1 0.276141 0.200421 0
199 1 0.300609 0.207114 0
198 1 0.283418 0.22455 0
170 1 0.317855 0.188611 0
201 1 0.342485 0.194507 0
200 1 0.325569 0.211645 0
202 1 0.34872 0.219307 0
174 1 0.383055 0.182332 0
203 1 0.366426 0.201363 0
204 1 0.38974 0.207506 0
175 1 0.407127 0.188721 0
233 1 0.372123 0.225152 0
205 1 0.414143 0.212418 0
176 1 0.433546 0.195958 0
207 1 0.439606 0.218816 0
179 1 0.473976 0.181893 0
178 1 0.45737 0.200429 0
209 1 0.480824 0.206707 0
208 1 0.4642 0.224983 0
180 1 0.497496 0.18744 0
212 1 0.025651 0.255965 0
211 1 0.0182606 0.230943 0
1140 1 0.00116863 0.249839 0
213 1 0.04237 0.237688 0
243 1 0.049986 0.26568 0
215 1 0.0855992 0.231299 0
214 1 0.0662063 0.247987 0
216 1 0.0916058 0.25635 0
217 1 0.110307 0.240407 0
218 1 0.117264 0.26551 0
188 1 0.134378 0.248481 0
190 1 0.1532 0.232651 0
221 1 0.176527 0.238345 0
220 1 0.159778 0.256679 0
222 1 0.183821 0.263603 0
194 1 0.219384 0.229427 0
223 1 0.201423 0.245806 0
224 1 0.225088 0.255142 0
253 1 0.207209 0.271126 0
225 1 0.243147 0.236271 0
227 1 0.266332 0.242162 0
226 1 0.249198 0.261051 0
257 1 0.273227 0.267554 0
229 1 0.307285 0.230774 0
228 1 0.290213 0.249053 0
230 1 0.314891 0.25583 0
231 1 0.330455 0.236977 0
232 1 0.355717 0.243846 0
261 1 0.338601 0.26172 0
263 1 0.362814 0.268137 0
235 1 0.397125 0.230553 0
234 1 0.380026 0.249214 0
265 1 0.404188 0.25438 0
206 1 0.422104 0.237057 0
237 1 0.44745 0.242204 0
236 1 0.429548 0.259585 0
238 1 0.454289 0.265201 0
210 1 0.48925 0.22937 0
239 1 0.472668 0.248513 0
240 1 0.496279 0.254406 0
269 1 0.479701 0.27239 0
241 1 0.00731849 0.273219 0
242 1 0.0296008 0.282201 0
271 1 0.0123366 0.299587 0
273 1 0.0364799 0.306185 0
245 1 0.0734783 0.273242 0
244 1 0.0554677 0.290235 0
246 1 0.0804706 0.298123 0
275 1 0.0618313 0.315346 0
247 1 0.098436 0.281353 0
249 1 0.12297 0.290111 0
248 1 0.104319 0.306544 0
279 1 0.128168 0.314345 0
219 1 0.1416 0.27352 0
251 1 0.165692 0.280986 0
250 1 0.147105 0.297644 0
281 1 0.171238 0.306267 0
252 1 0.189198 0.288581 0
254 1 0.213795 0.29577 0
283 1 0.195126 0.312954 0
255 1 0.232255 0.279595 0
256 1 0.255823 0.285746 0
285 1 0.238298 0.303197 0
287 1 0.261521 0.31058 0
259 1 0.296283 0.273999 0
258 1 0.279959 0.292369 0
288 1 0.286252 0.31714 0
289 1 0.30377 0.298515 0
260 1 0.321031 0.28036 0
262 1 0.345501 0.286545 0
291 1 0.327851 0.304918 0
292 1 0.35222 0.310183 0
264 1 0.387616 0.272975 0
293 1 0.369617 0.291689 0
295 1 0.39425 0.296151 0
294 1 0.37621 0.315211 0
266 1 0.411532 0.278221 0
267 1 0.437707 0.284388 0
297 1 0.419795 0.301447 0
298 1 0.444432 0.308089 0
268 1 0.461298 0.29017 0
270 1 0.486095 0.29559 0
299 1 0.467677 0.313606 0
1200 1 0.0174116 0.323924 0
272 1 0.0420118 0.332049 0
301 1 0.0239653 0.348576 0
1229 1 5.39896e-07 0.341493 0
303 1 0.0485253 0.355618 0
276 1 0.0864482 0.323788 0
274 1 0.0679506 0.340256 0
305 1 0.0925508 0.347324 0
277 1 0.110546 0.331561 0
307 1 0.117249 0.355192 0
278 1 0.134828 0.338557 0
280 1 0.153215 0.322707 0
282 1 0.177806 0.33017 0
311 1 0.159453 0.346501 0
309 1 0.141182 0.363276 0
312 1 0.183349 0.354916 0
284 1 0.219966 0.320084 0
313 1 0.201935 0.337771 0
314 1 0.208358 0.361616 0
315 1 0.226339 0.344578 0
286 1 0.243273 0.327909 0
317 1 0.269653 0.335574 0
316 1 0.251241 0.35293 0
318 1 0.275719 0.359728 0
290 1 0.311394 0.322084 0
319 1 0.293549 0.34143 0
320 1 0.316551 0.346444 0
321 1 0.335388 0.328643 0
323 1 0.360188 0.333535 0
322 1 0.340057 0.352867 0
296 1 0.402116 0.320285 0
324 1 0.366119 0.357129 0
325 1 0.383807 0.339536 0
355 1 0.392125 0.362427 0
326 1 0.409907 0.344456 0
327 1 0.426427 0.324922 0
328 1 0.433843 0.350115 0
329 1 0.450175 0.332036 0
300 1 0.491841 0.320123 0
359 1 0.458404 0.356194 0
330 1 0.474631 0.337862 0
360 1 0.481669 0.361433 0
1201 1 0.498646 0.343517 0
1230 1 0.0067045 0.365762 0
302 1 0.030867 0.372977 0
332 1 0.0369287 0.397342 0
331 1 0.0128775 0.389398 0
304 1 0.0748698 0.36387 0
333 1 0.0556216 0.380063 0
335 1 0.0794976 0.387782 0
334 1 0.0628504 0.40484 0
306 1 0.0981618 0.370983 0
308 1 0.121709 0.379973 0
337 1 0.104997 0.396918 0
338 1 0.128599 0.404138 0
310 1 0.165526 0.371254 0
339 1 0.146514 0.38804 0
341 1 0.171356 0.395558 0
343 1 0.189599 0.378031 0
342 1 0.196088 0.402797 0
344 1 0.213881 0.386391 0
345 1 0.232947 0.36839 0
347 1 0.257092 0.377771 0
346 1 0.23795 0.392519 0
377 1 0.26429 0.402253 0
349 1 0.299509 0.364819 0
348 1 0.282492 0.384197 0
350 1 0.305622 0.389123 0
378 1 0.288038 0.408637 0
351 1 0.323498 0.37138 0
381 1 0.328792 0.395919 0
353 1 0.348462 0.375573 0
352 1 0.355234 0.398888 0
354 1 0.373066 0.381548 0
385 1 0.381556 0.406374 0
356 1 0.398573 0.385671 0
387 1 0.423486 0.393472 0
357 1 0.41721 0.369276 0
358 1 0.440773 0.374105 0
389 1 0.448456 0.397473 0
1232 1 0.465663 0.380255 0
1262 1 0.489701 0.384926 0
1261 1 0.472572 0.404059 0
361 1 0.0177304 0.414353 0
362 1 0.0254088 0.438614 0
363 1 0.043995 0.421838 0
336 1 0.0864724 0.412326 0
364 1 0.0499385 0.446147 0
365 1 0.0678229 0.429858 0
395 1 0.0733377 0.454264 0
366 1 0.0912093 0.437249 0
367 1 0.110149 0.420993 0
368 1 0.115914 0.445463 0
369 1 0.135023 0.429574 0
340 1 0.152567 0.411906 0
371 1 0.178196 0.420727 0
370 1 0.159164 0.436021 0
399 1 0.139274 0.453 0
373 1 0.220339 0.410656 0
401 1 0.182503 0.445421 0
372 1 0.201965 0.428967 0
403 1 0.208561 0.452538 0
374 1 0.227901 0.435731 0
375 1 0.244775 0.417722 0
376 1 0.269347 0.42622 0
405 1 0.251587 0.44224 0
379 1 0.312013 0.414309 0
407 1 0.274298 0.450542 0
409 1 0.295513 0.434486 0
380 1 0.32102 0.438285 0
382 1 0.338946 0.418898 0
413 1 0.34728 0.442357 0
383 1 0.364197 0.422862 0
386 1 0.405868 0.40991 0
414 1 0.372125 0.446619 0
384 1 0.389648 0.430169 0
415 1 0.397413 0.452921 0
417 1 0.413819 0.433976 0
388 1 0.431544 0.416886 0
418 1 0.438999 0.440466 0
1293 1 0.497961 0.409994 0
419 1 0.455699 0.421761 0
390 1 0.463111 0.446281 0
1291 1 0.480609 0.428053 0
1321 1 0.487874 0.452047 0
392 1 0.00690391 0.455027 0
393 1 0.0308936 0.463248 0
422 1 0.0119576 0.479671 0
423 1 0.036623 0.487862 0
394 1 0.0550011 0.471099 0
396 1 0.0790137 0.478275 0
425 1 0.0609783 0.494529 0
397 1 0.0975259 0.461437 0
398 1 0.121013 0.469446 0
427 1 0.102172 0.486835 0
428 1 0.12565 0.493989 0
400 1 0.163615 0.46077 0
429 1 0.145035 0.477237 0
431 1 0.169696 0.485326 0
402 1 0.189301 0.468911 0
432 1 0.193949 0.493771 0
433 1 0.213482 0.477232 0
404 1 0.232726 0.460501 0
406 1 0.256144 0.467846 0
435 1 0.238317 0.486298 0
436 1 0.261632 0.493606 0
410 1 0.297636 0.460707 0
408 1 0.279648 0.476724 0
441 1 0.301468 0.488025 0
411 1 0.331053 0.46206 0
412 1 0.356817 0.464419 0
442 1 0.341501 0.483752 0
440 1 0.323301 0.499692 0
473 1 0.364564 0.489044 0
443 1 0.380907 0.470325 0
444 1 0.388154 0.494896 0
445 1 0.404262 0.477299 0
448 1 0.452947 0.487392 0
447 1 0.445177 0.464215 0
446 1 0.427927 0.481852 0
416 1 0.420983 0.457811 0
450 1 0.495236 0.475532 0
420 1 0.469599 0.46972 0
449 1 0.478077 0.493289 0
454 1 0.0231555 0.528159 0
453 1 0.0178736 0.503782 0
424 1 0.0427715 0.512181 0
452 1 0.000285641 0.521213 0
485 1 0.0476249 0.536485 0
455 1 0.0668899 0.521046 0
426 1 0.083974 0.503465 0
456 1 0.0898495 0.528702 0
457 1 0.107626 0.511259 0
458 1 0.112525 0.536636 0
459 1 0.131265 0.519472 0
489 1 0.135954 0.54383 0
460 1 0.155061 0.526951 0
461 1 0.17242 0.509269 0
462 1 0.178878 0.534267 0
430 1 0.149255 0.501898 0
434 1 0.218001 0.502012 0
463 1 0.197622 0.517353 0
464 1 0.223256 0.526661 0
493 1 0.202782 0.542659 0
466 1 0.246183 0.537366 0
465 1 0.241111 0.510065 0
437 1 0.26418 0.520164 0
467 1 0.286512 0.529928 0
438 1 0.305796 0.515765 0
439 1 0.283983 0.503671 0
468 1 0.309726 0.540622 0
469 1 0.3281 0.524654 0
470 1 0.353209 0.531101 0
471 1 0.345885 0.50793 0
472 1 0.370509 0.513376 0
503 1 0.376878 0.537606 0
474 1 0.395311 0.520026 0
505 1 0.402728 0.54352 0
476 1 0.419689 0.5254 0
477 1 0.436386 0.505517 0
507 1 0.443347 0.529107 0
475 1 0.411506 0.501383 0
478 1 0.461021 0.511903 0
480 1 0.468485 0.53518 0
479 1 0.485487 0.518649 0
510 1 0.493576 0.541726 0
483 1 0.00598192 0.545926 0
513 1 0.0287923 0.552415 0
514 1 0.0333835 0.578095 0
482 1 0.0106486 0.569818 0
486 1 0.0716524 0.545981 0
484 1 0.0516704 0.561568 0
515 1 0.0757871 0.570994 0
545 1 0.0573749 0.587368 0
487 1 0.0944586 0.554606 0
488 1 0.118063 0.561442 0
517 1 0.0993418 0.579671 0
519 1 0.123292 0.586375 0
491 1 0.15898 0.550702 0
490 1 0.140971 0.567638 0
521 1 0.16568 0.57485 0
520 1 0.147271 0.590629 0
492 1 0.184323 0.558695 0
523 1 0.188015 0.583549 0
494 1 0.208039 0.568593 0
495 1 0.226176 0.552121 0
496 1 0.248935 0.563496 0
525 1 0.23047 0.578457 0
497 1 0.268995 0.547475 0
526 1 0.252955 0.588967 0
527 1 0.273696 0.575052 0
498 1 0.292244 0.559205 0
529 1 0.296378 0.584017 0
500 1 0.316882 0.567702 0
499 1 0.335444 0.548423 0
501 1 0.35981 0.555624 0
531 1 0.34203 0.573356 0
533 1 0.367122 0.579845 0
502 1 0.384934 0.561005 0
534 1 0.391624 0.586011 0
504 1 0.409456 0.567418 0
506 1 0.426882 0.548516 0
508 1 0.433849 0.57314 0
509 1 0.451592 0.553414 0
535 1 0.415948 0.590812 0
539 1 0.458534 0.577131 0
540 1 0.475441 0.558878 0
569 1 0.482873 0.583104 0
512 1 0.0153433 0.595636 0
542 1 0.019622 0.620313 0
543 1 0.0384627 0.603191 0
544 1 0.0429068 0.628957 0
516 1 0.0799858 0.597423 0
546 1 0.0615319 0.613934 0
547 1 0.0852213 0.625598 0
518 1 0.104361 0.605288 0
548 1 0.128635 0.626062 0
522 1 0.169273 0.599938 0
549 1 0.150453 0.614741 0
551 1 0.172368 0.62386 0
524 1 0.211127 0.594734 0
553 1 0.19186 0.609192 0
554 1 0.213767 0.619308 0
552 1 0.194367 0.635444 0
555 1 0.232911 0.603861 0
556 1 0.235901 0.629123 0
557 1 0.25569 0.614264 0
528 1 0.276466 0.599904 0
559 1 0.298647 0.609367 0
558 1 0.277628 0.62463 0
560 1 0.29997 0.634467 0
530 1 0.322827 0.592182 0
561 1 0.332249 0.617433 0
532 1 0.348057 0.598254 0
562 1 0.357588 0.623239 0
563 1 0.373829 0.603897 0
565 1 0.382254 0.628063 0
536 1 0.399216 0.609876 0
566 1 0.407873 0.63508 0
537 1 0.441226 0.596653 0
567 1 0.423225 0.61503 0
568 1 0.447965 0.620419 0
538 1 0.465199 0.601304 0
570 1 0.488456 0.607829 0
600 1 0.473125 0.626214 0
1501 1 0.497099 0.632123 0
573 1 0.0225818 0.644606 0
603 1 0.0244878 0.669176 0
574 1 0.0449491 0.655317 0
572 1 0.00227918 0.65925 0
604 1 0.0471075 0.679664 0
575 1 0.065591 0.641591 0
605 1 0.0679197 0.666114 0
576 1 0.0882999 0.65249 0
607 1 0.0896514 0.678239 0
577 1 0.107491 0.638006 0
578 1 0.110955 0.664397 0
579 1 0.13138 0.650825 0
609 1 0.131834 0.676418 0
550 1 0.15206 0.638523 0
581 1 0.173404 0.649506 0
580 1 0.152701 0.663459 0
611 1 0.175245 0.675027 0
583 1 0.216786 0.645442 0
582 1 0.195605 0.66048 0
584 1 0.217833 0.670946 0
587 1 0.258 0.640319 0
585 1 0.237989 0.656012 0
586 1 0.260712 0.665353 0
615 1 0.240877 0.680791 0
589 1 0.280426 0.649842 0
588 1 0.283288 0.675405 0
590 1 0.301942 0.660555 0
591 1 0.341195 0.64297 0
593 1 0.349122 0.667009 0
621 1 0.32534 0.662503 0
564 1 0.365174 0.647304 0
594 1 0.37305 0.672216 0
595 1 0.390162 0.652792 0
625 1 0.397604 0.677165 0
596 1 0.41456 0.659791 0
597 1 0.432346 0.641314 0
598 1 0.43933 0.664708 0
599 1 0.456513 0.644926 0
629 1 0.479878 0.650709 0
628 1 0.463736 0.669379 0
630 1 0.488103 0.675224 0
632 1 0.00474266 0.710857 0
633 1 0.0259301 0.694877 0
634 1 0.0272017 0.719821 0
602 1 0.0040407 0.685137 0
635 1 0.0486981 0.705699 0
606 1 0.0683577 0.691157 0
636 1 0.0705104 0.716674 0
637 1 0.0912219 0.70309 0
608 1 0.111229 0.689796 0
638 1 0.112924 0.714631 0
639 1 0.13326 0.702268 0
640 1 0.134711 0.727026 0
610 1 0.1555 0.688682 0
641 1 0.156133 0.714285 0
612 1 0.176554 0.700664 0
642 1 0.177966 0.726018 0
613 1 0.19741 0.685783 0
614 1 0.219094 0.697108 0
643 1 0.199234 0.711461 0
645 1 0.222238 0.721561 0
617 1 0.262548 0.690352 0
616 1 0.243707 0.705419 0
647 1 0.266347 0.717101 0
619 1 0.306749 0.68516 0
618 1 0.28549 0.700282 0
620 1 0.308368 0.713094 0
622 1 0.332565 0.686035 0
592 1 0.35727 0.690895 0
653 1 0.341647 0.70984 0
623 1 0.382381 0.695773 0
624 1 0.365978 0.714716 0
626 1 0.406238 0.701802 0
655 1 0.389567 0.719884 0
627 1 0.422552 0.682662 0
657 1 0.447514 0.689165 0
656 1 0.429741 0.706974 0
686 1 0.415046 0.724934 0
658 1 0.455661 0.712752 0
659 1 0.471679 0.693954 0
660 1 0.480422 0.718451 0
1531 1 0.496968 0.698987 0
663 1 0.00570958 0.737345 0
662 1 0.0112977 0.761578 0
664 1 0.0291712 0.744961 0
665 1 0.0496151 0.731795 0
666 1 0.0720686 0.741632 0
695 1 0.0518667 0.756255 0
697 1 0.0728699 0.768659 0
667 1 0.092687 0.728143 0
668 1 0.0932954 0.754285 0
669 1 0.113552 0.740459 0
699 1 0.115916 0.765877 0
670 1 0.136473 0.753148 0
671 1 0.156857 0.739873 0
672 1 0.157639 0.764556 0
673 1 0.179752 0.750923 0
644 1 0.200791 0.735369 0
674 1 0.201425 0.761864 0
675 1 0.22335 0.746557 0
705 1 0.22352 0.772131 0
646 1 0.243973 0.731659 0
677 1 0.244825 0.758435 0
648 1 0.266267 0.742974 0
678 1 0.266877 0.768078 0
649 1 0.288679 0.729132 0
650 1 0.311066 0.747834 0
679 1 0.288444 0.755268 0
681 1 0.318053 0.771849 0
651 1 0.326966 0.729323 0
652 1 0.334114 0.752692 0
683 1 0.358276 0.757355 0
654 1 0.350678 0.733266 0
685 1 0.375169 0.738982 0
715 1 0.398933 0.743408 0
684 1 0.382834 0.763177 0
714 1 0.407678 0.767546 0
687 1 0.438682 0.730748 0
717 1 0.423393 0.749385 0
688 1 0.447414 0.754573 0
689 1 0.463505 0.736243 0
690 1 0.488101 0.743677 0
719 1 0.470716 0.761437 0
1591 1 0.496738 0.766752 0
694 1 0.0277633 0.781396 0
693 1 0.0038796 0.787363 0
723 1 0.0230787 0.806332 0
725 1 0.047465 0.804026 0
696 1 0.0521773 0.78066 0
727 1 0.0723599 0.79434 0
728 1 0.094575 0.805789 0
698 1 0.0947047 0.779539 0
700 1 0.115911 0.792559 0
729 1 0.117418 0.817466 0
701 1 0.137522 0.778337 0
731 1 0.138695 0.8032 0
703 1 0.180759 0.775989 0
702 1 0.160355 0.78926 0
732 1 0.162876 0.814698 0
733 1 0.182894 0.800006 0
704 1 0.203688 0.786333 0
735 1 0.205931 0.81213 0
706 1 0.22581 0.796455 0
676 1 0.24591 0.783228 0
737 1 0.247372 0.8086 0
707 1 0.267474 0.794045 0
709 1 0.289376 0.780418 0
708 1 0.288862 0.804982 0
710 1 0.310504 0.813003 0
680 1 0.326355 0.795202 0
682 1 0.34295 0.776034 0
711 1 0.349888 0.800984 0
713 1 0.366568 0.781875 0
712 1 0.374366 0.806602 0
743 1 0.39036 0.786441 0
745 1 0.398521 0.811421 0
716 1 0.432227 0.773962 0
747 1 0.439114 0.797725 0
746 1 0.414878 0.791619 0
775 1 0.422821 0.816287 0
718 1 0.456341 0.780179 0
720 1 0.480111 0.784159 0
749 1 0.463345 0.803317 0
1621 1 0.486619 0.809222 0
751 1 0.0162556 0.831141 0
752 1 0.0100318 0.855839 0
753 1 0.0342412 0.849645 0
722 1 0.0396283 0.826301 0
726 1 0.0669147 0.818437 0
724 1 0.0587601 0.842357 0
755 1 0.0773589 0.85964 0
757 1 0.085566 0.834861 0
756 1 0.101166 0.853701 0
759 1 0.124015 0.845161 0
730 1 0.142221 0.828034 0
761 1 0.163831 0.840428 0
760 1 0.142789 0.862207 0
763 1 0.184654 0.825385 0
762 1 0.185709 0.851171 0
734 1 0.206388 0.837434 0
736 1 0.226765 0.823019 0
765 1 0.22818 0.849155 0
738 1 0.268971 0.81967 0
767 1 0.2491 0.834111 0
766 1 0.251503 0.857147 0
768 1 0.274034 0.845846 0
739 1 0.292696 0.829975 0
769 1 0.297679 0.856108 0
740 1 0.315717 0.837261 0
741 1 0.334317 0.819491 0
742 1 0.3586 0.825107 0
771 1 0.341062 0.8433 0
770 1 0.32323 0.861293 0
773 1 0.36505 0.848949 0
744 1 0.382186 0.829304 0
803 1 0.388813 0.853566 0
774 1 0.405875 0.835469 0
748 1 0.446838 0.821589 0
777 1 0.430464 0.840609 0
776 1 0.413295 0.85907 0
779 1 0.454079 0.845991 0
1651 1 0.494227 0.832494 0
750 1 0.469902 0.827042 0
780 1 0.478081 0.850723 0
783 1 0.028337 0.873601 0
782 1 0.00359334 0.880275 0
813 1 0.0214699 0.898755 0
784 1 0.0455978 0.891367 0
754 1 0.0526604 0.866599 0
785 1 0.0711863 0.884984 0
786 1 0.0885866 0.902044 0
758 1 0.118954 0.870971 0
787 1 0.0946849 0.877584 0
788 1 0.112177 0.894962 0
789 1 0.136755 0.887698 0
791 1 0.159648 0.880873 0
823 1 0.177374 0.900852 0
790 1 0.153802 0.905781 0
764 1 0.207381 0.866624 0
792 1 0.184073 0.876591 0
793 1 0.201873 0.893629 0
795 1 0.224666 0.886352 0
796 1 0.249944 0.88122 0
827 1 0.265743 0.90001 0
825 1 0.241666 0.904766 0
797 1 0.273586 0.872278 0
799 1 0.305043 0.878694 0
798 1 0.289258 0.896778 0
829 1 0.313537 0.902415 0
800 1 0.330539 0.884413 0
801 1 0.348549 0.867063 0
802 1 0.355257 0.890708 0
831 1 0.337486 0.907785 0
772 1 0.373011 0.872754 0
805 1 0.397469 0.877078 0
804 1 0.38084 0.896049 0
806 1 0.405828 0.9003 0
778 1 0.43832 0.863854 0
807 1 0.422261 0.881589 0
808 1 0.445334 0.887788 0
837 1 0.429889 0.906787 0
809 1 0.462073 0.869934 0
1681 1 0.486578 0.875965 0
810 1 0.469841 0.893174 0
1711 1 0.493457 0.899735 0
842 1 0.00787231 0.94618 0
843 1 0.0146773 0.922545 0
844 1 0.0330812 0.940498 0
814 1 0.0396069 0.915827 0
815 1 0.0642155 0.909131 0
816 1 0.0816073 0.927042 0
845 1 0.0579887 0.933668 0
846 1 0.0742558 0.951493 0
819 1 0.12963 0.912794 0
817 1 0.1056 0.919347 0
818 1 0.123389 0.938164 0
847 1 0.0997152 0.944071 0
821 1 0.171084 0.925102 0
820 1 0.146152 0.930992 0
851 1 0.164928 0.949086 0
794 1 0.218992 0.911762 0
824 1 0.195726 0.917939 0
822 1 0.189837 0.94192 0
853 1 0.213037 0.936322 0
855 1 0.238427 0.92931 0
826 1 0.262008 0.9239 0
856 1 0.254878 0.948506 0
828 1 0.296986 0.921692 0
857 1 0.279843 0.940863 0
859 1 0.304409 0.94614 0
830 1 0.321217 0.927176 0
832 1 0.346833 0.93252 0
860 1 0.329614 0.950543 0
833 1 0.363033 0.914007 0
863 1 0.371005 0.936665 0
834 1 0.388466 0.919403 0
865 1 0.396572 0.943315 0
835 1 0.413324 0.924365 0
838 1 0.436917 0.930079 0
836 1 0.420784 0.94803 0
839 1 0.453472 0.912102 0
867 1 0.444123 0.95375 0
1741 1 0.485041 0.941968 0
840 1 0.477007 0.917644 0
869 1 0.460829 0.935809 0
872 1 0.0189154 0.988924 0
873 1 0.0268572 0.964904 0
871 1 0.00240407 0.970569 0
874 1 0.0437787 0.982313 0
875 1 0.050252 0.957967 0
876 1 0.0678889 0.975461 0
7 1 0.0850271 0.993645 0
877 1 0.0917355 0.969055 0
848 1 0.117105 0.963104 0
878 1 0.109007 0.987296 0
879 1 0.134286 0.981224 0
849 1 0.140944 0.95648 0
850 1 0.159341 0.974493 0
11 1 0.177626 0.99107 0
881 1 0.152234 0.998288 0
852 1 0.182922 0.96637 0
882 1 0.200849 0.98491 0
883 1 0.208535 0.961234 0
884 1 0.225261 0.979118 0
854 1 0.231486 0.954855 0
885 1 0.249688 0.972082 0
17 1 0.267311 0.990094 0
886 1 0.242066 0.996115 0
887 1 0.274234 0.965542 0
858 1 0.313852 0.969858 0
888 1 0.296232 0.987503 0
861 1 0.354562 0.956045 0
889 1 0.32374 0.992701 0
891 1 0.338645 0.973909 0
890 1 0.347349 0.998265 0
862 1 0.363426 0.979594 0
864 1 0.379276 0.960876 0
893 1 0.387742 0.984996 0
895 1 0.403519 0.966445 0
897 1 0.436654 0.996106 0
896 1 0.41144 0.989562 0
866 1 0.427478 0.971572 0
868 1 0.452984 0.976891 0
1771 1 0.494175 0.964756 0
870 1 0.469157 0.959683 0
899 1 0.476884 0.983114 0
902 1 0.53635 0.0183214 0
931 1 0.519534 0.0380697 0
901 1 0.510859 0.0141328 0
933 1 0.543978 0.0425261 0
904 1 0.560295 0.0248155 0
906 1 0.576092 0.0051294 0
935 1 0.585442 0.0282585 0
908 1 0.600899 0.00894043 0
937 1 0.608882 0.0339861 0
939 1 0.625321 0.0149443 0
938 1 0.633294 0.0387404 0
940 1 0.651923 0.0201189 0
971 1 0.673337 0.0368333 0
942 1 0.677338 0.0120668 0
944 1 0.696107 0.0294621 0
945 1 0.720596 0.0247099 0
943 1 0.701255 0.00598786 0
914 1 0.725868 0.00052296 0
947 1 0.744787 0.0184834 0
948 1 0.762014 0.0355441 0
918 1 0.768775 0.0109809 0
946 1 0.737762 0.0425438 0
919 1 0.793532 0.005112 0
949 1 0.786491 0.0289118 0
920 1 0.810393 0.0243093 0
1790 1 0.816988 0.000130047 0
951 1 0.834735 0.0183058 0
952 1 0.852292 0.0357485 0
922 1 0.858504 0.0114424 0
950 1 0.827725 0.0426502 0
953 1 0.876338 0.0279463 0
955 1 0.901194 0.0219268 0
924 1 0.883196 0.00417951 0
926 1 0.925093 0.0160533 0
928 1 0.948649 0.00923651 0
957 1 0.943289 0.033772 0
956 1 0.918479 0.0393265 0
930 1 0.989654 0.0202244 0
959 1 0.967013 0.0260191 0
929 1 0.97245 0.00240528 0
932 1 0.526653 0.0617598 0
962 1 0.533807 0.0846196 0
961 1 0.509026 0.0797976 0
60 1 0.501602 0.0551338 0
934 1 0.568879 0.0477627 0
963 1 0.55196 0.0660192 0
965 1 0.575522 0.0719411 0
964 1 0.558799 0.0897695 0
936 1 0.592911 0.0539385 0
966 1 0.599814 0.0771299 0
967 1 0.616568 0.0574438 0
968 1 0.624284 0.0822261 0
969 1 0.64136 0.0626149 0
970 1 0.665929 0.0606307 0
999 1 0.657427 0.0845409 0
972 1 0.683235 0.0784105 0
975 1 0.714533 0.048384 0
973 1 0.690481 0.0538345 0
1003 1 0.708114 0.0731085 0
974 1 0.731992 0.067077 0
976 1 0.755425 0.0599445 0
1005 1 0.749565 0.0850194 0
1007 1 0.773447 0.0785965 0
979 1 0.803831 0.0478257 0
977 1 0.779616 0.0528576 0
978 1 0.797996 0.0721437 0
1009 1 0.815678 0.0909087 0
980 1 0.821966 0.066199 0
981 1 0.845615 0.0599007 0
1011 1 0.838831 0.0846855 0
982 1 0.864052 0.0783378 0
954 1 0.893958 0.0464802 0
983 1 0.86943 0.0535 0
984 1 0.888389 0.070478 0
1015 1 0.905347 0.0894192 0
985 1 0.911573 0.0641975 0
986 1 0.9291 0.082039 0
987 1 0.935187 0.0575737 0
988 1 0.952871 0.0753881 0
960 1 0.983702 0.0454945 0
958 1 0.960304 0.0504933 0
989 1 0.977622 0.0695073 0
990 1 0.994934 0.0875558 0
991 1 0.516789 0.103222 0
992 1 0.524942 0.127399 0
993 1 0.54085 0.10823 0
120 1 0.500269 0.12058 0
994 1 0.566272 0.114712 0
995 1 0.582897 0.0951246 0
1023 1 0.54951 0.132992 0
996 1 0.590624 0.120075 0
997 1 0.606879 0.101518 0
1027 1 0.615767 0.125554 0
998 1 0.63129 0.106297 0
1000 1 0.655249 0.111499 0
1001 1 0.677717 0.101309 0
1029 1 0.640564 0.131046 0
1004 1 0.726619 0.0915992 0
1031 1 0.694674 0.118961 0
1002 1 0.702355 0.0963234 0
1033 1 0.719323 0.1156 0
1035 1 0.743303 0.108491 0
1006 1 0.768078 0.102703 0
1036 1 0.760147 0.12708 0
1034 1 0.736452 0.134185 0
1008 1 0.792331 0.096502 0
1037 1 0.785232 0.120797 0
1039 1 0.80847 0.115144 0
1040 1 0.826765 0.132844 0
1010 1 0.833575 0.108748 0
1012 1 0.856836 0.101542 0
1041 1 0.851121 0.125311 0
1043 1 0.875574 0.118914 0
1013 1 0.882282 0.095009 0
1014 1 0.899432 0.113855 0
1016 1 0.91721 0.131434 0
1017 1 0.923178 0.106141 0
1018 1 0.947724 0.0999206 0
1047 1 0.941436 0.124548 0
1019 1 0.971085 0.0930282 0
1020 1 0.988579 0.111327 0
1049 1 0.965228 0.118379 0
1050 1 0.982773 0.136247 0
1021 1 0.50908 0.144662 0
1022 1 0.53325 0.151941 0
1053 1 0.540212 0.175725 0
1051 1 0.515624 0.169187 0
1025 1 0.572536 0.139045 0
1024 1 0.556897 0.157638 0
1055 1 0.581004 0.163582 0
1054 1 0.563927 0.181227 0
1026 1 0.596834 0.144806 0
1028 1 0.621448 0.150424 0
1057 1 0.605247 0.167551 0
1058 1 0.629546 0.173376 0
1030 1 0.664495 0.136777 0
1059 1 0.646634 0.155282 0
1061 1 0.67057 0.161525 0
1060 1 0.653684 0.179864 0
1032 1 0.687638 0.145122 0
1063 1 0.711498 0.140406 0
1062 1 0.703341 0.164515 0
1064 1 0.728317 0.159454 0
1065 1 0.75337 0.152645 0
1095 1 0.746284 0.177497 0
1066 1 0.771525 0.17074 0
1038 1 0.802373 0.13948 0
1067 1 0.778641 0.146733 0
1068 1 0.796649 0.163987 0
1069 1 0.821138 0.158071 0
1071 1 0.844521 0.1513 0
1070 1 0.839662 0.175546 0
1072 1 0.863079 0.167691 0
1044 1 0.89362 0.137367 0
1042 1 0.868935 0.143679 0
1073 1 0.887125 0.16141 0
1074 1 0.905324 0.180218 0
1045 1 0.91121 0.156219 0
1075 1 0.928424 0.17316 0
1046 1 0.935928 0.148271 0
1077 1 0.95276 0.16632 0
1048 1 0.95918 0.141904 0
1079 1 0.975987 0.160353 0
1080 1 0.994234 0.177058 0
1052 1 0.522944 0.193185 0
1082 1 0.530277 0.217128 0
1081 1 0.505759 0.211596 0
1083 1 0.54667 0.19906 0
1085 1 0.571136 0.205076 0
1084 1 0.553958 0.223063 0
1056 1 0.588281 0.187642 0
1086 1 0.596633 0.2108 0
1087 1 0.611967 0.191673 0
1088 1 0.620365 0.216218 0
1089 1 0.636225 0.197105 0
1090 1 0.662399 0.203953 0
1119 1 0.645112 0.221524 0
1091 1 0.679703 0.184026 0
1121 1 0.669398 0.227273 0
1092 1 0.687496 0.207731 0
1093 1 0.704713 0.19008 0
1123 1 0.712414 0.214545 0
1094 1 0.728711 0.195871 0
1096 1 0.75341 0.202514 0
1125 1 0.736479 0.221146 0
1099 1 0.814052 0.182359 0
1097 1 0.790098 0.188357 0
1127 1 0.779015 0.211104 0
1098 1 0.802272 0.214947 0
1129 1 0.825634 0.222952 0
1100 1 0.832675 0.199373 0
1101 1 0.857032 0.192246 0
1131 1 0.851143 0.216414 0
1102 1 0.874385 0.209279 0
1103 1 0.882062 0.185751 0
1104 1 0.898858 0.204345 0
1135 1 0.917069 0.222155 0
1105 1 0.922212 0.197636 0
1076 1 0.945842 0.190367 0
1107 1 0.970584 0.218257 0
1078 1 0.969304 0.18508 0
1109 1 0.988195 0.201412 0
1110 1 0.995496 0.225352 0
1111 1 0.514123 0.235628 0
1113 1 0.537888 0.241351 0
1112 1 0.520661 0.259428 0
1143 1 0.544935 0.264709 0
1115 1 0.579981 0.228634 0
1114 1 0.562618 0.246549 0
1116 1 0.587949 0.252681 0
1145 1 0.570386 0.270683 0
1117 1 0.605032 0.234424 0
1118 1 0.628466 0.239861 0
1147 1 0.611852 0.258626 0
1149 1 0.635944 0.26423 0
1120 1 0.652504 0.245411 0
1151 1 0.676545 0.250288 0
1150 1 0.660022 0.27038 0
1122 1 0.694531 0.231901 0
1124 1 0.719557 0.238802 0
1153 1 0.700832 0.256546 0
1154 1 0.72624 0.262681 0
1126 1 0.76111 0.227637 0
1155 1 0.743351 0.245374 0
1156 1 0.750189 0.26985 0
1157 1 0.76752 0.252254 0
1128 1 0.785054 0.234833 0
1159 1 0.809847 0.240722 0
1158 1 0.791694 0.259875 0
1160 1 0.81824 0.264175 0
1130 1 0.836073 0.246246 0
1161 1 0.859603 0.255166 0
1191 1 0.842829 0.27161 0
1133 1 0.893178 0.228816 0
1132 1 0.868847 0.232589 0
1163 1 0.88478 0.253375 0