ITEM: TIMESTEP
51000
ITEM: NUMBER OF ATOMS
1800
ITEM: BOX BOUNDS pp pp pp
3.0710792329055892e-01 1.6469289207671079e+02
2.2931815236569975e+00 1.6270681847634492e+02
0.0000000000000000e+00 5.5000000000000000e+00
ITEM: ATOMS id type xs ys zs
2 1 0.0140417 0.0123101 0
3 1 0.0378784 0.0063736 0
31 1 0.00776786 0.0369041 0
33 1 0.0323358 0.0307565 0
4 1 0.0563582 0.0237897 0
6 1 0.0803388 0.0178382 0
35 1 0.0744595 0.0419957 0
449 1 0.476439 0.493926 0
8 1 0.104311 0.0106017 0
37 1 0.0979272 0.0354594 0
39 1 0.122181 0.0285637 0
880 1 0.128806 0.00403495 0
9 1 0.146769 0.022322 0
10 1 0.171033 0.0150973 0
40 1 0.16303 0.0404371 0
41 1 0.187485 0.0338833 0
12 1 0.194755 0.00920246 0
14 1 0.21152 0.0281077 0
13 1 0.218799 0.00319882 0
15 1 0.235231 0.0217718 0
16 1 0.259839 0.0157776 0
46 1 0.25457 0.0397185 0
45 1 0.230348 0.0463077 0
47 1 0.278534 0.03382 0
18 1 0.282312 0.00944467 0
49 1 0.311703 0.033609 0
19 1 0.305976 0.00933288 0
20 1 0.329549 0.0159229 0
21 1 0.353583 0.0204452 0
51 1 0.337103 0.0396264 0
23 1 0.378366 0.0268792 0
894 1 0.39555 0.0092936 0
24 1 0.404002 0.0326199 0
892 1 0.370708 0.00295182 0
25 1 0.420625 0.0136357 0
27 1 0.444138 0.0193687 0
26 1 0.427461 0.0382289 0
28 1 0.452123 0.0435767 0
29 1 0.468586 0.0240893 0
900 1 0.485714 0.0052298 0
30 1 0.493039 0.0311283 0
898 1 0.461361 0.000931627 0
32 1 0.025438 0.0554439 0
62 1 0.0192257 0.0795653 0
61 1 0.00199029 0.0621737 0
63 1 0.0425899 0.074202 0
34 1 0.0496476 0.0491818 0
65 1 0.0669854 0.0668159 0
66 1 0.0840641 0.0849452 0
36 1 0.0910329 0.0609076 0
38 1 0.115612 0.0539075 0
67 1 0.1084 0.0785211 0
68 1 0.13379 0.0721709 0
69 1 0.139633 0.0475566 0
71 1 0.157176 0.0652532 0
72 1 0.175247 0.0840776 0
70 1 0.151591 0.0893859 0
42 1 0.180598 0.0584353 0
43 1 0.20502 0.0523587 0
73 1 0.198434 0.07702 0
44 1 0.223874 0.0703027 0
75 1 0.247387 0.0639575 0
76 1 0.265748 0.0829514 0
74 1 0.240807 0.0889577 0
77 1 0.27204 0.0581091 0
48 1 0.295797 0.0524245 0
79 1 0.303427 0.0754422 0
22 1 0.362493 0.045238 0
50 1 0.32092 0.057807 0
81 1 0.329006 0.081164 0
52 1 0.345493 0.0634237 0
82 1 0.353946 0.0874406 0
53 1 0.386481 0.0497247 0
83 1 0.37036 0.0682752 0
54 1 0.394265 0.073607 0
55 1 0.411518 0.0567322 0
57 1 0.435192 0.0618968 0
56 1 0.419286 0.0798492 0
87 1 0.443341 0.0857628 0
59 1 0.475979 0.0490388 0
58 1 0.459859 0.0671578 0
89 1 0.484279 0.0730299 0
92 1 0.0301538 0.123512 0
93 1 0.0368048 0.0991066 0
91 1 0.0135034 0.104926 0
121 1 0.00643244 0.129086 0
64 1 0.0598577 0.0924857 0
94 1 0.0541448 0.116847 0
95 1 0.0775716 0.108957 0
125 1 0.0716261 0.133979 0
96 1 0.0954043 0.126482 0
97 1 0.100999 0.102845 0
98 1 0.118545 0.120673 0
99 1 0.125627 0.0960026 0
100 1 0.143463 0.113108 0
101 1 0.168003 0.107904 0
130 1 0.160464 0.132523 0
103 1 0.191985 0.101605 0
102 1 0.185899 0.125537 0
105 1 0.215786 0.0946653 0
104 1 0.210491 0.119982 0
106 1 0.233784 0.113146 0
137 1 0.25333 0.128152 0
107 1 0.269436 0.109582 0
78 1 0.287601 0.0936665 0
109 1 0.294636 0.117659 0
80 1 0.312125 0.0997216 0
108 1 0.277667 0.134291 0
110 1 0.320088 0.123208 0
111 1 0.336357 0.104997 0
141 1 0.344376 0.129785 0
113 1 0.362014 0.111159 0
84 1 0.378045 0.0919943 0
112 1 0.385398 0.116389 0
85 1 0.401899 0.0975213 0
143 1 0.368163 0.134663 0
115 1 0.408827 0.122294 0
86 1 0.425911 0.104421 0
116 1 0.43404 0.127944 0
117 1 0.450797 0.108887 0
88 1 0.468643 0.090713 0
119 1 0.476038 0.114115 0
90 1 0.493603 0.0968527 0
118 1 0.458358 0.133606 0
122 1 0.0241273 0.1482 0
152 1 0.0181791 0.172447 0
153 1 0.0419526 0.165818 0
439 1 0.288865 0.500348 0
123 1 0.0477778 0.140913 0
124 1 0.0646839 0.15924 0
155 1 0.0834544 0.175884 0
126 1 0.0892312 0.150862 0
127 1 0.11275 0.14384 0
128 1 0.129873 0.162139 0
157 1 0.107142 0.168535 0
129 1 0.137298 0.137914 0
159 1 0.154508 0.157235 0
131 1 0.178785 0.148824 0
132 1 0.18239 0.172565 0
133 1 0.203118 0.145569 0
134 1 0.222548 0.161559 0
163 1 0.205594 0.17979 0
135 1 0.22856 0.136473 0
136 1 0.261189 0.152243 0
165 1 0.245015 0.170822 0
167 1 0.269403 0.176966 0
139 1 0.302963 0.141225 0
138 1 0.285447 0.157907 0
169 1 0.310261 0.163983 0
140 1 0.327444 0.146858 0
142 1 0.352127 0.153267 0
171 1 0.33328 0.170093 0
172 1 0.358781 0.177174 0
114 1 0.392906 0.14086 0
144 1 0.400481 0.164958 0
173 1 0.375495 0.158553 0
145 1 0.417204 0.146524 0
146 1 0.424509 0.171057 0
147 1 0.44205 0.152118 0
177 1 0.449094 0.175912 0
149 1 0.482893 0.138973 0
148 1 0.465439 0.157232 0
150 1 0.490959 0.163945 0
183 1 0.0343609 0.190164 0
182 1 0.0395596 0.214589 0
181 1 0.0149193 0.206684 0
154 1 0.0590773 0.184245 0
184 1 0.0626502 0.222087 0
185 1 0.0783025 0.202491 0
186 1 0.106075 0.216608 0
156 1 0.101431 0.192538 0
158 1 0.124625 0.199556 0
187 1 0.129314 0.224744 0
160 1 0.142805 0.182333 0
161 1 0.16588 0.190715 0
189 1 0.147293 0.207109 0
191 1 0.171163 0.215171 0
162 1 0.188589 0.197457 0
193 1 0.211272 0.204913 0
192 1 0.194585 0.22241 0
164 1 0.227997 0.186968 0
195 1 0.234456 0.211198 0
166 1 0.252824 0.195571 0
196 1 0.259729 0.218993 0
168 1 0.2939 0.182029 0
197 1 0.277205 0.200861 0
199 1 0.300537 0.206229 0
198 1 0.283768 0.224826 0
170 1 0.317543 0.188634 0
201 1 0.341448 0.194236 0
200 1 0.324 0.212716 0
202 1 0.348367 0.218432 0
174 1 0.382309 0.182409 0
203 1 0.365679 0.200778 0
204 1 0.390469 0.20708 0
175 1 0.407924 0.188823 0
233 1 0.372741 0.22459 0
205 1 0.414062 0.213118 0
176 1 0.431803 0.194961 0
207 1 0.439341 0.218624 0
179 1 0.473827 0.181801 0
178 1 0.455976 0.200238 0
209 1 0.481326 0.205742 0
208 1 0.464253 0.224802 0
180 1 0.497741 0.187551 0
212 1 0.0255387 0.256851 0
211 1 0.02145 0.231558 0
1140 1 0.00255574 0.249765 0
213 1 0.0441469 0.240368 0
243 1 0.0497025 0.265277 0
215 1 0.0865139 0.23133 0
214 1 0.0677013 0.247615 0
216 1 0.0915893 0.256157 0
217 1 0.110594 0.240311 0
218 1 0.115808 0.26493 0
188 1 0.134925 0.249252 0
190 1 0.152918 0.231665 0
221 1 0.176893 0.239063 0
220 1 0.158854 0.256247 0
222 1 0.183033 0.26479 0
194 1 0.218281 0.229358 0
223 1 0.199803 0.246815 0
224 1 0.224479 0.25377 0
253 1 0.207505 0.272096 0
225 1 0.241901 0.235821 0
227 1 0.266663 0.242697 0
226 1 0.248495 0.260462 0
257 1 0.272459 0.266876 0
229 1 0.307508 0.23139 0
228 1 0.290873 0.248981 0
230 1 0.314444 0.255858 0
231 1 0.331736 0.236774 0
232 1 0.354628 0.242513 0
261 1 0.338142 0.261253 0
263 1 0.361894 0.266369 0
235 1 0.397007 0.231579 0
234 1 0.379082 0.248921 0
265 1 0.404967 0.25568 0
206 1 0.421244 0.236757 0
237 1 0.446377 0.242331 0
236 1 0.430072 0.261211 0
238 1 0.453309 0.266199 0
210 1 0.487807 0.229609 0
239 1 0.471878 0.247822 0
240 1 0.495121 0.253967 0
269 1 0.478286 0.272217 0
241 1 0.00747298 0.274202 0
242 1 0.0317189 0.281643 0
271 1 0.013574 0.299019 0
273 1 0.0380879 0.307195 0
245 1 0.0738187 0.273331 0
244 1 0.0558155 0.289425 0
246 1 0.0796639 0.297978 0
275 1 0.0620182 0.315139 0
247 1 0.0969888 0.281596 0
249 1 0.122403 0.290542 0
248 1 0.103203 0.306327 0
279 1 0.127525 0.315146 0
219 1 0.140231 0.273205 0
251 1 0.165005 0.280899 0
250 1 0.146629 0.297103 0
281 1 0.171031 0.305816 0
252 1 0.188803 0.288335 0
254 1 0.213347 0.29547 0
283 1 0.196179 0.312696 0
255 1 0.231427 0.278584 0
256 1 0.254414 0.284072 0
285 1 0.237877 0.302605 0
287 1 0.261378 0.309004 0
259 1 0.296047 0.273659 0
258 1 0.278925 0.291359 0
288 1 0.285829 0.315401 0
289 1 0.303404 0.297437 0
260 1 0.320267 0.279473 0
262 1 0.344735 0.28528 0
291 1 0.327948 0.303747 0
292 1 0.351782 0.3086 0
264 1 0.386764 0.272768 0
293 1 0.369578 0.29083 0
295 1 0.393588 0.296891 0
294 1 0.375736 0.315282 0
266 1 0.411288 0.279331 0
267 1 0.436443 0.284883 0
297 1 0.419088 0.30277 0
298 1 0.442814 0.308793 0
268 1 0.461559 0.29033 0
270 1 0.484819 0.296333 0
299 1 0.467743 0.315003 0
1200 1 0.0191582 0.323967 0
272 1 0.0434756 0.332252 0
301 1 0.02465 0.348509 0
450 1 0.49391 0.47605 0
303 1 0.0491631 0.357358 0
276 1 0.0860823 0.323153 0
274 1 0.0677185 0.339959 0
305 1 0.0918125 0.348113 0
277 1 0.109252 0.330998 0
307 1 0.115658 0.355045 0
278 1 0.134963 0.338757 0
280 1 0.153216 0.322647 0
282 1 0.178628 0.330255 0
311 1 0.159595 0.347174 0
309 1 0.141655 0.363795 0
312 1 0.183853 0.354498 0
284 1 0.22017 0.321197 0
313 1 0.201471 0.337425 0
314 1 0.208102 0.36237 0
315 1 0.226383 0.344922 0
286 1 0.24366 0.326506 0
317 1 0.268093 0.33388 0
316 1 0.249757 0.351614 0
318 1 0.274163 0.358134 0
290 1 0.311065 0.32188 0
319 1 0.292498 0.339336 0
320 1 0.316881 0.346569 0
321 1 0.334582 0.327909 0
323 1 0.35839 0.332994 0
322 1 0.341068 0.352176 0
296 1 0.399145 0.320724 0
324 1 0.364288 0.358122 0
325 1 0.382447 0.340411 0
355 1 0.389226 0.363871 0
326 1 0.407135 0.344747 0
327 1 0.424973 0.326733 0
328 1 0.432621 0.350682 0
329 1 0.449845 0.332503 0
300 1 0.492755 0.319857 0
359 1 0.457747 0.356252 0
330 1 0.475411 0.338496 0
360 1 0.482537 0.361829 0
420 1 0.46831 0.470508 0
1230 1 0.00885228 0.366924 0
302 1 0.032028 0.37429 0
332 1 0.0377716 0.399091 0
331 1 0.0132207 0.391352 0
304 1 0.0740316 0.365311 0
333 1 0.0558453 0.382149 0
335 1 0.0802484 0.390059 0
334 1 0.0615125 0.405842 0
306 1 0.0988207 0.372521 0
308 1 0.123056 0.380268 0
337 1 0.10406 0.398086 0
338 1 0.129523 0.40492 0
310 1 0.166078 0.371932 0
339 1 0.147902 0.38862 0
341 1 0.171527 0.396308 0
343 1 0.189701 0.380552 0
342 1 0.19594 0.404649 0
344 1 0.215138 0.387106 0
345 1 0.232396 0.370307 0
347 1 0.256688 0.375794 0
346 1 0.238633 0.39398 0
377 1 0.263246 0.401512 0
349 1 0.298731 0.364941 0
348 1 0.281594 0.382315 0
350 1 0.305529 0.389448 0
378 1 0.288331 0.407333 0
351 1 0.323081 0.370993 0
381 1 0.330306 0.39401 0
353 1 0.347918 0.37634 0
352 1 0.354764 0.399935 0
354 1 0.372411 0.382292 0
385 1 0.379016 0.405423 0
356 1 0.39723 0.387795 0
387 1 0.422551 0.393343 0
357 1 0.415851 0.368864 0
358 1 0.438953 0.374615 0
389 1 0.44699 0.397735 0
1232 1 0.464122 0.381128 0
1262 1 0.488293 0.385986 0
1261 1 0.471716 0.40395 0
361 1 0.0188636 0.414894 0
362 1 0.0265317 0.440577 0
363 1 0.0441824 0.423284 0
336 1 0.0859598 0.41432 0
364 1 0.0501144 0.448021 0
365 1 0.0680879 0.430701 0
395 1 0.0740867 0.454806 0
366 1 0.0917385 0.438492 0
367 1 0.109755 0.4217 0
368 1 0.115286 0.446636 0
369 1 0.135328 0.428701 0
340 1 0.153634 0.413419 0
371 1 0.177717 0.421035 0
370 1 0.159705 0.436783 0
399 1 0.140103 0.453508 0
373 1 0.22161 0.411615 0
401 1 0.18509 0.444923 0
372 1 0.203755 0.428779 0
403 1 0.209457 0.45338 0
374 1 0.227299 0.435995 0
375 1 0.245251 0.419128 0
376 1 0.271169 0.425682 0
405 1 0.253318 0.442865 0
379 1 0.313632 0.413267 0
407 1 0.277786 0.450728 0
409 1 0.29589 0.431863 0
380 1 0.320746 0.438342 0
382 1 0.337717 0.417895 0
413 1 0.3454 0.442392 0
383 1 0.362157 0.42443 0
386 1 0.405676 0.410868 0
414 1 0.370888 0.447436 0
384 1 0.387452 0.428361 0
415 1 0.395661 0.453962 0
417 1 0.413083 0.43396 0
388 1 0.430473 0.416817 0
418 1 0.437314 0.44132 0
1293 1 0.496113 0.410032 0
419 1 0.455487 0.422666 0
390 1 0.460745 0.445934 0
1291 1 0.479306 0.428285 0
1321 1 0.485917 0.451582 0
392 1 0.00776676 0.457485 0
393 1 0.0315093 0.464704 0
422 1 0.0134744 0.482018 0
423 1 0.0374509 0.490126 0
394 1 0.0565471 0.473162 0
396 1 0.0804606 0.481073 0
425 1 0.0613245 0.497268 0
397 1 0.0974975 0.463132 0
398 1 0.121292 0.471224 0
427 1 0.103691 0.488721 0
428 1 0.127753 0.496099 0
400 1 0.164291 0.460835 0
429 1 0.146192 0.478476 0
431 1 0.171512 0.487409 0
402 1 0.189495 0.469691 0
432 1 0.196162 0.49429 0
433 1 0.215348 0.477569 0
404 1 0.234144 0.460858 0
406 1 0.259242 0.468502 0
435 1 0.241141 0.485918 0
436 1 0.265784 0.493341 0
410 1 0.303185 0.456457 0
408 1 0.285003 0.475351 0
441 1 0.310399 0.48143 0
411 1 0.328501 0.462195 0
412 1 0.354555 0.465961 0
442 1 0.338556 0.484691 0
391 1 0.00167576 0.432976 0
473 1 0.363229 0.490309 0
443 1 0.379272 0.471427 0
444 1 0.38708 0.49626 0
445 1 0.402784 0.477896 0
448 1 0.451852 0.489234 0
447 1 0.444438 0.465694 0
446 1 0.428117 0.483373 0
416 1 0.420358 0.459079 0
120 1 0.499993 0.120928 0
5 1 0.061944 -7.23262e-05 0
454 1 0.0249468 0.53112 0
453 1 0.0194138 0.506618 0
424 1 0.0435512 0.514148 0
1441 1 0.498859 0.566415 0
485 1 0.048936 0.539744 0
455 1 0.0676783 0.521934 0
426 1 0.0858134 0.505423 0
456 1 0.0918724 0.530623 0
457 1 0.109199 0.513575 0
458 1 0.115827 0.537895 0
459 1 0.133221 0.520322 0
489 1 0.139167 0.544272 0
460 1 0.158537 0.527313 0
461 1 0.177748 0.510893 0
462 1 0.182162 0.535088 0
430 1 0.152229 0.502851 0
434 1 0.221329 0.501525 0
463 1 0.201652 0.519268 0
464 1 0.226343 0.528769 0
493 1 0.207007 0.544522 0
466 1 0.249464 0.536225 0
465 1 0.24402 0.511769 0
437 1 0.268419 0.519314 0
467 1 0.288541 0.535805 0
438 1 0.305472 0.520118 0
571 1 0.000547416 0.637631 0
468 1 0.311368 0.544812 0
469 1 0.329002 0.527729 0
470 1 0.352723 0.533427 0
471 1 0.346357 0.508896 0
472 1 0.369707 0.514461 0
503 1 0.376977 0.538972 0
474 1 0.393315 0.520415 0
505 1 0.400902 0.54419 0
476 1 0.418108 0.525062 0
477 1 0.435728 0.507507 0
507 1 0.442036 0.530909 0
475 1 0.411315 0.502467 0
478 1 0.460158 0.512795 0
480 1 0.467552 0.536217 0
479 1 0.483961 0.517889 0
510 1 0.491623 0.541933 0
483 1 0.00685093 0.548433 0
513 1 0.0303628 0.557432 0
514 1 0.0351961 0.580808 0
482 1 0.0120343 0.573254 0
486 1 0.0731294 0.546953 0
484 1 0.0538241 0.564686 0
515 1 0.077471 0.572566 0
545 1 0.0588064 0.589261 0
487 1 0.0971601 0.555416 0
488 1 0.120731 0.563885 0
517 1 0.101577 0.581116 0
519 1 0.123961 0.58992 0
491 1 0.163178 0.551817 0
490 1 0.144653 0.568449 0
521 1 0.167606 0.576273 0
520 1 0.147965 0.591036 0
492 1 0.187313 0.559707 0
523 1 0.190936 0.584877 0
494 1 0.210585 0.569375 0
495 1 0.23019 0.554822 0
496 1 0.251535 0.566798 0
525 1 0.232327 0.581299 0
497 1 0.270339 0.551865 0
526 1 0.255563 0.592648 0
527 1 0.274614 0.577671 0
498 1 0.293397 0.560853 0
529 1 0.298459 0.58574 0
500 1 0.318009 0.570097 0
499 1 0.335612 0.551508 0
501 1 0.359558 0.557418 0
531 1 0.341311 0.576046 0
533 1 0.366047 0.581381 0
502 1 0.384053 0.563536 0
534 1 0.391191 0.586636 0
504 1 0.408309 0.568216 0
506 1 0.424986 0.549633 0
508 1 0.432782 0.572846 0
509 1 0.44966 0.55494 0
535 1 0.415509 0.591596 0
539 1 0.457551 0.578474 0
540 1 0.474149 0.559894 0
569 1 0.482131 0.583982 0
512 1 0.0171731 0.597462 0
542 1 0.0204284 0.621894 0
543 1 0.0403054 0.605339 0
544 1 0.0447568 0.63015 0
516 1 0.0813851 0.5973 0
546 1 0.0636652 0.614633 0
547 1 0.0864811 0.624115 0
518 1 0.103996 0.607013 0
548 1 0.127444 0.618024 0
522 1 0.171061 0.600766 0
549 1 0.151006 0.615386 0
551 1 0.173151 0.62625 0
524 1 0.212561 0.595565 0
553 1 0.193521 0.610736 0
554 1 0.215631 0.62153 0
552 1 0.195794 0.636697 0
555 1 0.234796 0.607274 0
556 1 0.23901 0.633197 0
557 1 0.259296 0.617256 0
528 1 0.278714 0.603066 0
559 1 0.303366 0.613409 0
558 1 0.282203 0.628374 0
560 1 0.30585 0.641237 0
530 1 0.32237 0.595006 0
561 1 0.331395 0.619077 0
532 1 0.347932 0.599617 0
562 1 0.357878 0.622887 0
563 1 0.374898 0.604639 0
565 1 0.382106 0.629956 0
536 1 0.399603 0.610891 0
566 1 0.408187 0.634069 0
537 1 0.441086 0.597555 0
567 1 0.424193 0.615178 0
568 1 0.448921 0.620713 0
538 1 0.465624 0.602835 0
570 1 0.490208 0.608022 0
600 1 0.473737 0.627783 0
1501 1 0.498094 0.632103 0
573 1 0.0243805 0.646276 0
603 1 0.0263236 0.671445 0
574 1 0.0466958 0.655985 0
572 1 0.00579146 0.661814 0
604 1 0.0487824 0.680529 0
575 1 0.0669412 0.640547 0
605 1 0.0692303 0.666526 0
576 1 0.0898405 0.650152 0
607 1 0.0913737 0.677963 0
577 1 0.10983 0.635674 0
578 1 0.110703 0.663409 0
579 1 0.131635 0.649123 0
609 1 0.133311 0.675501 0
550 1 0.15313 0.638989 0
581 1 0.174463 0.65134 0
580 1 0.153849 0.663449 0
611 1 0.176672 0.675591 0
583 1 0.217182 0.647298 0
582 1 0.196893 0.661255 0
584 1 0.218817 0.673701 0
587 1 0.260794 0.643034 0
585 1 0.239619 0.658386 0
586 1 0.261735 0.668396 0
615 1 0.241163 0.682955 0
589 1 0.282207 0.655061 0
588 1 0.283992 0.68038 0
590 1 0.30328 0.666665 0
591 1 0.341872 0.641771 0
593 1 0.350464 0.666553 0
621 1 0.326245 0.660005 0
564 1 0.366449 0.647834 0
594 1 0.374821 0.671921 0
595 1 0.391177 0.653179 0
625 1 0.398702 0.677124 0
596 1 0.415064 0.658434 0
597 1 0.432081 0.639701 0
598 1 0.439509 0.66414 0
599 1 0.456434 0.645301 0
629 1 0.480707 0.65116 0
628 1 0.463425 0.669357 0
630 1 0.489267 0.675078 0
632 1 0.00254257 0.713644 0
633 1 0.0279357 0.696262 0
634 1 0.0270246 0.720697 0
602 1 0.00506864 0.687962 0
635 1 0.0508486 0.705688 0
606 1 0.0708092 0.692357 0
636 1 0.0715971 0.717344 0
637 1 0.0916522 0.703695 0
608 1 0.112859 0.689773 0
638 1 0.113392 0.7156 0
639 1 0.133459 0.702713 0
640 1 0.134588 0.727817 0
610 1 0.155516 0.688144 0
641 1 0.155874 0.714171 0
612 1 0.177218 0.699873 0
642 1 0.17792 0.725822 0
613 1 0.198291 0.687307 0
614 1 0.220779 0.698008 0
643 1 0.198545 0.71275 0
645 1 0.221066 0.72279 0
617 1 0.262842 0.694059 0
616 1 0.241887 0.709406 0
647 1 0.263828 0.720361 0
619 1 0.307486 0.691294 0
618 1 0.284854 0.706037 0
620 1 0.305486 0.716964 0
622 1 0.332251 0.685346 0
592 1 0.357755 0.690829 0
653 1 0.342449 0.708964 0
623 1 0.382608 0.695368 0
624 1 0.366176 0.715206 0
626 1 0.407383 0.700679 0
655 1 0.390724 0.720412 0
627 1 0.423727 0.682396 0
657 1 0.447512 0.686908 0
656 1 0.432306 0.706344 0
686 1 0.415626 0.724565 0
658 1 0.456355 0.711047 0
659 1 0.473007 0.69361 0
660 1 0.48012 0.717086 0
1531 1 0.497138 0.699133 0
663 1 0.0031236 0.739371 0
662 1 0.012517 0.764328 0
664 1 0.0290075 0.745018 0
665 1 0.0507818 0.729933 0
666 1 0.0723706 0.742809 0
695 1 0.051027 0.755457 0
697 1 0.0739781 0.768051 0
667 1 0.093099 0.728848 0
668 1 0.0942526 0.755007 0
669 1 0.114339 0.74309 0
699 1 0.116526 0.767655 0
670 1 0.136934 0.753134 0
671 1 0.156876 0.739678 0
672 1 0.159159 0.765005 0
673 1 0.179139 0.75141 0
644 1 0.199432 0.737573 0
674 1 0.200993 0.761906 0
675 1 0.222303 0.747462 0
705 1 0.224279 0.773633 0
646 1 0.244224 0.73432 0
677 1 0.244655 0.759764 0
648 1 0.266498 0.745894 0
678 1 0.267424 0.770733 0
649 1 0.286392 0.731305 0
650 1 0.307946 0.743124 0
679 1 0.287886 0.757219 0
681 1 0.313792 0.769324 0
651 1 0.327365 0.727534 0
652 1 0.332715 0.751689 0
683 1 0.358529 0.75744 0
654 1 0.350296 0.734197 0
685 1 0.374447 0.739254 0
715 1 0.399296 0.744334 0
684 1 0.382896 0.762609 0
714 1 0.406988 0.767441 0
687 1 0.439789 0.730398 0
717 1 0.423448 0.749957 0
688 1 0.44829 0.754204 0
689 1 0.464047 0.735597 0
690 1 0.488962 0.741365 0
719 1 0.472491 0.759843 0
1591 1 0.496022 0.765411 0
694 1 0.0295374 0.782541 0
693 1 0.00515005 0.787084 0
723 1 0.0233531 0.807269 0
725 1 0.048363 0.802644 0
696 1 0.0530152 0.779584 0
727 1 0.0739489 0.793586 0
728 1 0.0953925 0.808755 0
698 1 0.0952292 0.780379 0
700 1 0.116902 0.794745 0
729 1 0.118571 0.820141 0
701 1 0.138464 0.780142 0
731 1 0.139212 0.805231 0
703 1 0.181539 0.776471 0
702 1 0.159964 0.790719 0
732 1 0.161709 0.815636 0
733 1 0.182527 0.80154 0
704 1 0.203933 0.787196 0
735 1 0.203481 0.812674 0
706 1 0.22476 0.799119 0
676 1 0.24495 0.784282 0
737 1 0.246482 0.81033 0
707 1 0.266465 0.796293 0
709 1 0.290796 0.781848 0
708 1 0.287893 0.806735 0
710 1 0.310244 0.813354 0
680 1 0.323727 0.793243 0
682 1 0.340643 0.775674 0
711 1 0.348682 0.799473 0
713 1 0.365299 0.781154 0
712 1 0.37327 0.804386 0
743 1 0.39078 0.785488 0
745 1 0.397879 0.81078 0
716 1 0.431381 0.772936 0
747 1 0.438903 0.796959 0
746 1 0.414767 0.792123 0
775 1 0.422463 0.815946 0
718 1 0.456812 0.778434 0
720 1 0.480788 0.784235 0
749 1 0.463451 0.802283 0
1621 1 0.487653 0.809216 0
751 1 0.0167249 0.830901 0
752 1 0.0101525 0.855118 0
753 1 0.0341986 0.848404 0
722 1 0.0409066 0.825444 0
726 1 0.0680469 0.817095 0
724 1 0.0606948 0.841334 0
755 1 0.0762132 0.860731 0
757 1 0.0855262 0.834214 0
756 1 0.0996979 0.853789 0
759 1 0.122602 0.845728 0
730 1 0.140844 0.830854 0
761 1 0.161619 0.845434 0
760 1 0.142068 0.862343 0
763 1 0.183222 0.827333 0
762 1 0.186008 0.851691 0
734 1 0.206893 0.840265 0
736 1 0.22609 0.824529 0
765 1 0.229058 0.851797 0
738 1 0.268603 0.82208 0
767 1 0.248556 0.835018 0
766 1 0.251686 0.859495 0
768 1 0.272653 0.846874 0
739 1 0.292322 0.831713 0
769 1 0.297376 0.856108 0
740 1 0.315955 0.838064 0
741 1 0.333801 0.819175 0
742 1 0.358154 0.82356 0
771 1 0.34089 0.842471 0
770 1 0.323959 0.860622 0
773 1 0.366319 0.848242 0
744 1 0.382025 0.828662 0
803 1 0.389697 0.853396 0
774 1 0.406122 0.835319 0
748 1 0.447057 0.821043 0
777 1 0.430513 0.839969 0
776 1 0.415025 0.858127 0
779 1 0.454303 0.845277 0
1651 1 0.495429 0.833582 0
750 1 0.470965 0.826525 0
780 1 0.479065 0.850663 0
783 1 0.0282545 0.873283 0
782 1 0.00499014 0.879558 0
813 1 0.0223708 0.897631 0
784 1 0.046816 0.890905 0
754 1 0.0526304 0.866673 0
785 1 0.070082 0.8852 0
786 1 0.0881306 0.90294 0
758 1 0.117476 0.870344 0
787 1 0.0943453 0.878719 0
788 1 0.11279 0.896624 0
789 1 0.136443 0.887639 0
791 1 0.160724 0.880872 0
823 1 0.177433 0.900203 0
790 1 0.153997 0.9063 0
764 1 0.207682 0.866431 0
792 1 0.184447 0.875648 0
793 1 0.202364 0.893555 0
795 1 0.225852 0.885123 0
796 1 0.249671 0.882903 0
827 1 0.266964 0.899047 0
825 1 0.243795 0.906057 0
797 1 0.27342 0.874136 0
799 1 0.30704 0.878415 0
798 1 0.290519 0.897202 0
829 1 0.313996 0.903289 0
800 1 0.331835 0.885368 0
801 1 0.348388 0.865784 0
802 1 0.35545 0.889891 0
831 1 0.338598 0.908317 0
772 1 0.373467 0.871451 0
805 1 0.397456 0.876801 0
804 1 0.380188 0.895743 0
806 1 0.405047 0.900276 0
778 1 0.438889 0.863772 0
807 1 0.42108 0.882169 0
808 1 0.446241 0.887677 0
837 1 0.429439 0.906118 0
809 1 0.462661 0.869961 0
1681 1 0.487167 0.875153 0
810 1 0.470531 0.893157 0
1711 1 0.494737 0.898856 0
842 1 0.00893736 0.947053 0
843 1 0.014044 0.922598 0
844 1 0.0324381 0.939514 0
814 1 0.0394682 0.915635 0
815 1 0.0641249 0.908497 0
816 1 0.0821089 0.926592 0
845 1 0.0564812 0.933389 0
846 1 0.0754582 0.951385 0
819 1 0.130206 0.913473 0
817 1 0.106613 0.920276 0
818 1 0.123762 0.93736 0
847 1 0.100205 0.943637 0
821 1 0.171577 0.924477 0
820 1 0.147295 0.931256 0
851 1 0.165611 0.948811 0
794 1 0.219682 0.911493 0
824 1 0.195511 0.917927 0
822 1 0.189809 0.942712 0
853 1 0.213378 0.93525 0
855 1 0.238944 0.930458 0
826 1 0.262604 0.923915 0
856 1 0.256847 0.947439 0
828 1 0.296744 0.921161 0
857 1 0.280033 0.940894 0
859 1 0.30479 0.944445 0
830 1 0.321761 0.926765 0
832 1 0.346844 0.932337 0
860 1 0.329569 0.949798 0
833 1 0.363073 0.91387 0
863 1 0.371963 0.937139 0
834 1 0.388382 0.918488 0
865 1 0.396233 0.942299 0
835 1 0.412115 0.924346 0
838 1 0.437094 0.93002 0
836 1 0.420319 0.94744 0
839 1 0.453204 0.91178 0
867 1 0.445332 0.953794 0
1741 1 0.486369 0.940263 0
840 1 0.478204 0.91721 0
869 1 0.462011 0.935142 0
872 1 0.0201148 0.987694 0
873 1 0.0275551 0.964103 0
871 1 0.00242133 0.971226 0
874 1 0.0447799 0.981605 0
875 1 0.0510765 0.958142 0
876 1 0.0689715 0.976441 0
7 1 0.0858256 0.993098 0
877 1 0.0940579 0.96802 0
848 1 0.117035 0.962909 0
878 1 0.110229 0.987222 0
879 1 0.133939 0.979966 0
849 1 0.141484 0.955748 0
850 1 0.159293 0.973534 0
11 1 0.177035 0.991166 0
881 1 0.151475 0.997068 0
852 1 0.183616 0.966964 0
882 1 0.201457 0.984443 0
883 1 0.207235 0.960239 0
884 1 0.224495 0.978544 0
854 1 0.230873 0.954327 0
885 1 0.248486 0.972695 0
17 1 0.267522 0.990367 0
886 1 0.242297 0.996803 0
887 1 0.273917 0.965616 0
858 1 0.312453 0.969055 0
888 1 0.293718 0.987125 0
861 1 0.354808 0.955115 0
889 1 0.322279 0.99105 0
891 1 0.338139 0.973164 0
890 1 0.345577 0.996936 0
862 1 0.363046 0.979217 0
864 1 0.380184 0.960707 0
893 1 0.386981 0.985225 0
895 1 0.4041 0.966469 0
897 1 0.435729 0.995071 0
896 1 0.411775 0.990265 0
866 1 0.428895 0.971944 0
868 1 0.453364 0.977276 0
1771 1 0.494294 0.963984 0
870 1 0.469912 0.959191 0
899 1 0.47767 0.982522 0
440 1 0.32286 0.502204 0
452 1 -0.000354378 0.523183 0
902 1 0.535541 0.0177558 0
931 1 0.519138 0.0361476 0
901 1 0.509637 0.0111895 0
933 1 0.543038 0.0413279 0
904 1 0.559541 0.0237898 0
906 1 0.576508 0.00541183 0
935 1 0.584284 0.028726 0
908 1 0.601745 0.0106061 0
937 1 0.610684 0.0344297 0
939 1 0.626553 0.0158585 0
938 1 0.634671 0.0402698 0
940 1 0.651846 0.0213349 0
971 1 0.671106 0.0383242 0
942 1 0.676294 0.012237 0
944 1 0.69459 0.030393 0
945 1 0.719422 0.0238274 0
943 1 0.700303 0.00609616 0
1397 1 0.773091 0.499362 0
947 1 0.742646 0.0170069 0
948 1 0.761163 0.0344959 0
918 1 0.766472 0.00983207 0
946 1 0.737225 0.0414752 0
919 1 0.790185 0.00373937 0
949 1 0.78447 0.0284411 0
920 1 0.809055 0.0217306 0
1349 1 0.964845 0.466164 0
951 1 0.833202 0.0153112 0
952 1 0.850793 0.0336387 0
922 1 0.857238 0.00935623 0
950 1 0.826769 0.0399206 0
953 1 0.874743 0.0276385 0
955 1 0.89896 0.0211378 0
924 1 0.882241 0.0028214 0
926 1 0.923205 0.0151548 0
928 1 0.947754 0.00815996 0
957 1 0.941846 0.0316559 0
956 1 0.917822 0.0386481 0
930 1 0.989309 0.0201073 0
959 1 0.965898 0.0259802 0
929 1 0.972063 0.00191619 0
932 1 0.526765 0.0598397 0
962 1 0.534009 0.0833565 0
961 1 0.509451 0.0774758 0
60 1 0.501532 0.0538043 0
934 1 0.569009 0.048177 0
963 1 0.551868 0.0655204 0
965 1 0.575873 0.072469 0
964 1 0.558703 0.0892165 0
936 1 0.592862 0.0523413 0
966 1 0.599579 0.0768044 0
967 1 0.616408 0.0586794 0
968 1 0.623785 0.0831534 0
969 1 0.640325 0.0657881 0
970 1 0.665291 0.0627432 0
999 1 0.654852 0.086764 0
972 1 0.683676 0.0789124 0
975 1 0.713031 0.0486715 0
973 1 0.689214 0.0549984 0
1003 1 0.707428 0.0723702 0
974 1 0.73133 0.0663377 0
976 1 0.754712 0.0589851 0
1005 1 0.748388 0.0844302 0
1007 1 0.771989 0.0785041 0
979 1 0.802572 0.0456928 0
977 1 0.778655 0.0524695 0
978 1 0.796253 0.0713869 0
1009 1 0.814192 0.089202 0
980 1 0.820857 0.0644821 0
981 1 0.844844 0.0581706 0
1011 1 0.839861 0.082462 0
982 1 0.863926 0.0764578 0
954 1 0.893805 0.0453901 0
983 1 0.869449 0.0520113 0
984 1 0.88679 0.0699429 0
1015 1 0.905491 0.0880452 0
985 1 0.911555 0.0630092 0
986 1 0.929153 0.0806131 0
987 1 0.935836 0.056731 0
988 1 0.953037 0.0756427 0
960 1 0.98341 0.0443122 0
958 1 0.958905 0.0507067 0
989 1 0.976995 0.0680853 0
990 1 0.995323 0.086969 0
991 1 0.51733 0.102545 0
992 1 0.525253 0.126907 0
993 1 0.541069 0.108054 0
1201 1 0.499276 0.344749 0
994 1 0.565466 0.113797 0
995 1 0.581825 0.0956478 0
1023 1 0.549934 0.133165 0
996 1 0.590099 0.120016 0
997 1 0.606319 0.10177 0
1027 1 0.614356 0.125109 0
998 1 0.630455 0.106225 0
1000 1 0.65419 0.111928 0
1001 1 0.676656 0.103003 0
1029 1 0.637958 0.131366 0
1004 1 0.72453 0.0912759 0
1031 1 0.6946 0.120924 0
1002 1 0.701039 0.097153 0
1033 1 0.718122 0.115696 0
1035 1 0.742273 0.109127 0
1006 1 0.765487 0.102626 0
1036 1 0.760343 0.127159 0
1034 1 0.736368 0.134875 0
1008 1 0.791285 0.095869 0
1037 1 0.784289 0.120234 0
1039 1 0.808576 0.113818 0
1040 1 0.827035 0.132285 0
1010 1 0.832717 0.106998 0
1012 1 0.857342 0.101012 0
1041 1 0.851375 0.125586 0
1043 1 0.874618 0.1191 0
1013 1 0.8808 0.0942046 0
1014 1 0.897484 0.11166 0
1016 1 0.916174 0.130808 0
1017 1 0.923097 0.105713 0
1018 1 0.946544 0.0993036 0
1047 1 0.939969 0.124239 0
1019 1 0.970397 0.0925625 0
1020 1 0.988394 0.111294 0
1049 1 0.964589 0.116439 0
1050 1 0.982817 0.134961 0
1021 1 0.507823 0.145252 0
1022 1 0.531958 0.150481 0
1053 1 0.539803 0.174652 0
1051 1 0.515293 0.169521 0
1025 1 0.573555 0.138771 0
1024 1 0.55612 0.156805 0
1055 1 0.581202 0.162264 0
1054 1 0.563939 0.181022 0
1026 1 0.597468 0.143331 0
1028 1 0.622183 0.150101 0
1057 1 0.604627 0.167821 0
1058 1 0.629878 0.173095 0
1030 1 0.66421 0.135396 0
1059 1 0.646587 0.154314 0
1061 1 0.671687 0.160552 0
1060 1 0.655581 0.17916 0
1032 1 0.688095 0.14401 0
1063 1 0.712153 0.140795 0
1062 1 0.702073 0.164661 0
1064 1 0.729733 0.159618 0
1065 1 0.754039 0.153194 0
1095 1 0.747784 0.176837 0
1066 1 0.77235 0.170387 0
1038 1 0.802061 0.139176 0
1067 1 0.778209 0.1463 0
1068 1 0.797008 0.162851 0
1069 1 0.820361 0.156248 0
1071 1 0.844247 0.149596 0
1070 1 0.838376 0.174149 0
1072 1 0.862381 0.167563 0
1044 1 0.891972 0.136786 0
1042 1 0.868516 0.143588 0
1073 1 0.886022 0.161312 0
1074 1 0.904012 0.179535 0
1045 1 0.91011 0.154998 0
1075 1 0.929149 0.172528 0
1046 1 0.934508 0.148262 0
1077 1 0.953074 0.167258 0
1048 1 0.958658 0.14123 0
1079 1 0.975613 0.159739 0
1080 1 0.99409 0.178135 0
1052 1 0.522668 0.193435 0
1082 1 0.529932 0.217013 0
1081 1 0.505791 0.212058 0
1083 1 0.547627 0.199761 0
1085 1 0.572173 0.204865 0
1084 1 0.555561 0.223037 0
1056 1 0.587306 0.186631 0
1086 1 0.596503 0.20969 0
1087 1 0.613704 0.191436 0
1088 1 0.622104 0.215049 0
1089 1 0.638912 0.196314 0
1090 1 0.664729 0.202646 0
1119 1 0.646854 0.22031 0
1091 1 0.682602 0.18301 0
1121 1 0.671876 0.226454 0
1092 1 0.688878 0.207656 0
1093 1 0.706603 0.189536 0
1123 1 0.713119 0.213638 0
1094 1 0.730945 0.194773 0
1096 1 0.755814 0.20195 0
1125 1 0.738148 0.219867 0
1099 1 0.815067 0.181691 0
1097 1 0.791487 0.18753 0
1127 1 0.781318 0.210573 0
1098 1 0.80705 0.207521 0
1129 1 0.82576 0.221661 0
1100 1 0.832078 0.199024 0
1101 1 0.856786 0.191417 0
1131 1 0.849484 0.215559 0
1102 1 0.874518 0.208871 0
1103 1 0.880449 0.185754 0
1104 1 0.89869 0.203967 0
1135 1 0.918498 0.22199 0
1105 1 0.922301 0.196814 0
1076 1 0.946648 0.191851 0
1107 1 0.965033 0.211226 0
1078 1 0.970383 0.185402 0
1109 1 0.989137 0.201241 0
1110 1 0.997581 0.224952 0
1111 1 0.51294 0.235214 0
1113 1 0.537274 0.240734 0
1112 1 0.519209 0.258871 0
1143 1 0.544971 0.264439 0
1115 1 0.579235 0.227819 0
1114 1 0.56292 0.246863 0
1116 1 0.587798 0.251605 0
1145 1 0.570022 0.271082 0
1117 1 0.604722 0.233063 0
1118 1 0.628554 0.239023 0
1147 1 0.611676 0.257402 0
1149 1 0.636054 0.263042 0
1120 1 0.653002 0.245355 0
1151 1 0.678446 0.251033 0
1150 1 0.660829 0.269519 0
1122 1 0.695242 0.2327 0
1124 1 0.720399 0.237709 0
1153 1 0.70346 0.256036 0
1154 1 0.727604 0.262403 0
1126 1 0.762538 0.226452 0
1155 1 0.74461 0.244159 0
1156 1 0.750898 0.269544 0
1157 1 0.768615 0.251573 0
1128 1 0.786988 0.234916 0
1159 1 0.811529 0.243058 0
1158 1 0.793768 0.259541 0
1160 1 0.818863 0.265473 0
1130 1 0.837491 0.246545 0
1161 1 0.860855 0.256258 0
1191 1 0.842602 0.273056 0
1133 1 0.891608 0.228196 0