ITEM: TIMESTEP
506000
ITEM: NUMBER OF ATOMS
1800
ITEM: BOX BOUNDS pp pp pp
-1.7719003122113762e+01 1.8271900312211559e+02
2.1717913906722259e+00 1.6282820860933015e+02
0.0000000000000000e+00 5.5000000000000000e+00
ITEM: ATOMS id type xs ys zs
928 1 0.0158294 0.0120294 0
957 1 0.0100136 0.037768 0
959 1 0.0302442 0.030236 0
929 1 0.0348953 0.00552071 0
930 1 0.0488543 0.022068 0
31 1 0.0643553 0.0403951 0
2 1 0.0689684 0.0164841 0
33 1 0.083268 0.0334239 0
3 1 0.0880142 0.00863018 0
4 1 0.102396 0.0247397 0
6 1 0.122426 0.0179491 0
37 1 0.136965 0.0356464 0
35 1 0.116809 0.0425151 0
5 1 0.107911 0.000667475 0
8 1 0.142628 0.0116583 0
39 1 0.157008 0.0293296 0
880 1 0.161663 0.00446544 0
9 1 0.176324 0.022249 0
40 1 0.190624 0.0399759 0
10 1 0.195766 0.0160314 0
41 1 0.210063 0.033583 0
12 1 0.215983 0.00955913 0
14 1 0.229398 0.0274692 0
45 1 0.244702 0.0456003 0
15 1 0.249324 0.02052 0
13 1 0.235716 0.00224713 0
46 1 0.268481 0.0178063 0
77 1 0.272206 0.0422644 0
47 1 0.287663 0.0242718 0
19 1 0.301699 0.00601469 0
49 1 0.307586 0.0309013 0
20 1 0.32102 0.012918 0
51 1 0.326974 0.037306 0
21 1 0.340933 0.0185608 0
22 1 0.346921 0.0430365 0
892 1 0.355893 0.000863848 0
23 1 0.36107 0.0251346 0
894 1 0.37558 0.00686669 0
24 1 0.380852 0.0314236 0
25 1 0.395243 0.0132591 0
26 1 0.400279 0.0383953 0
27 1 0.414309 0.0204353 0
28 1 0.420019 0.0442443 0
29 1 0.434482 0.027122 0
900 1 0.448711 0.00843317 0
30 1 0.454235 0.0330297 0
898 1 0.428816 0.00302702 0
902 1 0.487721 0.0212048 0
901 1 0.468137 0.0152715 0
931 1 0.473757 0.0397066 0
988 1 0.020195 0.0795112 0
958 1 0.0252148 0.0543647 0
987 1 0.00650276 0.0621672 0
986 1 0.00176554 0.0874831 0
960 1 0.0442849 0.047991 0
989 1 0.039558 0.0729709 0
61 1 0.0588911 0.0652975 0
990 1 0.0543342 0.0902338 0
62 1 0.0738783 0.0835756 0
32 1 0.0783686 0.058365 0
63 1 0.0924247 0.0753902 0
34 1 0.0978372 0.0496886 0
65 1 0.113006 0.0675085 0
66 1 0.12636 0.0848675 0
36 1 0.131643 0.0601706 0
69 1 0.170884 0.0462716 0
67 1 0.145772 0.0779203 0
38 1 0.150851 0.0536614 0
68 1 0.165736 0.0710983 0
71 1 0.185625 0.0633618 0
72 1 0.199891 0.0817225 0
42 1 0.205443 0.0577044 0
70 1 0.180423 0.0887363 0
43 1 0.22485 0.0519179 0
73 1 0.22037 0.0762659 0
44 1 0.240483 0.0718774 0
74 1 0.265275 0.0854497 0
75 1 0.259063 0.061502 0
76 1 0.278037 0.0674974 0
78 1 0.285317 0.0919104 0
48 1 0.293082 0.048544 0
79 1 0.299255 0.0730202 0
50 1 0.312915 0.0545797 0
81 1 0.31903 0.0791799 0
52 1 0.333273 0.0622882 0
82 1 0.33826 0.0868116 0
83 1 0.352582 0.0688585 0
53 1 0.366201 0.0509089 0
54 1 0.371721 0.0751734 0
55 1 0.385106 0.0568035 0
56 1 0.391899 0.0815741 0
57 1 0.405533 0.0630565 0
87 1 0.411088 0.0872031 0
58 1 0.425714 0.0690952 0
59 1 0.439579 0.0505045 0
89 1 0.445401 0.0766449 0
60 1 0.458733 0.0574535 0
933 1 0.493779 0.0447725 0
961 1 0.464073 0.0825634 0
963 1 0.498656 0.0696633 0
932 1 0.479063 0.0636448 0
962 1 0.484396 0.0875095 0
1047 1 0.011483 0.130027 0
1018 1 0.0159332 0.105187 0
1049 1 0.0301999 0.122999 0
1019 1 0.0350618 0.0980827 0
1020 1 0.0494591 0.115915 0
121 1 0.0653319 0.13281 0
91 1 0.0682735 0.108144 0
92 1 0.0841963 0.124639 0
93 1 0.0877785 0.100804 0
94 1 0.10325 0.117682 0
64 1 0.107278 0.0926731 0
95 1 0.122038 0.109863 0
96 1 0.137114 0.127398 0
125 1 0.117237 0.135211 0
97 1 0.141417 0.102382 0
98 1 0.156161 0.121294 0
99 1 0.160593 0.0940167 0
100 1 0.174888 0.112854 0
130 1 0.190039 0.130318 0
101 1 0.193614 0.106024 0
102 1 0.209479 0.124309 0
105 1 0.233336 0.0948612 0
103 1 0.213086 0.100075 0
104 1 0.2355 0.120269 0
106 1 0.25086 0.104255 0
137 1 0.25646 0.128426 0
107 1 0.271037 0.110099 0
108 1 0.277254 0.13434 0
109 1 0.290059 0.115634 0
80 1 0.304852 0.0983447 0
110 1 0.30924 0.121619 0
111 1 0.324265 0.103703 0
141 1 0.328987 0.128773 0
113 1 0.34329 0.110921 0
143 1 0.3492 0.135772 0
84 1 0.357948 0.093309 0
112 1 0.363145 0.116678 0
85 1 0.377329 0.0992704 0
115 1 0.382329 0.123645 0
86 1 0.396485 0.105557 0
116 1 0.401296 0.129796 0
117 1 0.416373 0.112723 0
88 1 0.430774 0.0945697 0
119 1 0.436594 0.118779 0
90 1 0.450137 0.100577 0
120 1 0.456141 0.124647 0
991 1 0.470097 0.105505 0
992 1 0.475336 0.130599 0
993 1 0.489034 0.11236 0
1075 1 0.00132934 0.179671 0
1048 1 0.0260511 0.147492 0
1077 1 0.0213548 0.171282 0
1046 1 0.00677111 0.154069 0
1079 1 0.0411151 0.164851 0
1050 1 0.0455951 0.140059 0
151 1 0.0603068 0.156698 0
152 1 0.0738538 0.174813 0
122 1 0.0792562 0.149885 0
153 1 0.0937085 0.167727 0
123 1 0.0983125 0.142948 0
124 1 0.111881 0.159107 0
126 1 0.132175 0.151069 0
155 1 0.127035 0.175919 0
129 1 0.170669 0.138158 0
157 1 0.147001 0.16888 0
127 1 0.151994 0.145409 0
128 1 0.166825 0.163694 0
159 1 0.186787 0.154112 0
132 1 0.194245 0.175747 0
131 1 0.208073 0.156203 0
133 1 0.223523 0.14146 0
134 1 0.227674 0.164758 0
135 1 0.242223 0.145694 0
165 1 0.247716 0.170167 0
136 1 0.262244 0.152641 0
167 1 0.267712 0.176625 0
138 1 0.281469 0.158425 0
139 1 0.296903 0.141025 0
169 1 0.301061 0.165567 0
140 1 0.315277 0.146818 0
171 1 0.320069 0.171911 0
142 1 0.333897 0.153373 0
172 1 0.340094 0.178476 0
173 1 0.353939 0.160497 0
114 1 0.368266 0.141314 0
144 1 0.373372 0.165692 0
145 1 0.388486 0.148164 0
118 1 0.421685 0.136291 0
146 1 0.393197 0.173046 0
147 1 0.407833 0.15463 0
177 1 0.412836 0.179121 0
148 1 0.427635 0.160858 0
149 1 0.44165 0.142442 0
150 1 0.447604 0.167493 0
1021 1 0.4608 0.149195 0
1051 1 0.467452 0.173522 0
1023 1 0.495669 0.136946 0
1022 1 0.480911 0.155063 0
1053 1 0.486141 0.180875 0
1076 1 0.0161603 0.197541 0
1106 1 0.0118692 0.222547 0
1107 1 0.0307383 0.215181 0
1078 1 0.0358169 0.189986 0
1080 1 0.0549891 0.182825 0
1109 1 0.0508482 0.208573 0
181 1 0.0698621 0.199364 0
182 1 0.0764172 0.22324 0
183 1 0.0904691 0.203851 0
154 1 0.108116 0.18681 0
185 1 0.11059 0.213331 0
156 1 0.126234 0.199554 0
186 1 0.131707 0.223023 0
158 1 0.146033 0.205787 0
160 1 0.159908 0.187268 0
189 1 0.165026 0.211717 0
161 1 0.179209 0.192983 0
191 1 0.184616 0.217556 0
162 1 0.199461 0.199575 0
192 1 0.204794 0.223202 0
163 1 0.214368 0.182265 0
193 1 0.219955 0.206836 0
164 1 0.23367 0.188022 0
195 1 0.23849 0.213764 0
166 1 0.253352 0.194622 0
196 1 0.258798 0.219581 0
197 1 0.272371 0.2013 0
198 1 0.27805 0.226255 0
168 1 0.287022 0.182505 0
199 1 0.292074 0.208444 0
170 1 0.306015 0.190243 0
200 1 0.311521 0.215058 0
201 1 0.325295 0.196669 0
202 1 0.330804 0.220162 0
203 1 0.345167 0.202306 0
233 1 0.350597 0.226413 0
174 1 0.359367 0.184668 0
204 1 0.365308 0.209266 0
175 1 0.378473 0.19068 0
205 1 0.383734 0.215173 0
176 1 0.397958 0.197053 0
207 1 0.403634 0.221977 0
178 1 0.418159 0.203787 0
179 1 0.432631 0.185052 0
209 1 0.438702 0.209736 0
180 1 0.452938 0.191501 0
1081 1 0.458327 0.215939 0
1052 1 0.471737 0.197377 0
1082 1 0.477234 0.222369 0
1083 1 0.491408 0.204272 0
1108 1 0.0279994 0.251941 0
1136 1 0.00705372 0.247373 0
1137 1 0.0135116 0.270421 0
1110 1 0.0433174 0.23429 0
1140 1 0.0479779 0.258713 0
211 1 0.0632254 0.241341 0
212 1 0.0676968 0.266578 0
213 1 0.0821336 0.248885 0
184 1 0.0970553 0.231304 0
214 1 0.101212 0.256698 0
215 1 0.116112 0.239568 0
216 1 0.121568 0.263941 0
217 1 0.135725 0.247406 0
218 1 0.140573 0.271756 0
187 1 0.150964 0.23008 0
188 1 0.154667 0.25337 0
190 1 0.170519 0.236506 0
220 1 0.175176 0.260217 0
221 1 0.190476 0.241793 0
222 1 0.194776 0.266188 0
223 1 0.209695 0.24938 0
194 1 0.223673 0.231105 0
224 1 0.229148 0.255375 0
225 1 0.24388 0.23733 0
226 1 0.248069 0.262371 0
227 1 0.262847 0.243712 0
257 1 0.268483 0.268893 0
228 1 0.282355 0.250178 0
229 1 0.296957 0.232978 0
230 1 0.302639 0.257154 0
231 1 0.316303 0.23899 0
261 1 0.322314 0.263005 0
232 1 0.335941 0.244329 0
263 1 0.342067 0.269517 0
234 1 0.355875 0.250532 0
235 1 0.370455 0.233491 0
265 1 0.376116 0.257836 0
206 1 0.390305 0.24048 0
208 1 0.424293 0.226808 0
236 1 0.396236 0.264239 0
237 1 0.409742 0.245613 0
238 1 0.415402 0.271248 0
239 1 0.429074 0.252673 0
210 1 0.443592 0.234041 0
240 1 0.448975 0.259509 0
1111 1 0.462747 0.240817 0
1112 1 0.469027 0.265894 0
1113 1 0.483095 0.246437 0
1084 1 0.496592 0.229163 0
1142 1 0.488291 0.272354 0
1167 1 0.000970758 0.289277 0
1138 1 0.0203112 0.294793 0
1197 1 0.00418679 0.313299 0
1139 1 0.0338893 0.276059 0
1169 1 0.0394728 0.301684 0
241 1 0.0529765 0.283515 0
271 1 0.0583014 0.309413 0
243 1 0.0870525 0.273111 0
242 1 0.072762 0.290773 0
244 1 0.0918528 0.298437 0
273 1 0.0776659 0.316225 0
245 1 0.106686 0.28059 0
246 1 0.111751 0.30618 0
247 1 0.126088 0.288459 0
248 1 0.131171 0.31225 0
249 1 0.146693 0.295671 0
219 1 0.160637 0.276979 0
250 1 0.166849 0.302032 0
253 1 0.214525 0.273848 0
251 1 0.180902 0.284331 0
281 1 0.185495 0.30925 0
252 1 0.199248 0.290513 0
283 1 0.205131 0.314985 0
254 1 0.219716 0.297156 0
255 1 0.233748 0.2796 0
285 1 0.239537 0.303711 0
256 1 0.253534 0.286117 0
287 1 0.259487 0.310181 0
258 1 0.274019 0.291815 0
288 1 0.278664 0.317324 0
259 1 0.288444 0.27447 0
289 1 0.293586 0.298596 0
260 1 0.307867 0.281079 0
291 1 0.313043 0.305176 0
262 1 0.327544 0.287075 0
292 1 0.332708 0.31187 0
293 1 0.347257 0.293844 0
264 1 0.361001 0.274938 0
295 1 0.366596 0.300272 0
266 1 0.381 0.281959 0
297 1 0.386837 0.307456 0
267 1 0.400256 0.288484 0
298 1 0.406055 0.314046 0
268 1 0.420545 0.295971 0
269 1 0.434442 0.276812 0
270 1 0.440316 0.302151 0
1141 1 0.4543 0.283545 0
300 1 0.460187 0.307598 0
1171 1 0.473847 0.289189 0
1172 1 0.478874 0.314305 0
1173 1 0.493549 0.296378 0
1168 1 0.0239417 0.319038 0
1199 1 0.0293455 0.344657 0
1198 1 0.0100375 0.337525 0
1228 1 0.0154102 0.362645 0
1170 1 0.0438707 0.325906 0
1229 1 0.0496667 0.350646 0
1200 1 0.0633105 0.333378 0
301 1 0.0684854 0.357899 0
272 1 0.0833445 0.340025 0
275 1 0.0980665 0.322834 0
274 1 0.102518 0.346994 0
276 1 0.117995 0.330057 0
305 1 0.122217 0.354399 0
277 1 0.136932 0.336534 0
307 1 0.142658 0.361032 0
279 1 0.151228 0.31855 0
278 1 0.156898 0.343378 0
280 1 0.171313 0.32656 0
311 1 0.17655 0.35081 0
282 1 0.191065 0.333219 0
312 1 0.19617 0.358131 0
313 1 0.210571 0.340412 0
284 1 0.224976 0.320583 0
315 1 0.230788 0.346373 0
286 1 0.244448 0.328657 0
316 1 0.249784 0.352252 0
317 1 0.264142 0.334475 0
318 1 0.268993 0.358779 0
319 1 0.283575 0.341806 0
290 1 0.298369 0.323293 0
320 1 0.302944 0.34808 0
321 1 0.317726 0.329944 0
294 1 0.352625 0.319068 0
322 1 0.323044 0.354198 0
323 1 0.337466 0.336102 0
324 1 0.343104 0.361008 0
325 1 0.357761 0.343741 0
296 1 0.371536 0.324454 0
326 1 0.377766 0.349559 0
327 1 0.392 0.331017 0
299 1 0.425781 0.320116 0
328 1 0.396144 0.355626 0
329 1 0.411094 0.338523 0
358 1 0.415711 0.362918 0
359 1 0.430835 0.343844 0
330 1 0.445147 0.325976 0
360 1 0.450214 0.351064 0
1201 1 0.464445 0.332252 0
1202 1 0.48512 0.338186 0
1231 1 0.470448 0.35579 0
1203 1 0.498805 0.321119 0
1287 1 0.0059031 0.405065 0
1258 1 0.0206544 0.387201 0
1259 1 0.0348332 0.368888 0
1257 1 0.00105173 0.379679 0
1260 1 0.0405028 0.394121 0
1230 1 0.0552045 0.375422 0
331 1 0.0596554 0.400199 0
303 1 0.0880039 0.364603 0
302 1 0.0743458 0.382376 0
333 1 0.0938951 0.389593 0
332 1 0.0793403 0.407659 0
304 1 0.107993 0.372322 0
335 1 0.113249 0.396503 0
306 1 0.12879 0.379657 0
337 1 0.132247 0.405352 0
308 1 0.147654 0.385958 0
309 1 0.162123 0.368412 0
339 1 0.166824 0.393163 0
310 1 0.18192 0.375899 0
341 1 0.186172 0.39991 0
343 1 0.201729 0.381738 0
342 1 0.206452 0.406828 0
314 1 0.215862 0.363937 0
344 1 0.220966 0.389283 0
345 1 0.235557 0.370904 0
346 1 0.240405 0.395099 0
347 1 0.255374 0.377101 0
377 1 0.260021 0.402433 0
348 1 0.274703 0.384647 0
378 1 0.279882 0.40885 0
349 1 0.288156 0.366715 0
350 1 0.294599 0.390169 0
351 1 0.308375 0.372437 0
381 1 0.313306 0.396698 0
353 1 0.328142 0.379158 0
352 1 0.333344 0.403075 0
354 1 0.347832 0.385197 0
355 1 0.363019 0.36705 0
356 1 0.368616 0.391218 0
357 1 0.381946 0.373712 0
386 1 0.387385 0.397836 0
387 1 0.401581 0.380049 0
388 1 0.407442 0.404941 0
389 1 0.421447 0.386392 0
1232 1 0.436262 0.368134 0
1261 1 0.44145 0.393236 0
1262 1 0.456258 0.374185 0
1293 1 0.461309 0.398365 0
1233 1 0.490112 0.36266 0
1263 1 0.475512 0.38053 0
1294 1 0.480865 0.405188 0
1264 1 0.494784 0.386333 0
1289 1 0.0253166 0.411889 0
1319 1 0.0307956 0.4359 0
1288 1 0.0108888 0.429255 0
1290 1 0.0452551 0.418565 0
391 1 0.0502854 0.443836 0
361 1 0.064841 0.425641 0
362 1 0.0691948 0.45085 0
363 1 0.08363 0.432673 0
334 1 0.0990024 0.413723 0
365 1 0.103572 0.439713 0
336 1 0.117857 0.421902 0
366 1 0.123458 0.445301 0
367 1 0.138348 0.429357 0
368 1 0.142747 0.453157 0
338 1 0.152322 0.411168 0
369 1 0.157315 0.435577 0
340 1 0.172354 0.417841 0
370 1 0.177674 0.442283 0
371 1 0.192331 0.425025 0
401 1 0.19723 0.450084 0
372 1 0.211723 0.431393 0
373 1 0.226261 0.413349 0
374 1 0.231049 0.437564 0
375 1 0.245183 0.419995 0
405 1 0.250705 0.443474 0
376 1 0.265435 0.425946 0
407 1 0.270779 0.450626 0
409 1 0.285012 0.433625 0
379 1 0.299672 0.414426 0
380 1 0.304498 0.43921 0
382 1 0.319394 0.421633 0
385 1 0.352558 0.408708 0
413 1 0.324484 0.445637 0
383 1 0.338739 0.428171 0
412 1 0.343846 0.452562 0
414 1 0.358206 0.433391 0
384 1 0.373409 0.416119 0
415 1 0.378386 0.440144 0
417 1 0.393219 0.422193 0
419 1 0.426882 0.410793 0
416 1 0.398226 0.447068 0
418 1 0.412665 0.430064 0
447 1 0.418274 0.452955 0
390 1 0.432147 0.43522 0
1291 1 0.446003 0.417607 0
1321 1 0.451274 0.441868 0
1292 1 0.465625 0.423632 0
1323 1 0.485777 0.430094 0
1322 1 0.470835 0.44884 0
1318 1 0.0156732 0.453603 0
1348 1 0.00118345 0.472783 0
1349 1 0.0209339 0.479817 0
1379 1 0.00693407 0.497172 0
1320 1 0.0352634 0.461922 0
421 1 0.0396991 0.486689 0
392 1 0.0557285 0.468726 0
422 1 0.0603254 0.493264 0
393 1 0.0749515 0.474921 0
364 1 0.0894099 0.456324 0
394 1 0.0942995 0.481524 0
395 1 0.10888 0.46415 0
396 1 0.114032 0.48859 0
397 1 0.128749 0.471881 0
427 1 0.134207 0.495818 0
398 1 0.14862 0.477758 0
399 1 0.162999 0.459379 0
429 1 0.167664 0.484348 0
400 1 0.181969 0.466224 0
431 1 0.188818 0.490745 0
402 1 0.202995 0.472968 0
432 1 0.20797 0.498157 0
403 1 0.217477 0.455393 0
433 1 0.221746 0.479602 0
404 1 0.236662 0.461884 0
435 1 0.241679 0.486924 0
406 1 0.256364 0.468105 0
436 1 0.261865 0.492823 0
408 1 0.275787 0.474617 0
439 1 0.281182 0.4998 0
410 1 0.289996 0.457425 0
441 1 0.295722 0.481804 0
411 1 0.309799 0.463918 0
440 1 0.315281 0.4883 0
442 1 0.329714 0.47033 0
471 1 0.335199 0.495278 0
473 1 0.348794 0.4764 0
443 1 0.363358 0.458532 0
444 1 0.368496 0.48274 0
445 1 0.384013 0.464347 0
475 1 0.38853 0.488604 0
448 1 0.423353 0.477724 0
446 1 0.403432 0.472752 0
477 1 0.408719 0.496433 0
1351 1 0.462096 0.490759 0
420 1 0.437309 0.460008 0
449 1 0.443059 0.484863 0
450 1 0.456542 0.466512 0
1352 1 0.482084 0.496739 0
1354 1 0.497147 0.478479 0
1353 1 0.475992 0.473252 0
1324 1 0.491217 0.454965 0
1380 1 0.0317731 0.530237 0
1350 1 0.0265831 0.506121 0
451 1 0.0463902 0.511861 0
452 1 0.0519815 0.536025 0
453 1 0.0660951 0.51802 0
454 1 0.0713115 0.542007 0
424 1 0.086282 0.525098 0
425 1 0.0999764 0.507028 0
455 1 0.105817 0.531465 0
423 1 0.0801983 0.499762 0
426 1 0.119785 0.512638 0
456 1 0.125563 0.537843 0
457 1 0.140342 0.519675 0
458 1 0.144698 0.544221 0
459 1 0.159277 0.527099 0
430 1 0.173329 0.508948 0
428 1 0.153326 0.502801 0
460 1 0.179414 0.533824 0
461 1 0.192889 0.515992 0
462 1 0.198571 0.540446 0
463 1 0.212578 0.521801 0
434 1 0.227298 0.504396 0
464 1 0.232302 0.529275 0
465 1 0.246863 0.510832 0
466 1 0.252015 0.535508 0
437 1 0.266493 0.5175 0
497 1 0.271756 0.542687 0
467 1 0.286645 0.525029 0
438 1 0.301033 0.50691 0
468 1 0.306451 0.531336 0
469 1 0.320452 0.512737 0
499 1 0.326534 0.536664 0
470 1 0.34091 0.519327 0
501 1 0.345991 0.543343 0
472 1 0.354482 0.500008 0
503 1 0.360495 0.525513 0
474 1 0.374052 0.507226 0
505 1 0.379989 0.53154 0
476 1 0.394093 0.51337 0
506 1 0.399207 0.537366 0
507 1 0.414295 0.520625 0
509 1 0.419059 0.54515 0
478 1 0.428272 0.502586 0
480 1 0.433313 0.526577 0
479 1 0.447686 0.50896 0
510 1 0.453159 0.533764 0
1381 1 0.467234 0.515196 0
1382 1 0.486779 0.521037 0
1411 1 0.472783 0.539471 0
1409 1 0.0168374 0.548567 0
1408 1 0.022581 0.572629 0
481 1 0.0367444 0.553923 0
1410 1 0.0425884 0.578653 0
483 1 0.056489 0.560291 0
482 1 0.062271 0.585314 0
485 1 0.0911062 0.54983 0
513 1 0.0765302 0.566764 0
484 1 0.0962336 0.573546 0
486 1 0.110628 0.556116 0
515 1 0.115556 0.581507 0
487 1 0.130973 0.562984 0
517 1 0.135927 0.5871 0
488 1 0.150406 0.569466 0
489 1 0.164287 0.55125 0
490 1 0.16989 0.575334 0
491 1 0.184409 0.558345 0
521 1 0.189728 0.582371 0
492 1 0.203658 0.564465 0
523 1 0.209113 0.589498 0
493 1 0.218293 0.54692 0
494 1 0.222565 0.57162 0
495 1 0.238885 0.553104 0
525 1 0.243658 0.577322 0
496 1 0.257692 0.559548 0
526 1 0.263756 0.584052 0
527 1 0.278235 0.566827 0
498 1 0.29168 0.549172 0
529 1 0.29786 0.572854 0
500 1 0.312355 0.554893 0
530 1 0.317287 0.579846 0
531 1 0.331668 0.561455 0
532 1 0.336628 0.585435 0
533 1 0.350762 0.56769 0
502 1 0.365753 0.54957 0
534 1 0.370626 0.575334 0
504 1 0.385434 0.556183 0
535 1 0.390298 0.58044 0
508 1 0.405133 0.562727 0
537 1 0.410704 0.586783 0
539 1 0.42431 0.569324 0
540 1 0.438704 0.550776 0
569 1 0.44436 0.575591 0
1441 1 0.458865 0.557957 0
1442 1 0.464082 0.581576 0
1413 1 0.492877 0.545502 0
1443 1 0.484598 0.588423 0
1412 1 0.479436 0.564338 0
1414 1 0.49858 0.570541 0
1439 1 0.0280418 0.597773 0
1438 1 0.00846717 0.60439 0
1469 1 0.00265502 0.628815 0
1440 1 0.021531 0.62311 0
511 1 0.0478842 0.603165 0
541 1 0.053053 0.627076 0
512 1 0.0683293 0.609529 0
514 1 0.0817243 0.590893 0
542 1 0.0731446 0.634259 0
543 1 0.0882749 0.617163 0
545 1 0.101567 0.599159 0
546 1 0.107801 0.623494 0
516 1 0.121131 0.604804 0
547 1 0.126794 0.63079 0
518 1 0.139942 0.611944 0
519 1 0.155849 0.594541 0
548 1 0.160701 0.618277 0
520 1 0.175142 0.600377 0
577 1 0.146043 0.636703 0
549 1 0.17999 0.625135 0
522 1 0.1952 0.606938 0
551 1 0.199181 0.630869 0
553 1 0.215156 0.614597 0
524 1 0.229098 0.595905 0
554 1 0.234634 0.619919 0
555 1 0.248671 0.60132 0
528 1 0.282917 0.591414 0
556 1 0.253686 0.62619 0
557 1 0.267687 0.609093 0
587 1 0.273801 0.633594 0
558 1 0.288057 0.616498 0
559 1 0.302504 0.597021 0
560 1 0.307426 0.621649 0
561 1 0.322401 0.60366 0
563 1 0.356347 0.592319 0
591 1 0.327674 0.627707 0
562 1 0.341484 0.609919 0
564 1 0.346798 0.634552 0
565 1 0.361068 0.616347 0
536 1 0.376473 0.59966 0
566 1 0.381461 0.623003 0
567 1 0.396381 0.604552 0
597 1 0.401261 0.629848 0
568 1 0.415969 0.612581 0
599 1 0.420585 0.635811 0
538 1 0.430505 0.594911 0
600 1 0.435355 0.618471 0
570 1 0.4503 0.600025 0
1501 1 0.455103 0.624273 0
1471 1 0.469551 0.60687 0
1472 1 0.474334 0.631383 0
1473 1 0.488817 0.613816 0
1529 1 0.0122562 0.670505 0
1499 1 0.0165175 0.64695 0
1500 1 0.0315521 0.665229 0
1470 1 0.0361049 0.640743 0
571 1 0.055151 0.651681 0
572 1 0.0637526 0.673823 0
601 1 0.0455175 0.682997 0
544 1 0.0923885 0.641459 0
573 1 0.0782617 0.658397 0
574 1 0.0970906 0.666276 0
575 1 0.111044 0.647718 0
605 1 0.116293 0.6719 0
576 1 0.131404 0.654767 0
607 1 0.136669 0.679612 0
578 1 0.151259 0.662118 0
579 1 0.165473 0.643562 0
609 1 0.170755 0.668434 0
550 1 0.185593 0.649278 0
580 1 0.190652 0.673939 0
581 1 0.20545 0.656389 0
611 1 0.211035 0.680672 0
552 1 0.220648 0.637543 0
582 1 0.225685 0.662226 0
583 1 0.23969 0.645227 0
584 1 0.245402 0.668622 0
585 1 0.259845 0.651406 0
615 1 0.264943 0.675226 0
586 1 0.280148 0.657951 0
589 1 0.294232 0.641123 0
588 1 0.29894 0.664835 0
590 1 0.313394 0.645279 0
621 1 0.318364 0.669923 0
593 1 0.332548 0.65287 0
592 1 0.338155 0.676324 0
594 1 0.352094 0.659093 0
595 1 0.366576 0.640696 0
625 1 0.371963 0.665542 0
596 1 0.386044 0.646575 0
627 1 0.392621 0.671641 0
598 1 0.406274 0.654023 0
657 1 0.411863 0.678384 0
628 1 0.426152 0.659438 0
629 1 0.440498 0.642153 0
630 1 0.445374 0.66645 0
1502 1 0.459952 0.648735 0
1505 1 0.49985 0.662029 0
1533 1 0.465318 0.673843 0
1474 1 0.494364 0.637752 0
1503 1 0.47962 0.655284 0
1504 1 0.485621 0.679837 0
1558 1 0.0023208 0.720735 0
1559 1 0.00693145 0.695978 0
1530 1 0.0257387 0.689224 0
1560 1 0.0219667 0.713057 0
631 1 0.0415992 0.706633 0
602 1 0.0631891 0.699109 0
632 1 0.056726 0.722446 0
603 1 0.0820976 0.684066 0
633 1 0.0864648 0.708723 0
604 1 0.101408 0.690742 0
635 1 0.106986 0.71485 0
606 1 0.121275 0.696958 0
636 1 0.127088 0.720856 0
637 1 0.141656 0.702685 0
608 1 0.156417 0.685833 0
638 1 0.162202 0.710094 0
639 1 0.175835 0.69188 0
667 1 0.147178 0.727225 0
641 1 0.182829 0.715342 0
610 1 0.196092 0.697201 0
642 1 0.202566 0.723016 0
612 1 0.216573 0.706266 0
613 1 0.230742 0.686356 0
643 1 0.236203 0.710858 0
614 1 0.250729 0.692556 0
617 1 0.284629 0.682214 0
645 1 0.255069 0.71747 0
616 1 0.269516 0.699734 0
647 1 0.275021 0.724177 0
618 1 0.289892 0.706446 0
619 1 0.304067 0.688463 0
620 1 0.309835 0.713378 0
622 1 0.323551 0.694838 0
651 1 0.329237 0.719615 0
653 1 0.343118 0.701981 0
654 1 0.349088 0.72586 0
623 1 0.357884 0.68364 0
624 1 0.363029 0.708131 0
626 1 0.377649 0.690023 0
655 1 0.382698 0.713696 0
656 1 0.397887 0.696323 0
686 1 0.402506 0.720193 0
658 1 0.417459 0.702285 0
687 1 0.422054 0.727224 0
659 1 0.431215 0.684135 0
660 1 0.436559 0.71017 0
1531 1 0.45059 0.692619 0
1561 1 0.456683 0.716223 0
1532 1 0.471043 0.698151 0
1563 1 0.476409 0.723376 0
1534 1 0.490448 0.704681 0
1619 1 0.0125929 0.763285 0
1589 1 0.0170339 0.738246 0
1590 1 0.0319677 0.755005 0
661 1 0.036782 0.730831 0
663 1 0.0525062 0.747878 0
662 1 0.0652744 0.766207 0
691 1 0.0465306 0.773066 0
664 1 0.0717879 0.741299 0
695 1 0.08562 0.758191 0
634 1 0.0917918 0.73346 0
665 1 0.111284 0.74152 0
697 1 0.11982 0.766061 0
666 1 0.132742 0.744769 0
668 1 0.14059 0.767588 0
669 1 0.154779 0.750276 0
640 1 0.168743 0.733364 0
670 1 0.17367 0.757553 0
671 1 0.188367 0.740544 0
672 1 0.192704 0.765006 0
673 1 0.207333 0.747907 0
644 1 0.22206 0.730134 0
674 1 0.226492 0.755107 0
675 1 0.241759 0.737088 0
705 1 0.246486 0.7614 0
646 1 0.260397 0.74323 0
677 1 0.266006 0.768784 0
648 1 0.279728 0.749532 0
649 1 0.295076 0.730812 0
679 1 0.300873 0.755621 0
650 1 0.31483 0.73809 0
681 1 0.320362 0.762026 0
652 1 0.33477 0.743384 0
682 1 0.339552 0.768558 0
683 1 0.354215 0.750423 0
685 1 0.368767 0.733392 0
684 1 0.375286 0.757493 0
715 1 0.388281 0.739198 0
714 1 0.39417 0.763945 0
717 1 0.40759 0.746175 0
716 1 0.413734 0.769711 0
688 1 0.427621 0.751802 0
689 1 0.441758 0.733838 0
719 1 0.447108 0.758896 0
690 1 0.461517 0.74191 0
1591 1 0.467356 0.765402 0
1565 1 0.496125 0.729492 0
1562 1 0.481512 0.747563 0
1593 1 0.487382 0.772153 0
1620 1 0.0272648 0.779765 0
1649 1 0.0210108 0.804179 0
1618 1 0.00668377 0.78674 0
1648 1 0.00163515 0.811339 0
721 1 0.0408528 0.797871 0
693 1 0.0604794 0.790781 0
692 1 0.0545225 0.815311 0
723 1 0.0741604 0.807801 0
694 1 0.0802108 0.783803 0
725 1 0.0931142 0.801592 0
696 1 0.101296 0.774164 0
727 1 0.111666 0.794326 0
728 1 0.127717 0.813221 0
698 1 0.131855 0.788781 0
699 1 0.158585 0.775481 0
700 1 0.146748 0.806678 0
731 1 0.165458 0.799266 0
703 1 0.212201 0.772653 0
701 1 0.179196 0.782568 0
702 1 0.197671 0.790754 0
763 1 0.202672 0.815677 0
732 1 0.182304 0.812903 0
733 1 0.217043 0.798053 0
704 1 0.231888 0.779478 0
706 1 0.236986 0.80383 0
676 1 0.251051 0.786141 0
737 1 0.256547 0.810143 0
707 1 0.271367 0.792903 0
738 1 0.276613 0.816734 0
678 1 0.285662 0.774011 0
708 1 0.291262 0.798462 0
709 1 0.305232 0.780396 0
710 1 0.311064 0.804607 0
680 1 0.324785 0.786393 0
741 1 0.331348 0.810561 0
711 1 0.345119 0.792044 0
742 1 0.35104 0.817704 0
713 1 0.359845 0.774665 0
712 1 0.364934 0.799254 0
743 1 0.379667 0.78203 0
745 1 0.384444 0.80581 0
746 1 0.399439 0.788102 0
775 1 0.404045 0.812989 0
747 1 0.418495 0.794293 0
718 1 0.433105 0.776276 0
749 1 0.438533 0.800749 0
720 1 0.452609 0.783148 0
1621 1 0.457766 0.807315 0
1623 1 0.492601 0.796352 0
1592 1 0.472968 0.788781 0
1622 1 0.478125 0.813657 0
1679 1 0.0156425 0.829003 0
1678 1 0.0110594 0.854174 0
1709 1 0.0300754 0.846256 0
1650 1 0.0352099 0.821926 0
1680 1 0.0502088 0.839822 0
752 1 0.0642795 0.857918 0
751 1 0.0694326 0.832225 0
781 1 0.0449515 0.864075 0
753 1 0.0838632 0.850658 0
722 1 0.0890472 0.826264 0
724 1 0.103495 0.842663 0
726 1 0.108264 0.818907 0
757 1 0.123003 0.837174 0
756 1 0.137718 0.854792 0
755 1 0.117899 0.861407 0
729 1 0.142921 0.83167 0
759 1 0.158023 0.847936 0
730 1 0.163326 0.823436 0
761 1 0.178877 0.839362 0
792 1 0.193428 0.858001 0
762 1 0.209211 0.841445 0
735 1 0.222854 0.822886 0
734 1 0.22874 0.847364 0
736 1 0.242145 0.828275 0
765 1 0.248304 0.853187 0
767 1 0.263405 0.83498 0
766 1 0.268641 0.85951 0
768 1 0.282781 0.841213 0
739 1 0.296453 0.822695 0
769 1 0.302385 0.847158 0
740 1 0.316386 0.828703 0
770 1 0.322275 0.853805 0
771 1 0.336335 0.834751 0
801 1 0.341673 0.860545 0
773 1 0.355432 0.842422 0
744 1 0.370736 0.823648 0
803 1 0.375324 0.84796 0
774 1 0.390169 0.830012 0
776 1 0.395619 0.855473 0
748 1 0.42464 0.819327 0
777 1 0.410781 0.83697 0
778 1 0.415847 0.861528 0
779 1 0.430099 0.843718 0
750 1 0.443918 0.825517 0
780 1 0.449513 0.849858 0
1651 1 0.463498 0.831498 0
1624 1 0.498192 0.819653 0
1652 1 0.469427 0.856426 0
1653 1 0.483753 0.837234 0
1683 1 0.489116 0.862588 0
1710 1 0.0262599 0.871265 0
1739 1 0.0201074 0.895918 0
1708 1 0.00611982 0.877889 0
1737 1 0.00109992 0.903549 0
811 1 0.0406383 0.888457 0
782 1 0.0599926 0.88227 0
812 1 0.0546307 0.907148 0
813 1 0.0747209 0.900309 0
783 1 0.0800961 0.874977 0
784 1 0.0932636 0.892304 0
754 1 0.098585 0.868367 0
785 1 0.113458 0.885336 0
786 1 0.129368 0.902519 0
787 1 0.133989 0.879129 0
760 1 0.173585 0.863819 0
788 1 0.149396 0.895747 0
758 1 0.153408 0.8718 0
789 1 0.168282 0.888066 0
764 1 0.212442 0.86653 0
791 1 0.187742 0.881629 0
823 1 0.201493 0.89895 0
790 1 0.181873 0.906295 0
793 1 0.220326 0.890779 0
795 1 0.233205 0.871491 0
794 1 0.240383 0.895789 0
796 1 0.254299 0.876936 0
825 1 0.26067 0.901516 0
827 1 0.274704 0.883394 0
826 1 0.279793 0.908293 0
797 1 0.288031 0.865196 0
798 1 0.293779 0.889968 0
799 1 0.307507 0.871169 0
829 1 0.312873 0.896176 0
800 1 0.327084 0.878416 0
831 1 0.333587 0.901923 0
802 1 0.347605 0.884284 0
833 1 0.352395 0.90903 0
772 1 0.361045 0.866364 0
804 1 0.367145 0.890678 0
805 1 0.381613 0.873283 0
806 1 0.386839 0.897693 0
807 1 0.402332 0.87988 0
837 1 0.40633 0.904823 0
808 1 0.421457 0.886706 0
809 1 0.435464 0.867134 0
810 1 0.440846 0.891666 0
1681 1 0.455142 0.87443 0
1711 1 0.460846 0.898679 0
1684 1 0.494256 0.887469 0
1682 1 0.474071 0.87999 0
1713 1 0.480237 0.904705 0
1738 1 0.0155785 0.921904 0
1768 1 0.010891 0.945693 0
1769 1 0.0305482 0.938699 0
1740 1 0.0360334 0.913964 0
841 1 0.0499261 0.931679 0
842 1 0.0647634 0.948727 0
843 1 0.06893 0.924221 0
844 1 0.0839986 0.942293 0
814 1 0.0886456 0.917643 0
845 1 0.103669 0.935712 0
815 1 0.108412 0.909606 0
816 1 0.123538 0.927017 0
847 1 0.138289 0.944319 0
846 1 0.118455 0.951623 0
817 1 0.144386 0.919877 0
818 1 0.157653 0.938048 0
819 1 0.163024 0.913641 0
820 1 0.177201 0.932147 0
851 1 0.1916 0.94953 0
821 1 0.196854 0.924317 0
822 1 0.211354 0.94228 0
824 1 0.217008 0.916149 0
853 1 0.230581 0.935341 0
855 1 0.2458 0.9193 0
854 1 0.250349 0.943471 0
856 1 0.264892 0.925364 0
885 1 0.271411 0.949881 0
857 1 0.285481 0.931886 0
828 1 0.299944 0.914816 0
859 1 0.3051 0.938997 0
830 1 0.320294 0.920395 0
860 1 0.324551 0.945222 0
832 1 0.339111 0.927697 0
861 1 0.344441 0.952018 0
863 1 0.359259 0.934055 0
834 1 0.371855 0.91485 0
865 1 0.378457 0.940832 0
835 1 0.392022 0.922427 0
839 1 0.426169 0.910666 0
836 1 0.397768 0.947527 0
838 1 0.411648 0.929034 0
867 1 0.417427 0.951799 0
869 1 0.431782 0.934675 0
840 1 0.446056 0.916194 0
1741 1 0.451158 0.941175 0
1714 1 0.499979 0.911851 0
1712 1 0.466415 0.922545 0
1743 1 0.484987 0.930197 0
1742 1 0.471801 0.948569 0
1744 1 0.491339 0.955163 0
1799 1 0.025774 0.963699 0
1798 1 0.0215919 0.988209 0
1797 1 0.00602398 0.971381 0
927 1 0.00127473 0.994782 0
1 1 0.055116 0.99865 0
1770 1 0.0453487 0.957249 0
1800 1 0.0398766 0.981422 0
871 1 0.0595895 0.973542 0
872 1 0.0736869 0.990915 0
873 1 0.0788464 0.966305 0
874 1 0.0939066 0.984044 0
875 1 0.0990265 0.959474 0
876 1 0.113134 0.976869 0
7 1 0.127628 0.994563 0
877 1 0.132543 0.969313 0
849 1 0.172628 0.95592 0
878 1 0.147214 0.98774 0
848 1 0.152656 0.962597 0
879 1 0.166492 0.980829 0
850 1 0.18702 0.973669 0
11 1 0.200869 0.991371 0
852 1 0.206889 0.966895 0
881 1 0.181313 0.998569 0
883 1 0.225776 0.959846 0
882 1 0.220798 0.984925 0
884 1 0.240238 0.976472 0
886 1 0.257589 0.968646 0
16 1 0.257402 0.995684 0
17 1 0.276551 0.97519 0
18 1 0.281439 0.998825 0
887 1 0.290168 0.957529 0
888 1 0.295829 0.982353 0
858 1 0.311155 0.96292 0
889 1 0.315993 0.986909 0
891 1 0.330653 0.969942 0
890 1 0.336452 0.994696 0
862 1 0.349829 0.975646 0
864 1 0.364597 0.958373 0
893 1 0.369022 0.98312 0
895 1 0.383914 0.964844 0
896 1 0.389673 0.98888 0
866 1 0.403377 0.971364 0
897 1 0.409858 0.995334 0
868 1 0.423251 0.977217 0
1771 1 0.456402 0.965424 0
1772 1 0.462377 0.989513 0
899 1 0.442736 0.984511 0
870 1 0.437647 0.959254 0
903 1 0.481609 0.996865 0
1774 1 0.496561 0.980252 0
1773 1 0.47672 0.972491 0
904 1 0.507609 0.0278355 0
906 1 0.522155 0.00917305 0
935 1 0.527418 0.0334665 0
905 1 0.502707 0.0039993 0
908 1 0.541801 0.0157327 0
937 1 0.54748 0.0407753 0
939 1 0.561099 0.0232297 0
941 1 0.575645 0.00461292 0
940 1 0.581327 0.0291572 0
942 1 0.795591 0.0229972 0
944 1 0.810861 0.0403846 0
943 1 0.815493 0.0152884 0
945 1 0.830044 0.0344325 0
914 1 0.835255 0.0083298 0
947 1 0.849105 0.0273125 0
916 1 0.85482 0.00292829 0
918 1 0.869179 0.0193769 0
949 1 0.884047 0.038034 0
948 1 0.86435 0.044561 0
919 1 0.889681 0.0130374 0
920 1 0.904089 0.0308022 0
1790 1 0.909106 0.00606046 0
951 1 0.923549 0.0238584 0
952 1 0.938041 0.0416299 0
922 1 0.94314 0.0170427 0
953 1 0.95772 0.0344666 0
924 1 0.962437 0.00972036 0
955 1 0.976675 0.0273186 0