ITEM: TIMESTEP
54000
ITEM: NUMBER OF ATOMS
1800
ITEM: BOX BOUNDS pp pp pp
3.1182566395182221e-01 1.6468817433605000e+02
2.2977852668678622e+00 1.6270221473313507e+02
0.0000000000000000e+00 5.5000000000000000e+00
ITEM: ATOMS id type xs ys zs
2 1 0.0139114 0.0133514 0
3 1 0.0368374 0.00551871 0
31 1 0.00674458 0.0376794 0
33 1 0.0308667 0.0303801 0
4 1 0.0546722 0.0229197 0
6 1 0.0795128 0.0160272 0
35 1 0.0729004 0.0418046 0
120 1 0.496859 0.126503 0
8 1 0.102769 0.0112531 0
37 1 0.0960167 0.0351265 0
39 1 0.120646 0.0294211 0
880 1 0.126703 0.00443712 0
9 1 0.145238 0.0240954 0
10 1 0.168863 0.0171808 0
40 1 0.163563 0.0412715 0
41 1 0.187065 0.0348783 0
12 1 0.193832 0.0111473 0
14 1 0.211417 0.0288332 0
13 1 0.218721 0.00406328 0
15 1 0.235958 0.0224198 0
16 1 0.258994 0.0161229 0
46 1 0.253082 0.0413463 0
47 1 0.277407 0.0342917 0
18 1 0.282221 0.0097601 0
49 1 0.312738 0.0363832 0
19 1 0.305627 0.0120206 0
20 1 0.33063 0.0187795 0
21 1 0.354548 0.0236325 0
51 1 0.336907 0.0418187 0
23 1 0.378999 0.0290344 0
894 1 0.395003 0.0111823 0
24 1 0.403063 0.0348797 0
892 1 0.370854 0.0047645 0
25 1 0.420071 0.0173063 0
27 1 0.445235 0.0235078 0
26 1 0.427387 0.0408941 0
29 1 0.468549 0.0297394 0
900 1 0.48515 0.0108649 0
30 1 0.492842 0.0353495 0
898 1 0.460737 0.00476111 0
32 1 0.0249281 0.0557608 0
62 1 0.0169344 0.080141 0
63 1 0.0410645 0.0738386 0
34 1 0.0484148 0.048856 0
65 1 0.0652342 0.0667162 0
66 1 0.0826206 0.0841 0
36 1 0.090152 0.0599136 0
38 1 0.114117 0.053843 0
67 1 0.107604 0.0781814 0
68 1 0.131529 0.0720138 0
69 1 0.138174 0.0485712 0
71 1 0.156125 0.0658617 0
72 1 0.173838 0.0838359 0
70 1 0.149297 0.0905309 0
42 1 0.180541 0.0592308 0
43 1 0.204479 0.0530108 0
73 1 0.198448 0.077483 0
44 1 0.222103 0.071169 0
45 1 0.229282 0.0475757 0
75 1 0.246675 0.0660374 0
76 1 0.263169 0.0851811 0
77 1 0.270739 0.0591277 0
48 1 0.295233 0.0535873 0
79 1 0.303272 0.0775209 0
22 1 0.361421 0.0477278 0
50 1 0.319514 0.0600152 0
81 1 0.327037 0.0836331 0
52 1 0.343685 0.0656685 0
82 1 0.350685 0.0895283 0
53 1 0.385887 0.0520889 0
83 1 0.36993 0.0712456 0
54 1 0.393279 0.0773771 0
28 1 0.451116 0.0481082 0
55 1 0.40974 0.0592243 0
57 1 0.434876 0.0662284 0
56 1 0.417594 0.0843668 0
87 1 0.4428 0.089341 0
59 1 0.47602 0.0532196 0
58 1 0.459121 0.0711209 0
89 1 0.483978 0.0777673 0
92 1 0.0286762 0.12209 0
93 1 0.0345388 0.0974939 0
91 1 0.0104494 0.104478 0
121 1 0.00493754 0.12949 0
64 1 0.0593725 0.0901677 0
94 1 0.0525038 0.114411 0
95 1 0.0763634 0.108748 0
125 1 0.0693754 0.133654 0
96 1 0.0928153 0.126515 0
97 1 0.0999962 0.10186 0
98 1 0.116868 0.119828 0
99 1 0.125234 0.0956926 0
100 1 0.140877 0.114117 0
101 1 0.166999 0.107757 0
130 1 0.159264 0.131742 0
103 1 0.191579 0.100947 0
102 1 0.183761 0.126088 0
105 1 0.215814 0.0960989 0
104 1 0.207347 0.120236 0
74 1 0.239598 0.0904416 0
106 1 0.233299 0.11419 0
137 1 0.252015 0.129986 0
107 1 0.268865 0.111477 0
78 1 0.285984 0.0945235 0
109 1 0.292581 0.118599 0
80 1 0.310162 0.101866 0
108 1 0.276314 0.136453 0
110 1 0.318141 0.125155 0
111 1 0.334802 0.107406 0
141 1 0.341789 0.132143 0
113 1 0.358155 0.113384 0
84 1 0.376892 0.095093 0
112 1 0.383335 0.119767 0
85 1 0.40113 0.102351 0
115 1 0.407919 0.12695 0
86 1 0.42512 0.108568 0
116 1 0.431848 0.132615 0
117 1 0.449252 0.114424 0
88 1 0.466413 0.0953276 0
119 1 0.47262 0.120964 0
90 1 0.490549 0.102354 0
122 1 0.0218111 0.147985 0
152 1 0.0153949 0.173184 0
153 1 0.0399941 0.166268 0
123 1 0.0456868 0.139909 0
124 1 0.0632972 0.158659 0
155 1 0.0800527 0.175424 0
126 1 0.08761 0.150686 0
127 1 0.111058 0.144139 0
128 1 0.128385 0.161104 0
157 1 0.104917 0.16876 0
129 1 0.13528 0.137666 0
159 1 0.153235 0.157919 0
131 1 0.177379 0.149161 0
132 1 0.181408 0.173521 0
133 1 0.201222 0.144756 0
134 1 0.219927 0.16184 0
135 1 0.226611 0.137223 0
136 1 0.259422 0.153218 0
165 1 0.242477 0.171115 0
167 1 0.266576 0.178204 0
139 1 0.300729 0.142448 0
138 1 0.283878 0.161643 0
169 1 0.307509 0.167065 0
140 1 0.32457 0.148695 0
142 1 0.349756 0.155669 0
171 1 0.332519 0.172372 0
172 1 0.356525 0.180257 0
143 1 0.365931 0.136829 0
114 1 0.390735 0.144392 0
144 1 0.398181 0.16875 0
173 1 0.373006 0.161905 0
145 1 0.414836 0.149803 0
146 1 0.421056 0.17532 0
147 1 0.438538 0.15668 0
177 1 0.445724 0.180497 0
118 1 0.455684 0.138421 0
149 1 0.479857 0.145187 0
148 1 0.462723 0.162969 0
150 1 0.487266 0.17003 0
183 1 0.0334692 0.191903 0
182 1 0.0389707 0.216039 0
181 1 0.00950693 0.198428 0
154 1 0.0567385 0.184363 0
184 1 0.0629769 0.223725 0
185 1 0.0760667 0.201586 0
186 1 0.102903 0.215797 0
156 1 0.0988946 0.19214 0
158 1 0.122166 0.1981 0
187 1 0.126754 0.224108 0
160 1 0.14055 0.181854 0
161 1 0.163594 0.191742 0
189 1 0.145252 0.206954 0
191 1 0.169316 0.215703 0
163 1 0.203976 0.180739 0
162 1 0.187232 0.198656 0
193 1 0.209604 0.206857 0
192 1 0.192902 0.223993 0
164 1 0.226598 0.189582 0
195 1 0.234329 0.213815 0
166 1 0.250428 0.196652 0
196 1 0.257293 0.221214 0
168 1 0.291658 0.185173 0
197 1 0.273622 0.202347 0
199 1 0.297774 0.209251 0
170 1 0.31488 0.190637 0
201 1 0.338129 0.196817 0
200 1 0.321119 0.215473 0
202 1 0.344537 0.221609 0
174 1 0.380644 0.18652 0
203 1 0.362243 0.204346 0
204 1 0.386908 0.211541 0
175 1 0.404484 0.193174 0
205 1 0.410666 0.217054 0
176 1 0.427863 0.198773 0
207 1 0.435092 0.224314 0
178 1 0.45195 0.206116 0
179 1 0.469645 0.188035 0
209 1 0.475792 0.211767 0
180 1 0.493818 0.193707 0
212 1 0.0261137 0.257871 0
211 1 0.020837 0.233361 0
1140 1 0.00233526 0.250039 0
213 1 0.0448913 0.240927 0
243 1 0.0493298 0.266182 0
215 1 0.085272 0.232226 0
214 1 0.0677225 0.249477 0
216 1 0.0908166 0.258044 0
217 1 0.108554 0.241511 0
218 1 0.11404 0.265601 0
188 1 0.13184 0.248348 0
190 1 0.15012 0.231207 0
221 1 0.173968 0.23937 0
220 1 0.156016 0.256191 0
222 1 0.179555 0.264722 0
194 1 0.216215 0.231044 0
223 1 0.197716 0.247707 0
224 1 0.221931 0.255427 0
225 1 0.239558 0.23806 0
227 1 0.263492 0.24528 0
226 1 0.24508 0.262517 0
257 1 0.270062 0.269898 0
198 1 0.280848 0.227543 0
229 1 0.304215 0.233335 0
228 1 0.287713 0.251853 0
230 1 0.311567 0.259151 0
231 1 0.327742 0.240351 0
232 1 0.351539 0.24719 0
261 1 0.335157 0.265398 0
263 1 0.358058 0.272082 0
233 1 0.368828 0.229062 0
235 1 0.392866 0.235884 0
234 1 0.37569 0.253448 0
265 1 0.398391 0.260083 0
206 1 0.417361 0.241536 0
237 1 0.440472 0.248955 0
236 1 0.422508 0.26623 0
238 1 0.446655 0.272984 0
208 1 0.458189 0.231038 0
210 1 0.481756 0.236881 0
239 1 0.465443 0.256158 0
240 1 0.488891 0.261203 0
241 1 0.0088536 0.274748 0
242 1 0.031185 0.282921 0
271 1 0.0142605 0.299264 0
273 1 0.0371295 0.308017 0
245 1 0.0726919 0.27467 0
244 1 0.054818 0.29101 0
246 1 0.0778396 0.298772 0
275 1 0.06097 0.314823 0
247 1 0.0963853 0.28212 0
249 1 0.120582 0.290209 0
248 1 0.101593 0.306524 0
279 1 0.125875 0.314394 0
219 1 0.138327 0.273587 0
251 1 0.161719 0.280012 0
250 1 0.144279 0.297928 0
281 1 0.16758 0.306818 0
253 1 0.203479 0.272279 0
252 1 0.186207 0.289786 0
254 1 0.20894 0.296876 0
283 1 0.191891 0.313934 0
255 1 0.227839 0.280869 0
256 1 0.25131 0.288202 0
285 1 0.234181 0.30485 0
287 1 0.258244 0.311426 0
259 1 0.293269 0.27632 0
258 1 0.27527 0.29356 0
289 1 0.299031 0.301436 0
260 1 0.317273 0.28362 0
262 1 0.340824 0.28977 0
291 1 0.323145 0.307593 0
292 1 0.346573 0.315071 0
264 1 0.381177 0.278844 0
293 1 0.365369 0.296205 0
295 1 0.388466 0.303813 0
266 1 0.4047 0.285223 0
267 1 0.429426 0.290762 0
297 1 0.412294 0.309744 0
298 1 0.43567 0.316313 0
269 1 0.471345 0.28075 0
268 1 0.453613 0.296899 0
270 1 0.478327 0.304446 0
1200 1 0.018296 0.324052 0
272 1 0.0427232 0.333315 0
301 1 0.0242315 0.349676 0
449 1 0.48029 0.488796 0
303 1 0.0483097 0.358691 0
276 1 0.0846683 0.324629 0
274 1 0.0665933 0.34107 0
305 1 0.090915 0.349216 0
277 1 0.10838 0.33214 0
307 1 0.11414 0.356739 0
278 1 0.131589 0.339766 0
280 1 0.150167 0.322887 0
282 1 0.173621 0.330504 0
311 1 0.155436 0.348656 0
312 1 0.179121 0.355425 0
284 1 0.215339 0.322235 0
313 1 0.198006 0.337874 0
315 1 0.221972 0.346837 0
286 1 0.239513 0.329032 0
317 1 0.26326 0.336129 0
316 1 0.246353 0.354303 0
318 1 0.270536 0.36112 0
288 1 0.281221 0.318908 0
290 1 0.305217 0.325766 0
319 1 0.287973 0.343078 0
320 1 0.311451 0.350129 0
321 1 0.329252 0.333641 0
323 1 0.352715 0.339861 0
322 1 0.335773 0.357287 0
294 1 0.370407 0.322026 0
296 1 0.395238 0.328484 0
325 1 0.377178 0.346404 0
326 1 0.400686 0.35275 0
327 1 0.419085 0.334965 0
328 1 0.424631 0.359313 0
329 1 0.442175 0.340519 0
299 1 0.459913 0.322169 0
359 1 0.465259 0.346817 0
330 1 0.483766 0.329252 0
360 1 0.489657 0.354037 0
1230 1 0.00594693 0.366331 0
302 1 0.0298734 0.37451 0
332 1 0.0361022 0.400198 0
331 1 0.0111358 0.391122 0
304 1 0.0730295 0.36535 0
333 1 0.0536124 0.382697 0
335 1 0.0772238 0.38981 0
334 1 0.0604606 0.408234 0
306 1 0.0961675 0.374282 0
308 1 0.120506 0.381886 0
337 1 0.102484 0.398282 0
338 1 0.126462 0.406651 0
309 1 0.137917 0.364601 0
310 1 0.161956 0.372916 0
339 1 0.143654 0.389314 0
341 1 0.168095 0.397208 0
314 1 0.20429 0.363708 0
343 1 0.185426 0.380286 0
342 1 0.191864 0.404662 0
344 1 0.209987 0.387702 0
345 1 0.228214 0.371761 0
347 1 0.25184 0.379639 0
346 1 0.234135 0.395663 0
377 1 0.25789 0.403743 0
349 1 0.294128 0.367116 0
348 1 0.275965 0.385595 0
350 1 0.29985 0.392142 0
351 1 0.316868 0.374467 0
324 1 0.359376 0.364162 0
381 1 0.32365 0.40035 0
353 1 0.34121 0.3818 0
352 1 0.347317 0.407224 0
355 1 0.384352 0.371347 0
354 1 0.366008 0.388724 0
356 1 0.389079 0.395733 0
357 1 0.407598 0.378354 0
387 1 0.431193 0.384102 0
358 1 0.448123 0.365946 0
389 1 0.45475 0.390134 0
386 1 0.413624 0.402502 0
1232 1 0.472709 0.371816 0
1262 1 0.496669 0.378542 0
1261 1 0.478889 0.396421 0
361 1 0.018688 0.416881 0
362 1 0.0244445 0.441564 0
363 1 0.0421537 0.425175 0
336 1 0.0847794 0.41485 0
364 1 0.0488093 0.449299 0
365 1 0.0662975 0.432246 0
366 1 0.0901581 0.439794 0
367 1 0.108208 0.423457 0
368 1 0.113314 0.448194 0
369 1 0.131409 0.431731 0
340 1 0.150394 0.414576 0
371 1 0.174244 0.422943 0
370 1 0.155409 0.439547 0
401 1 0.179534 0.447477 0
373 1 0.215292 0.412845 0
372 1 0.197556 0.431092 0
374 1 0.222029 0.439259 0
375 1 0.239719 0.421155 0
376 1 0.264012 0.428261 0
405 1 0.246597 0.445223 0
407 1 0.270071 0.453755 0
378 1 0.282273 0.410601 0
379 1 0.306571 0.41791 0
409 1 0.289655 0.435872 0
380 1 0.312827 0.442753 0
382 1 0.329659 0.426005 0
413 1 0.336092 0.450325 0
383 1 0.353743 0.431792 0
385 1 0.371325 0.4141 0
414 1 0.379065 0.439382 0
384 1 0.395232 0.421294 0
415 1 0.402037 0.445548 0
417 1 0.420012 0.426726 0
388 1 0.436959 0.408052 0
418 1 0.443195 0.43336 0
416 1 0.425122 0.452067 0
419 1 0.460695 0.414338 0
390 1 0.46712 0.439172 0
1291 1 0.484323 0.420962 0
1321 1 0.491128 0.445707 0
392 1 0.00585229 0.45843 0
393 1 0.0301759 0.466365 0
422 1 0.0117924 0.483109 0
423 1 0.0354873 0.490443 0
395 1 0.0719638 0.45656 0
394 1 0.0539001 0.474289 0
396 1 0.0777741 0.481876 0
425 1 0.0593852 0.498703 0
397 1 0.0949966 0.464139 0
398 1 0.119492 0.472647 0
427 1 0.101078 0.489861 0
428 1 0.124252 0.496982 0
399 1 0.137277 0.455653 0
400 1 0.161053 0.464867 0
429 1 0.142808 0.480122 0
431 1 0.1677 0.489102 0
403 1 0.203695 0.455506 0
402 1 0.185277 0.472322 0
432 1 0.190958 0.497058 0
433 1 0.209598 0.479199 0
404 1 0.228856 0.463735 0
406 1 0.252124 0.470942 0
435 1 0.233578 0.487804 0
436 1 0.258043 0.4945 0
410 1 0.295022 0.460274 0
408 1 0.277225 0.477764 0
441 1 0.300562 0.485282 0
411 1 0.318704 0.468354 0
412 1 0.361338 0.45603 0
442 1 0.342731 0.475026 0
440 1 0.323909 0.492804 0
473 1 0.366332 0.481489 0
443 1 0.384809 0.463349 0
444 1 0.39015 0.489117 0
445 1 0.407194 0.470557 0
475 1 0.414616 0.495591 0
447 1 0.449202 0.457766 0
446 1 0.431255 0.476856 0
420 1 0.473546 0.464594 0
448 1 0.455576 0.482715 0
450 1 0.497322 0.470094 0
1081 1 0.499675 0.218705 0
1141 1 0.495743 0.286572 0
391 1 -6.24228e-07 0.434155 0
61 1 0.000176123 0.0622698 0
1229 1 -0.000502619 0.341576 0
454 1 0.024156 0.532875 0
453 1 0.0173835 0.507902 0
424 1 0.0411661 0.515571 0
485 1 0.0471689 0.541424 0
455 1 0.0652807 0.523707 0
426 1 0.0831349 0.507238 0
456 1 0.0889978 0.531865 0
457 1 0.107562 0.514645 0
458 1 0.112539 0.538675 0
459 1 0.131206 0.521348 0
460 1 0.154496 0.527891 0
461 1 0.172964 0.513592 0
430 1 0.148814 0.504336 0
462 1 0.179642 0.537901 0
434 1 0.214925 0.50516 0
463 1 0.19752 0.521493 0
464 1 0.222172 0.530502 0
493 1 0.204449 0.546457 0
466 1 0.246621 0.538394 0
465 1 0.240299 0.512056 0
437 1 0.263525 0.519744 0
467 1 0.288508 0.528523 0
438 1 0.30676 0.510802 0
468 1 0.311566 0.535317 0
439 1 0.282846 0.502095 0
469 1 0.330671 0.518815 0
470 1 0.353897 0.526135 0
571 1 0.000972608 0.640378 0
499 1 0.335278 0.544158 0
472 1 0.372008 0.506453 0
503 1 0.378569 0.531816 0
474 1 0.396588 0.513148 0
505 1 0.402748 0.537757 0
476 1 0.420042 0.51993 0
477 1 0.438492 0.50126 0
507 1 0.444742 0.526014 0
506 1 0.426731 0.543847 0
478 1 0.46255 0.507468 0
480 1 0.468775 0.53175 0
479 1 0.485993 0.514213 0
510 1 0.493253 0.537694 0
483 1 0.00522955 0.549431 0
513 1 0.0285322 0.55911 0
514 1 0.0342509 0.583631 0
482 1 0.0105581 0.574061 0
486 1 0.0714196 0.548316 0
484 1 0.0517541 0.56722 0
515 1 0.0771889 0.574387 0
545 1 0.0584807 0.590937 0
489 1 0.136195 0.545632 0
487 1 0.0944317 0.555591 0
488 1 0.117707 0.564034 0
517 1 0.100331 0.581895 0
519 1 0.124437 0.589671 0
491 1 0.159243 0.553338 0
490 1 0.141345 0.570193 0
521 1 0.165837 0.576894 0
492 1 0.185921 0.561748 0
523 1 0.189839 0.586122 0
494 1 0.209939 0.571057 0
495 1 0.227901 0.554024 0
496 1 0.252131 0.563594 0
525 1 0.23404 0.580444 0
497 1 0.271303 0.546576 0
526 1 0.256899 0.58805 0
527 1 0.277852 0.571791 0
498 1 0.294985 0.554353 0
529 1 0.3006 0.580343 0
500 1 0.318403 0.562651 0
501 1 0.361498 0.550107 0
531 1 0.344142 0.568212 0
530 1 0.324347 0.587429 0
533 1 0.368014 0.575647 0
502 1 0.385498 0.556756 0
534 1 0.392827 0.580871 0
504 1 0.409705 0.562624 0
508 1 0.435068 0.568489 0
509 1 0.451881 0.549949 0
535 1 0.417441 0.586877 0
539 1 0.458328 0.574183 0
540 1 0.476309 0.555366 0
569 1 0.483895 0.580549 0
512 1 0.0156855 0.598614 0
542 1 0.0200022 0.623557 0
543 1 0.0405986 0.606672 0
544 1 0.0438322 0.631303 0
516 1 0.0824561 0.599658 0
546 1 0.0637456 0.61613 0
547 1 0.0874523 0.625571 0
518 1 0.105736 0.607795 0
548 1 0.128365 0.616498 0
577 1 0.111069 0.637399 0
520 1 0.147764 0.594058 0
522 1 0.171 0.601574 0
549 1 0.152331 0.617108 0
551 1 0.174541 0.626563 0
524 1 0.213359 0.595664 0
553 1 0.194005 0.611497 0
554 1 0.217795 0.620029 0
552 1 0.197183 0.635731 0
555 1 0.236603 0.60444 0
556 1 0.240449 0.630265 0
557 1 0.260811 0.613591 0
528 1 0.283032 0.598906 0
559 1 0.306117 0.607678 0
558 1 0.284692 0.625003 0
561 1 0.332284 0.612464 0
532 1 0.350107 0.593182 0
562 1 0.359296 0.617147 0
563 1 0.37623 0.599172 0
565 1 0.383889 0.623617 0
536 1 0.400843 0.604424 0
566 1 0.407567 0.628934 0
537 1 0.441726 0.593845 0
567 1 0.424916 0.611696 0
568 1 0.448105 0.619056 0
538 1 0.466629 0.598907 0
570 1 0.490659 0.604639 0
600 1 0.474599 0.62311 0
1501 1 0.497965 0.629796 0
870 1 0.470039 0.962749 0
573 1 0.024522 0.64734 0
603 1 0.0289972 0.672348 0
572 1 0.00630104 0.664687 0
574 1 0.047382 0.655795 0
604 1 0.051474 0.681217 0
575 1 0.0676116 0.641099 0
605 1 0.0704153 0.665338 0
576 1 0.0904697 0.651284 0
607 1 0.0914731 0.677336 0
578 1 0.113265 0.663832 0
579 1 0.132945 0.651068 0
609 1 0.134877 0.676798 0
550 1 0.155046 0.640893 0
581 1 0.176876 0.651111 0
580 1 0.156135 0.66501 0
611 1 0.178858 0.676331 0
583 1 0.219456 0.645023 0
582 1 0.199379 0.660942 0
584 1 0.222166 0.67185 0
587 1 0.263999 0.639932 0
585 1 0.241888 0.656157 0
586 1 0.26495 0.666876 0
560 1 0.308456 0.634107 0
589 1 0.286776 0.650471 0
588 1 0.28666 0.679017 0
590 1 0.30685 0.665791 0
591 1 0.343612 0.634559 0
593 1 0.349717 0.659968 0
621 1 0.326595 0.651489 0
622 1 0.33152 0.6779 0
564 1 0.367506 0.642402 0
594 1 0.374197 0.667901 0
595 1 0.390939 0.64891 0
625 1 0.398633 0.674247 0
596 1 0.415195 0.654437 0
597 1 0.431634 0.636605 0
598 1 0.439349 0.660421 0
627 1 0.423283 0.679195 0
599 1 0.457077 0.641842 0
629 1 0.480445 0.648389 0
628 1 0.463909 0.667198 0
630 1 0.487429 0.67251 0
632 1 0.0019476 0.717253 0
633 1 0.0288196 0.69691 0
634 1 0.0272704 0.72219 0
602 1 0.00506669 0.691031 0
635 1 0.0497075 0.706579 0
606 1 0.0722754 0.691582 0
636 1 0.0725556 0.716781 0
637 1 0.0938991 0.704108 0
608 1 0.113543 0.689437 0
638 1 0.116027 0.715634 0
639 1 0.135837 0.701908 0
610 1 0.157644 0.68952 0
641 1 0.15839 0.713969 0
612 1 0.179291 0.701481 0
642 1 0.180002 0.726505 0
613 1 0.20169 0.686389 0
614 1 0.223691 0.696175 0
643 1 0.201574 0.71181 0
645 1 0.224025 0.722862 0
615 1 0.244635 0.681698 0
617 1 0.265601 0.692464 0
616 1 0.244953 0.708132 0
647 1 0.267317 0.718686 0
619 1 0.30979 0.690255 0
618 1 0.287721 0.704331 0
620 1 0.309117 0.716428 0
592 1 0.356489 0.68556 0
653 1 0.339166 0.702744 0
651 1 0.330489 0.72579 0
623 1 0.381543 0.692563 0
624 1 0.363884 0.709873 0
626 1 0.405856 0.698355 0
655 1 0.389506 0.716936 0
657 1 0.447015 0.685127 0
656 1 0.430759 0.70383 0
686 1 0.414325 0.722457 0
658 1 0.454603 0.710064 0
659 1 0.471511 0.691631 0
660 1 0.47882 0.715752 0
1531 1 0.49613 0.696791 0
662 1 0.0135192 0.763095 0
664 1 0.0311013 0.746968 0
665 1 0.0514766 0.730427 0
666 1 0.0746073 0.741926 0
695 1 0.0541802 0.755564 0
697 1 0.0761781 0.768035 0
667 1 0.0952786 0.728897 0
668 1 0.0963098 0.754015 0
669 1 0.116273 0.741137 0
699 1 0.116939 0.767075 0
640 1 0.138672 0.728308 0
670 1 0.138473 0.753263 0
671 1 0.159382 0.740932 0
672 1 0.159873 0.766231 0
673 1 0.181033 0.751233 0
644 1 0.202274 0.736647 0
674 1 0.202144 0.762288 0
675 1 0.223142 0.748125 0
646 1 0.246721 0.733981 0
677 1 0.246488 0.760004 0
648 1 0.268563 0.745303 0
678 1 0.269167 0.770957 0
649 1 0.288866 0.730261 0
650 1 0.311264 0.742777 0
679 1 0.290023 0.755839 0
681 1 0.318507 0.768826 0
652 1 0.335196 0.75057 0
683 1 0.359387 0.756488 0
654 1 0.353187 0.732265 0
685 1 0.37573 0.73739 0
715 1 0.399668 0.742391 0
684 1 0.383997 0.762673 0
714 1 0.407425 0.767394 0
687 1 0.438712 0.728209 0
717 1 0.423278 0.74913 0
688 1 0.447565 0.754264 0
716 1 0.432178 0.772684 0
689 1 0.462299 0.734431 0
690 1 0.486646 0.739959 0
719 1 0.471152 0.758742 0
1591 1 0.494986 0.764297 0
694 1 0.0310075 0.780951 0
693 1 0.00751472 0.787053 0
723 1 0.0239211 0.805901 0
725 1 0.0475025 0.801075 0
696 1 0.0548868 0.778742 0
727 1 0.0737453 0.793601 0
728 1 0.0951063 0.808081 0
698 1 0.0968826 0.782696 0
700 1 0.118055 0.795102 0
701 1 0.138261 0.779811 0
731 1 0.14083 0.804149 0
703 1 0.181395 0.776545 0
702 1 0.161493 0.791009 0
732 1 0.163279 0.816657 0
705 1 0.224666 0.774173 0
733 1 0.184398 0.802203 0
704 1 0.203975 0.78863 0
735 1 0.20649 0.814276 0
706 1 0.22665 0.799129 0
676 1 0.246621 0.784541 0
737 1 0.249448 0.809821 0
707 1 0.269056 0.79508 0
709 1 0.293303 0.781948 0
708 1 0.2899 0.807428 0
710 1 0.312044 0.813635 0
680 1 0.327586 0.794646 0
682 1 0.34263 0.775237 0
711 1 0.35129 0.799708 0
713 1 0.36748 0.780285 0
712 1 0.374676 0.8064 0
743 1 0.391689 0.786884 0
745 1 0.399947 0.810686 0
747 1 0.439953 0.797756 0
746 1 0.415699 0.792521 0
775 1 0.423755 0.816034 0
718 1 0.455635 0.778131 0
720 1 0.479734 0.784335 0
749 1 0.463758 0.803314 0
1621 1 0.487765 0.808477 0
751 1 0.0172386 0.831199 0
752 1 0.0114201 0.854776 0
753 1 0.0355895 0.849176 0
722 1 0.0403714 0.825681 0
726 1 0.0657546 0.817203 0
724 1 0.0592373 0.841245 0
755 1 0.0766178 0.858902 0
757 1 0.0841656 0.833259 0
729 1 0.11815 0.820546 0
756 1 0.101135 0.852666 0
759 1 0.124445 0.84582 0
730 1 0.142773 0.830531 0
761 1 0.165424 0.843119 0
760 1 0.143637 0.86181 0
763 1 0.185851 0.827532 0
762 1 0.188192 0.852783 0
734 1 0.207879 0.838945 0
736 1 0.229063 0.825172 0
765 1 0.229722 0.85188 0
738 1 0.270308 0.822472 0
767 1 0.251025 0.836659 0
766 1 0.255526 0.860154 0
768 1 0.27557 0.847192 0
739 1 0.29426 0.832272 0
769 1 0.299919 0.855901 0
740 1 0.318697 0.837745 0
741 1 0.335369 0.819539 0
742 1 0.358917 0.824364 0
771 1 0.341948 0.843308 0
770 1 0.326039 0.861566 0
773 1 0.366848 0.847905 0
744 1 0.383601 0.829399 0
803 1 0.390302 0.853522 0
774 1 0.40681 0.835505 0
748 1 0.447915 0.822064 0
777 1 0.429914 0.840608 0
776 1 0.414566 0.859129 0
779 1 0.454978 0.846583 0
1651 1 0.495941 0.834851 0
750 1 0.471157 0.827627 0
780 1 0.478794 0.852715 0
783 1 0.0290825 0.872306 0
782 1 0.00419398 0.879098 0
813 1 0.0222953 0.897593 0
784 1 0.0456868 0.891054 0
754 1 0.052677 0.866881 0
785 1 0.0712503 0.883559 0
786 1 0.0883461 0.902285 0
758 1 0.119101 0.871502 0
787 1 0.0945182 0.877203 0
788 1 0.113027 0.895083 0
789 1 0.137289 0.888929 0
791 1 0.1608 0.881802 0
823 1 0.178276 0.900305 0
790 1 0.153878 0.906785 0
764 1 0.209536 0.867467 0
792 1 0.185603 0.876787 0
793 1 0.20348 0.8935 0
795 1 0.226964 0.887891 0
796 1 0.250865 0.883557 0
827 1 0.268642 0.900957 0
825 1 0.244798 0.90688 0
797 1 0.277718 0.875248 0
799 1 0.30809 0.879709 0
798 1 0.29213 0.896898 0
829 1 0.315046 0.904108 0
800 1 0.331717 0.885936 0
801 1 0.34986 0.868479 0
802 1 0.358116 0.891696 0
772 1 0.374739 0.8725 0
805 1 0.398294 0.878174 0
804 1 0.382185 0.897122 0
806 1 0.406036 0.90193 0
778 1 0.438965 0.865753 0
807 1 0.422545 0.884324 0
808 1 0.446396 0.890068 0
837 1 0.430781 0.90862 0
809 1 0.463118 0.871661 0
1681 1 0.48802 0.876327 0
810 1 0.471644 0.895215 0
1711 1 0.496165 0.901693 0
842 1 0.00843747 0.946616 0
843 1 0.0153615 0.921299 0
844 1 0.0336129 0.939149 0
814 1 0.0398217 0.915187 0
815 1 0.064049 0.908186 0
816 1 0.0820045 0.925971 0
845 1 0.0580151 0.932613 0
846 1 0.0757179 0.95029 0
819 1 0.129732 0.912856 0
817 1 0.105156 0.919406 0
818 1 0.123123 0.937502 0
847 1 0.099425 0.944398 0
821 1 0.171817 0.92482 0
820 1 0.147936 0.931103 0
851 1 0.165993 0.948983 0
794 1 0.22026 0.912478 0
824 1 0.196273 0.918768 0
822 1 0.190348 0.943587 0
853 1 0.214868 0.937378 0
855 1 0.239339 0.931426 0
826 1 0.263038 0.924643 0
856 1 0.256416 0.949109 0
828 1 0.296899 0.923047 0
857 1 0.281306 0.94207 0
859 1 0.305679 0.946575 0
831 1 0.34058 0.908776 0
830 1 0.322987 0.927988 0
832 1 0.346896 0.933456 0
860 1 0.330171 0.951848 0
833 1 0.36548 0.915252 0
863 1 0.372015 0.939392 0
834 1 0.389475 0.921479 0
865 1 0.397598 0.945205 0
835 1 0.413581 0.926482 0
838 1 0.438445 0.932431 0
836 1 0.42138 0.951185 0
839 1 0.454578 0.913927 0
1741 1 0.486645 0.944468 0
840 1 0.479272 0.919439 0
869 1 0.462768 0.937906 0
872 1 0.0199646 0.987481 0
873 1 0.0283685 0.962845 0
871 1 0.0027953 0.970506 0
874 1 0.0434938 0.981317 0
875 1 0.0509943 0.956992 0
876 1 0.0681188 0.974538 0
7 1 0.0861427 0.992001 0
877 1 0.0928929 0.968775 0
848 1 0.117574 0.962451 0
878 1 0.109319 0.986942 0
879 1 0.134128 0.980512 0
849 1 0.141377 0.955951 0
850 1 0.15804 0.974129 0
11 1 0.176042 0.992315 0
881 1 0.151431 0.999167 0
852 1 0.18312 0.968417 0
882 1 0.200496 0.986435 0
883 1 0.20778 0.961343 0
884 1 0.224277 0.979612 0
854 1 0.23216 0.955298 0
885 1 0.24873 0.973288 0
17 1 0.26644 0.990891 0
886 1 0.24206 0.997052 0
887 1 0.2747 0.966895 0
858 1 0.313047 0.971835 0
888 1 0.294789 0.988219 0
861 1 0.354987 0.957362 0
889 1 0.322657 0.994386 0
891 1 0.338494 0.975347 0
899 1 0.477035 0.986225 0
862 1 0.363337 0.980772 0
864 1 0.380199 0.962179 0
893 1 0.387511 0.98746 0
895 1 0.404587 0.968935 0
867 1 0.445938 0.956138 0
868 1 0.452743 0.980406 0
866 1 0.428535 0.974805 0
897 1 0.435913 0.999196 0
896 1 0.411998 0.993107 0
1771 1 0.495123 0.967861 0
890 1 0.346811 0.998352 0
5 1 0.0617748 0.998957 0
1441 1 0.501471 0.562792 0
471 1 0.347629 0.500398 0
902 1 0.534732 0.0231431 0
931 1 0.5173 0.0403208 0
901 1 0.509217 0.016737 0
933 1 0.542162 0.0471062 0
904 1 0.559137 0.0297142 0
906 1 0.575113 0.00959406 0
935 1 0.583206 0.035046 0
908 1 0.599607 0.0148553 0
937 1 0.608089 0.0399167 0
939 1 0.624237 0.0215219 0
938 1 0.632155 0.0457737 0
940 1 0.648888 0.0279175 0
971 1 0.671658 0.0335965 0
942 1 0.67704 0.00974291 0
944 1 0.694958 0.0278109 0
945 1 0.719824 0.020387 0
943 1 0.70123 0.0035371 0
947 1 0.743125 0.0149497 0
948 1 0.760747 0.0337116 0
918 1 0.768223 0.00836716 0
946 1 0.737363 0.0384651 0
919 1 0.792595 0.00264612 0
949 1 0.785915 0.0257377 0
920 1 0.809461 0.0197322 0
951 1 0.833564 0.0137439 0
952 1 0.851566 0.0324857 0
922 1 0.858578 0.0076164 0
950 1 0.828142 0.038214 0
953 1 0.875452 0.0258797 0
955 1 0.899231 0.0194073 0
924 1 0.881542 0.00196293 0
954 1 0.893202 0.0437749 0
926 1 0.92327 0.0134988 0
928 1 0.947007 0.00690504 0
957 1 0.94048 0.0325366 0
956 1 0.916999 0.0384934 0
930 1 0.988591 0.0200904 0
959 1 0.963995 0.0252797 0
929 1 0.971145 0.0014797 0
960 1 0.982283 0.0443725 0
932 1 0.525203 0.065796 0
962 1 0.532205 0.090597 0
961 1 0.508168 0.0843063 0
941 1 0.642624 0.00301792 0
934 1 0.56629 0.0534904 0
963 1 0.549225 0.0715241 0
965 1 0.574079 0.0785334 0
936 1 0.591107 0.0583364 0
966 1 0.599256 0.083891 0
967 1 0.614076 0.0648304 0
968 1 0.625383 0.0920189 0
969 1 0.637665 0.0695458 0
970 1 0.661359 0.0572556 0
999 1 0.6587 0.0813705 0
972 1 0.681653 0.075788 0
975 1 0.713273 0.0451595 0
973 1 0.688897 0.0514041 0
1003 1 0.706919 0.0686316 0
1004 1 0.723625 0.0865804 0
974 1 0.730624 0.0631601 0
976 1 0.755097 0.057269 0
1005 1 0.74829 0.0807354 0
1007 1 0.77192 0.0750112 0
979 1 0.803205 0.0442444 0
977 1 0.779286 0.049566 0
978 1 0.796714 0.0692808 0
1009 1 0.814677 0.0871954 0
980 1 0.82038 0.0626939 0
981 1 0.845148 0.0565451 0
1011 1 0.838318 0.0810641 0
982 1 0.863303 0.074324 0
983 1 0.8694 0.0505796 0
984 1 0.886948 0.0684399 0
1015 1 0.904603 0.0872247 0
985 1 0.91086 0.0625744 0
986 1 0.928052 0.0818204 0
987 1 0.934603 0.0565338 0
988 1 0.951594 0.0747876 0
958 1 0.958053 0.0492944 0
989 1 0.975888 0.0688275 0
990 1 0.992816 0.0868651 0
905 1 0.551234 0.00454377 0
991 1 0.514928 0.108752 0
992 1 0.521182 0.133303 0
993 1 0.538528 0.114422 0
1346 1 0.923226 0.476999 0
964 1 0.55711 0.096211 0
994 1 0.56325 0.121283 0
995 1 0.581089 0.103609 0
1023 1 0.546269 0.138591 0
996 1 0.58829 0.127755 0
997 1 0.60506 0.109459 0
1027 1 0.611763 0.134898 0
998 1 0.629106 0.116172 0
1000 1 0.649335 0.103565 0
1001 1 0.675637 0.100282 0
1029 1 0.635892 0.141076 0
1030 1 0.666392 0.123135 0
1031 1 0.692851 0.116991 0
1002 1 0.699353 0.0932429 0
1033 1 0.717587 0.110751 0
1035 1 0.741394 0.105053 0
1006 1 0.766044 0.0993042 0
1036 1 0.757957 0.122893 0
1034 1 0.734757 0.129638 0
1008 1 0.789942 0.0927773 0
1037 1 0.782821 0.117764 0
1039 1 0.807432 0.111986 0
1038 1 0.799895 0.135051 0
1040 1 0.825565 0.128749 0
1010 1 0.832132 0.105621 0
1012 1 0.856472 0.0986334 0
1041 1 0.849742 0.122447 0
1043 1 0.873966 0.117829 0
1013 1 0.881727 0.0932087 0
1014 1 0.897364 0.111817 0
1044 1 0.891243 0.13588 0
1016 1 0.914544 0.130194 0
1017 1 0.922071 0.106389 0
1018 1 0.945201 0.0993059 0
1047 1 0.939294 0.124045 0
1019 1 0.968997 0.0937383 0
1020 1 0.987328 0.111152 0
1049 1 0.962081 0.117473 0
1021 1 0.504329 0.151898 0
1022 1 0.528711 0.157008 0
1053 1 0.534613 0.181687 0
1051 1 0.510705 0.175802 0
1025 1 0.56999 0.145748 0
1024 1 0.552456 0.163086 0
1055 1 0.576825 0.171266 0
1054 1 0.559016 0.188739 0
1026 1 0.593326 0.152475 0
1028 1 0.617895 0.159567 0
1057 1 0.599879 0.176528 0
1058 1 0.641148 0.167493 0
1059 1 0.660605 0.147832 0
1061 1 0.681589 0.162468 0
1060 1 0.663164 0.17662 0
1032 1 0.686268 0.139035 0
1063 1 0.710397 0.135984 0
1062 1 0.70543 0.160391 0
1064 1 0.728062 0.153455 0
1065 1 0.752237 0.147486 0
1095 1 0.74618 0.172054 0
1066 1 0.769872 0.165446 0
1067 1 0.775967 0.141835 0
1068 1 0.7941 0.159158 0
1099 1 0.811207 0.176688 0
1069 1 0.818375 0.152487 0
1071 1 0.843269 0.146709 0
1070 1 0.834969 0.171134 0
1072 1 0.859744 0.165345 0
1042 1 0.866982 0.141464 0
1073 1 0.884294 0.160463 0
1074 1 0.901568 0.178116 0
1045 1 0.909079 0.154323 0
1075 1 0.925061 0.173345 0
1046 1 0.931814 0.148635 0
1077 1 0.94947 0.166668 0
1050 1 0.980204 0.135704 0
1048 1 0.956052 0.142206 0
1079 1 0.97318 0.161019 0
1080 1 0.991274 0.179174 0
151 1 0.99776 0.154418 0
1052 1 0.517253 0.200231 0
1082 1 0.523774 0.225409 0
1349 1 0.964041 0.467775 0
1083 1 0.540586 0.207012 0
1085 1 0.56503 0.214382 0
1084 1 0.54727 0.23174 0
1056 1 0.582943 0.196059 0
1086 1 0.606272 0.202243 0
1087 1 0.624944 0.184254 0
1088 1 0.63089 0.210723 0
1089 1 0.647436 0.194187 0
1090 1 0.673782 0.199439 0
1119 1 0.655789 0.217531 0
1121 1 0.679692 0.224455 0
1091 1 0.69402 0.183193 0
1092 1 0.697649 0.207917 0
1093 1 0.72068 0.179468 0
1123 1 0.721935 0.213187 0
1094 1 0.739466 0.196142 0
1096 1 0.763138 0.189603 0
1125 1 0.746549 0.22028 0
1126 1 0.771184 0.228103 0
1097 1 0.7875 0.182523 0
1127 1 0.78203 0.208099 0
1098 1 0.804816 0.201181 0
1129 1 0.821684 0.218285 0
1100 1 0.829392 0.195027 0
1101 1 0.853119 0.188885 0
1131 1 0.845283 0.213394 0
1102 1 0.87122 0.209211 0
1103 1 0.877546 0.183528 0
1104 1 0.895159 0.203144 0
1135 1 0.935732 0.215031 0
1105 1 0.919383 0.197077 0
1076 1 0.94312 0.19057 0
1107 1 0.960071 0.209515 0
1078 1 0.967253 0.184924 0
1109 1 0.984444 0.203766 0
1110 1 0.998438 0.223296 0
1111 1 0.505552 0.243544 0
1113 1 0.529041 0.249349 0
1112 1 0.512449 0.266879 0
1143 1 0.553213 0.256417 0
1115 1 0.590014 0.220794 0
1114 1 0.571212 0.238966 0
1116 1 0.595051 0.244898 0
1145 1 0.577688 0.263212 0
1117 1 0.61356 0.228109 0
1118 1 0.638064 0.234199 0
1147 1 0.619757 0.252565 0
1149 1 0.644368 0.258535 0
1120 1 0.662397 0.241918 0
1151 1 0.686509 0.248819 0
1150 1 0.669188 0.26518 0
1122 1 0.705244 0.231362 0
1124 1 0.729282 0.237719 0
1153 1 0.711027 0.254849 0
1154 1 0.734375 0.261759 0
1155 1 0.753276 0.244424 0
1156 1 0.758921 0.268576 0
1157 1 0.777661 0.251561 0
1128 1 0.797215 0.228481 0
1159 1 0.819118 0.2424 0
1158 1 0.801974 0.259925 0
1160 1 0.826574 0.266938 0
1130 1 0.843418 0.248692 0
1191 1 0.851286 0.272949 0
1132 1 0.861366 0.231361 0
1161 1 0.869493 0.255726 0
1133 1 0.88613 0.235437 0
1163 1 0.892916 0.261416 0
1134 1 0.911241 0.24409 0