ITEM: TIMESTEP
60000
ITEM: NUMBER OF ATOMS
1800
ITEM: BOX BOUNDS pp pp pp
3.9154062136992707e-01 1.6460845937863255e+02
2.3755740264300869e+00 1.6262442597357264e+02
0.0000000000000000e+00 5.5000000000000000e+00
ITEM: ATOMS id type xs ys zs
2 1 0.0141576 0.0125386 0
3 1 0.0380681 0.00537234 0
31 1 0.00824494 0.0362865 0
33 1 0.0322231 0.0299635 0
4 1 0.0566925 0.0233388 0
6 1 0.0808737 0.016889 0
35 1 0.073744 0.0413806 0
8 1 0.104924 0.0113063 0
37 1 0.0979725 0.0353686 0
39 1 0.122243 0.0282498 0
880 1 0.128819 0.0041076 0
9 1 0.145536 0.0219076 0
10 1 0.169985 0.0153799 0
40 1 0.163576 0.0395616 0
41 1 0.187389 0.0335401 0
12 1 0.193975 0.00863096 0
14 1 0.211861 0.0268019 0
13 1 0.219059 0.00181912 0
15 1 0.236589 0.0203238 0
16 1 0.2612 0.0145196 0
46 1 0.254039 0.0385952 0
47 1 0.278652 0.0321779 0
18 1 0.285055 0.00758484 0
49 1 0.312719 0.031984 0
19 1 0.307645 0.00799857 0
20 1 0.330574 0.0145534 0
21 1 0.355138 0.0209256 0
51 1 0.338304 0.0389566 0
23 1 0.379671 0.0267448 0
894 1 0.398471 0.00887474 0
24 1 0.404748 0.0333513 0
892 1 0.373023 0.00334733 0
25 1 0.422596 0.0148951 0
27 1 0.446424 0.0222783 0
26 1 0.428529 0.0400067 0
29 1 0.470733 0.0292136 0
900 1 0.486986 0.0110909 0
30 1 0.494545 0.0366893 0
898 1 0.463401 0.00390804 0
32 1 0.0250991 0.0541644 0
62 1 0.0187368 0.0783492 0
63 1 0.0424912 0.0725531 0
61 1 0.00151892 0.0609552 0
34 1 0.0494014 0.0478992 0
65 1 0.0669523 0.0660818 0
66 1 0.0838878 0.0844237 0
64 1 0.0600341 0.0907002 0
36 1 0.0912877 0.0601837 0
38 1 0.115492 0.0535247 0
67 1 0.108969 0.077932 0
68 1 0.132283 0.0705742 0
69 1 0.13934 0.0459268 0
71 1 0.157091 0.0631614 0
72 1 0.174824 0.0815625 0
70 1 0.150638 0.0879706 0
42 1 0.181328 0.0573087 0
43 1 0.205479 0.0503071 0
73 1 0.198879 0.07526 0
44 1 0.222878 0.0695713 0
45 1 0.228641 0.0447207 0
75 1 0.246875 0.0631017 0
76 1 0.263716 0.0816697 0
77 1 0.271676 0.0572753 0
74 1 0.240021 0.0867536 0
48 1 0.295945 0.0498028 0
79 1 0.30546 0.0743376 0
22 1 0.362338 0.044877 0
50 1 0.321002 0.055762 0
81 1 0.328802 0.0801906 0
52 1 0.345441 0.0627784 0
82 1 0.352511 0.0868047 0
53 1 0.387592 0.0513225 0
83 1 0.370167 0.0689136 0
54 1 0.394555 0.0756571 0
28 1 0.453204 0.0460965 0
55 1 0.411493 0.0586165 0
57 1 0.435469 0.0647344 0
56 1 0.418851 0.0821409 0
87 1 0.443324 0.0887925 0
59 1 0.477203 0.0535272 0
58 1 0.459831 0.0710677 0
89 1 0.482861 0.0786487 0
92 1 0.0293439 0.121196 0
93 1 0.0358472 0.0972803 0
91 1 0.0117293 0.103149 0
121 1 0.00631313 0.12894 0
94 1 0.0545153 0.11484 0
95 1 0.0774086 0.108268 0
125 1 0.0705708 0.132998 0
96 1 0.0945466 0.125461 0
97 1 0.102944 0.102255 0
98 1 0.120176 0.119945 0
99 1 0.126582 0.0956764 0
100 1 0.144968 0.113072 0
101 1 0.16915 0.106142 0
130 1 0.160847 0.131836 0
103 1 0.19317 0.0992653 0
102 1 0.186815 0.124013 0
105 1 0.216571 0.0931024 0
104 1 0.209985 0.118736 0
106 1 0.234832 0.11164 0
137 1 0.252299 0.128576 0
107 1 0.268411 0.108454 0
78 1 0.287151 0.0914497 0
109 1 0.293985 0.116127 0
80 1 0.311014 0.0983307 0
108 1 0.276403 0.134099 0
110 1 0.317319 0.122935 0
111 1 0.335826 0.10515 0
141 1 0.34172 0.129083 0
113 1 0.359462 0.110835 0
84 1 0.376416 0.0931651 0
112 1 0.383594 0.118074 0
85 1 0.400308 0.100279 0
115 1 0.407915 0.12451 0
86 1 0.424634 0.105589 0
116 1 0.431064 0.131244 0
117 1 0.449604 0.113395 0
120 1 0.49739 0.127162 0
88 1 0.466614 0.0959587 0
119 1 0.473025 0.120566 0
90 1 0.49019 0.102592 0
122 1 0.0240862 0.146802 0
152 1 0.0171711 0.171954 0
153 1 0.0417317 0.166318 0
123 1 0.0464963 0.139378 0
124 1 0.0641494 0.156665 0
155 1 0.0804204 0.174328 0
126 1 0.0883648 0.15009 0
127 1 0.111757 0.143256 0
128 1 0.129856 0.161054 0
157 1 0.105295 0.168402 0
129 1 0.137509 0.137568 0
159 1 0.155154 0.157836 0
131 1 0.179497 0.148394 0
132 1 0.178427 0.172761 0
133 1 0.203445 0.142638 0
134 1 0.220521 0.160457 0
163 1 0.202139 0.177992 0
135 1 0.229173 0.136457 0
136 1 0.259972 0.152097 0
165 1 0.243448 0.168959 0
167 1 0.267061 0.175874 0
139 1 0.299651 0.140224 0
138 1 0.283793 0.158216 0
169 1 0.307248 0.165438 0
140 1 0.323619 0.147371 0
142 1 0.349067 0.154044 0
171 1 0.331696 0.171031 0
172 1 0.354812 0.178208 0
143 1 0.365948 0.135429 0
114 1 0.390474 0.142535 0
144 1 0.396328 0.167509 0
173 1 0.372741 0.160554 0
145 1 0.413954 0.148753 0
146 1 0.420195 0.173733 0
147 1 0.43768 0.15505 0
118 1 0.455284 0.138258 0
149 1 0.478912 0.14503 0
148 1 0.460964 0.162602 0
150 1 0.485404 0.16952 0
183 1 0.0330578 0.191641 0
182 1 0.0357554 0.215476 0
181 1 0.0118894 0.206639 0
154 1 0.0584587 0.185642 0
184 1 0.0599705 0.224145 0
185 1 0.077058 0.205927 0
186 1 0.102394 0.21588 0
156 1 0.0966263 0.191559 0
158 1 0.120638 0.198713 0
187 1 0.125598 0.223528 0
160 1 0.139849 0.182939 0
161 1 0.16137 0.190945 0
189 1 0.143687 0.206752 0
191 1 0.167576 0.214554 0
162 1 0.185769 0.197289 0
193 1 0.208523 0.202738 0
192 1 0.191033 0.223261 0
164 1 0.225582 0.185354 0
195 1 0.231411 0.21191 0
166 1 0.248207 0.193908 0
196 1 0.255215 0.21819 0
168 1 0.289935 0.183089 0
197 1 0.272937 0.2 0
199 1 0.295967 0.207108 0
170 1 0.314493 0.188903 0
201 1 0.338339 0.196697 0
200 1 0.320563 0.214307 0
202 1 0.344233 0.220829 0
203 1 0.36188 0.202442 0
174 1 0.379031 0.184793 0
204 1 0.385675 0.209471 0
175 1 0.403173 0.192623 0
177 1 0.445366 0.180581 0
205 1 0.41013 0.216541 0
176 1 0.428339 0.19827 0
207 1 0.433391 0.223509 0
178 1 0.451399 0.205377 0
179 1 0.468217 0.187735 0
209 1 0.474893 0.212892 0
180 1 0.492139 0.195305 0
212 1 0.0247176 0.258215 0
211 1 0.0189703 0.23312 0
1140 1 0.0012956 0.25071 0
213 1 0.0422829 0.240454 0
243 1 0.0480792 0.265181 0
215 1 0.0831776 0.230639 0
214 1 0.0658942 0.249637 0
216 1 0.0891628 0.256873 0
217 1 0.107959 0.241036 0
218 1 0.114587 0.26421 0
188 1 0.132217 0.247952 0
190 1 0.149967 0.230886 0
221 1 0.173273 0.23886 0
220 1 0.155331 0.255488 0
222 1 0.178679 0.264271 0
194 1 0.214427 0.228977 0
223 1 0.197207 0.24662 0
224 1 0.220532 0.253215 0
253 1 0.202537 0.271112 0
225 1 0.238099 0.235642 0
227 1 0.262419 0.2431 0
226 1 0.24364 0.260247 0
257 1 0.268 0.268068 0
198 1 0.279058 0.224892 0
229 1 0.303516 0.232257 0
228 1 0.285568 0.249397 0
230 1 0.310161 0.25682 0
231 1 0.327337 0.239277 0
232 1 0.350387 0.245176 0
261 1 0.332699 0.26341 0
263 1 0.358477 0.270172 0
233 1 0.367824 0.226617 0
235 1 0.392216 0.234079 0
234 1 0.37478 0.251437 0
265 1 0.399839 0.260102 0
206 1 0.416027 0.240974 0
237 1 0.439754 0.246963 0
236 1 0.422868 0.265301 0
208 1 0.457553 0.229659 0
210 1 0.481941 0.236555 0
239 1 0.464035 0.253601 0
240 1 0.488939 0.260891 0
241 1 0.00604537 0.276059 0
242 1 0.0300387 0.282781 0
271 1 0.0121065 0.29966 0
273 1 0.0355246 0.309364 0
245 1 0.0714197 0.273657 0
244 1 0.0535913 0.291316 0
246 1 0.0760879 0.299103 0
275 1 0.0593177 0.316785 0
247 1 0.0954162 0.281977 0
249 1 0.119594 0.290417 0
248 1 0.100744 0.306675 0
279 1 0.124643 0.31594 0
219 1 0.137648 0.272819 0
251 1 0.160645 0.281475 0
250 1 0.142674 0.297613 0
281 1 0.167331 0.30603 0
252 1 0.185107 0.28866 0
254 1 0.208384 0.296009 0
283 1 0.191052 0.312926 0
255 1 0.226542 0.278176 0
256 1 0.249729 0.285667 0
285 1 0.231988 0.302947 0
287 1 0.25567 0.310732 0
259 1 0.292172 0.27384 0
258 1 0.274027 0.292534 0
289 1 0.297873 0.299632 0
260 1 0.316012 0.281713 0
288 1 0.2806 0.317763 0
262 1 0.339581 0.287462 0
291 1 0.322472 0.305158 0
292 1 0.346858 0.312445 0
293 1 0.36338 0.294538 0
264 1 0.381648 0.275968 0
295 1 0.387318 0.301717 0
266 1 0.405158 0.284107 0
238 1 0.447168 0.271688 0
267 1 0.429421 0.290286 0
297 1 0.410981 0.30763 0
298 1 0.435516 0.314806 0
268 1 0.452885 0.296517 0
269 1 0.470968 0.278619 0
270 1 0.476541 0.303922 0
1141 1 0.495392 0.28515 0
1200 1 0.0175212 0.326768 0
272 1 0.0409854 0.333579 0
301 1 0.0233401 0.351166 0
303 1 0.0467791 0.359732 0
276 1 0.083028 0.324759 0
274 1 0.0651638 0.341733 0
305 1 0.0893146 0.349327 0
277 1 0.106699 0.331724 0
307 1 0.112885 0.356173 0
278 1 0.130306 0.339345 0
280 1 0.149201 0.322154 0
282 1 0.173075 0.329337 0
311 1 0.154635 0.346901 0
312 1 0.179378 0.354898 0
284 1 0.214799 0.319856 0
313 1 0.196865 0.337741 0
315 1 0.22029 0.344687 0
314 1 0.203411 0.361804 0
286 1 0.238243 0.327508 0
317 1 0.262244 0.334642 0
316 1 0.245008 0.35168 0
318 1 0.268281 0.35921 0
290 1 0.304454 0.323672 0
319 1 0.286015 0.341506 0
320 1 0.310669 0.348259 0
321 1 0.327838 0.329823 0
323 1 0.351669 0.336911 0
322 1 0.333834 0.354663 0
294 1 0.369218 0.319797 0
296 1 0.393371 0.325825 0
325 1 0.374862 0.344124 0
326 1 0.399357 0.350624 0
327 1 0.418052 0.332991 0
328 1 0.423626 0.35713 0
329 1 0.441153 0.338733 0
299 1 0.459113 0.321121 0
359 1 0.464412 0.346339 0
330 1 0.483279 0.327547 0
360 1 0.489511 0.352049 0
1230 1 0.00562911 0.367662 0
302 1 0.0290696 0.376178 0
332 1 0.0353517 0.400904 0
331 1 0.0114937 0.392988 0
304 1 0.0702373 0.366579 0
333 1 0.0536826 0.384434 0
335 1 0.0778615 0.391025 0
334 1 0.0599383 0.408654 0
306 1 0.0957134 0.373634 0
308 1 0.118878 0.380579 0
337 1 0.10203 0.398003 0
338 1 0.125052 0.405693 0
309 1 0.136562 0.363369 0
310 1 0.16154 0.371803 0
339 1 0.142622 0.389239 0
341 1 0.166636 0.396849 0
343 1 0.184521 0.379391 0
342 1 0.190356 0.403375 0
344 1 0.208805 0.386767 0
345 1 0.226501 0.36886 0
347 1 0.25128 0.375628 0
346 1 0.232505 0.393184 0
377 1 0.256483 0.401271 0
349 1 0.292197 0.365274 0
348 1 0.274766 0.383534 0
350 1 0.29908 0.390301 0
351 1 0.315991 0.372456 0
324 1 0.357451 0.361467 0
381 1 0.322581 0.397074 0
353 1 0.340063 0.379092 0
352 1 0.3456 0.404546 0
355 1 0.381463 0.368829 0
354 1 0.363497 0.386035 0
356 1 0.387262 0.393503 0
357 1 0.405444 0.374354 0
387 1 0.429325 0.381593 0
358 1 0.446509 0.36454 0
386 1 0.411731 0.400262 0
388 1 0.436086 0.405977 0
389 1 0.453382 0.388186 0
1232 1 0.471101 0.369906 0
1262 1 0.494843 0.376666 0
1261 1 0.47668 0.394334 0
361 1 0.0179078 0.418083 0
362 1 0.0236566 0.442093 0
363 1 0.0413822 0.425467 0
336 1 0.0842502 0.415623 0
364 1 0.0465521 0.450023 0
365 1 0.0647565 0.432878 0
366 1 0.0888942 0.440503 0
367 1 0.107529 0.423895 0
368 1 0.114518 0.448186 0
369 1 0.131655 0.430495 0
340 1 0.15034 0.413971 0
371 1 0.173629 0.421146 0
370 1 0.155774 0.439103 0
401 1 0.179229 0.444985 0
373 1 0.215257 0.411059 0
372 1 0.197406 0.428379 0
374 1 0.220228 0.435104 0
403 1 0.203368 0.453015 0
375 1 0.23885 0.418345 0
376 1 0.263226 0.426166 0
405 1 0.245483 0.442868 0
407 1 0.269162 0.451097 0
378 1 0.279872 0.407852 0
379 1 0.30386 0.41542 0
409 1 0.285999 0.432813 0
380 1 0.310114 0.439901 0
382 1 0.327292 0.422301 0
413 1 0.33464 0.446113 0
383 1 0.352727 0.428852 0
385 1 0.369213 0.410366 0
414 1 0.375846 0.435372 0
384 1 0.393446 0.41749 0
415 1 0.399924 0.44108 0
417 1 0.418088 0.423366 0
418 1 0.44196 0.430537 0
416 1 0.423702 0.447973 0
419 1 0.459578 0.413091 0
390 1 0.465461 0.43738 0
1291 1 0.482957 0.418194 0
1321 1 0.489852 0.443906 0
392 1 0.00520356 0.45924 0
393 1 0.0286527 0.46687 0
422 1 0.0100299 0.484741 0
423 1 0.0350444 0.492048 0
395 1 0.0708217 0.45775 0
394 1 0.0534798 0.473967 0
396 1 0.0777051 0.481611 0
1081 1 0.49938 0.218852 0
397 1 0.0952423 0.465112 0
398 1 0.119166 0.472892 0
427 1 0.101186 0.489974 0
428 1 0.124885 0.497277 0
399 1 0.137658 0.455293 0
400 1 0.161074 0.463602 0
429 1 0.143022 0.480853 0
431 1 0.166251 0.487724 0
402 1 0.18501 0.470565 0
432 1 0.190109 0.496055 0
433 1 0.208595 0.478597 0
404 1 0.227638 0.460989 0
406 1 0.250895 0.468082 0
435 1 0.232138 0.48575 0
436 1 0.255435 0.493682 0
410 1 0.292169 0.457209 0
408 1 0.274109 0.47602 0
441 1 0.298355 0.483182 0
411 1 0.315759 0.464319 0
412 1 0.357467 0.453591 0
442 1 0.33981 0.470815 0
440 1 0.322212 0.488126 0
471 1 0.346382 0.495281 0
473 1 0.36419 0.47791 0
443 1 0.382355 0.459922 0
444 1 0.388518 0.4846 0
445 1 0.407059 0.466568 0
475 1 0.412094 0.491067 0
447 1 0.448055 0.455491 0
446 1 0.431404 0.473109 0
420 1 0.472355 0.462319 0
448 1 0.454884 0.480099 0
449 1 0.47842 0.486156 0
450 1 0.495952 0.468631 0
477 1 0.435942 0.497939 0
425 1 0.058838 0.499465 0
454 1 0.0226155 0.534062 0
453 1 0.0169741 0.509796 0
424 1 0.040674 0.517007 0
485 1 0.0470964 0.541385 0
455 1 0.0650587 0.524588 0
426 1 0.0826758 0.506647 0
456 1 0.0890645 0.53206 0
457 1 0.106399 0.514918 0
458 1 0.112676 0.539567 0
459 1 0.130031 0.522077 0
460 1 0.155282 0.529916 0
461 1 0.172366 0.513376 0
430 1 0.148803 0.505605 0
462 1 0.177995 0.539623 0
434 1 0.213508 0.503863 0
463 1 0.19558 0.521292 0
464 1 0.221856 0.528619 0
466 1 0.245073 0.535625 0
465 1 0.237564 0.510719 0
437 1 0.262318 0.517732 0
497 1 0.268438 0.542785 0
467 1 0.286896 0.525099 0
438 1 0.304723 0.507553 0
468 1 0.310388 0.532225 0
5 1 0.0631289 0.998692 0
469 1 0.328545 0.513882 0
470 1 0.351707 0.520242 0
499 1 0.334014 0.538478 0
472 1 0.369858 0.502214 0
503 1 0.376086 0.526633 0
474 1 0.393974 0.50915 0
505 1 0.40005 0.5338 0
476 1 0.417379 0.515361 0
1771 1 0.498027 0.968222 0
507 1 0.441265 0.522386 0
506 1 0.424791 0.540292 0
478 1 0.459954 0.505782 0
480 1 0.465933 0.529161 0
479 1 0.483212 0.511076 0
510 1 0.490216 0.53517 0
483 1 0.00490137 0.552247 0
513 1 0.0290948 0.558198 0
514 1 0.0337279 0.582697 0
482 1 0.0108521 0.575637 0
486 1 0.0710509 0.548912 0
484 1 0.052468 0.566067 0
515 1 0.0761794 0.574662 0
545 1 0.0581427 0.59175 0
489 1 0.137036 0.546866 0
487 1 0.0940537 0.556947 0
488 1 0.118044 0.565263 0
517 1 0.100007 0.582296 0
519 1 0.124072 0.590008 0
491 1 0.160146 0.555559 0
490 1 0.141049 0.572605 0
521 1 0.166379 0.580188 0
493 1 0.203781 0.545424 0
492 1 0.184298 0.563386 0
523 1 0.191215 0.587863 0
494 1 0.210283 0.570315 0
495 1 0.227102 0.552683 0
496 1 0.250961 0.560354 0
525 1 0.234095 0.57759 0
526 1 0.25726 0.585912 0
527 1 0.274694 0.56782 0
498 1 0.292348 0.550526 0
529 1 0.299164 0.574739 0
500 1 0.316077 0.556609 0
501 1 0.358202 0.544586 0
531 1 0.340235 0.562872 0
530 1 0.322577 0.580615 0
533 1 0.364787 0.569496 0
502 1 0.382056 0.551609 0
534 1 0.387897 0.576582 0
504 1 0.406944 0.55789 0
508 1 0.430817 0.563935 0
509 1 0.449186 0.547045 0
535 1 0.412278 0.582394 0
539 1 0.453958 0.571748 0
540 1 0.473312 0.552899 0
569 1 0.479013 0.57737 0
1441 1 0.496962 0.560366 0
512 1 0.0160443 0.600173 0
542 1 0.0213537 0.62362 0
543 1 0.0400121 0.608057 0
544 1 0.045203 0.63233 0
516 1 0.0817286 0.599135 0
546 1 0.0638782 0.61648 0
547 1 0.0871748 0.623579 0
518 1 0.105136 0.606758 0
548 1 0.128872 0.615338 0
577 1 0.109979 0.63238 0
520 1 0.148059 0.596346 0
522 1 0.172197 0.604769 0
549 1 0.152723 0.620572 0
551 1 0.177445 0.629045 0
524 1 0.215578 0.595027 0
553 1 0.196566 0.612024 0
554 1 0.221184 0.620979 0
552 1 0.201858 0.63766 0
555 1 0.239168 0.603399 0
556 1 0.244252 0.62872 0
557 1 0.263393 0.609661 0
528 1 0.280723 0.592823 0
559 1 0.30444 0.599043 0
558 1 0.286655 0.61811 0
560 1 0.311192 0.624841 0
561 1 0.328251 0.605517 0
532 1 0.345895 0.588204 0
562 1 0.352145 0.61196 0
591 1 0.334953 0.629014 0
563 1 0.369899 0.59389 0
565 1 0.376621 0.618454 0
536 1 0.394213 0.600549 0
566 1 0.402067 0.62552 0
537 1 0.436738 0.588564 0
567 1 0.41869 0.607046 0
568 1 0.44314 0.614188 0
597 1 0.425492 0.631563 0
538 1 0.460912 0.595816 0
570 1 0.484252 0.602144 0
600 1 0.466569 0.620785 0
1501 1 0.490904 0.626405 0
571 1 0.00259792 0.641603 0
573 1 0.0263153 0.648785 0
603 1 0.0307536 0.673543 0
572 1 0.00863333 0.665688 0
574 1 0.0497696 0.656729 0
575 1 0.0681287 0.640884 0
605 1 0.0727883 0.666205 0
604 1 0.0536816 0.681037 0
576 1 0.0921946 0.65018 0
607 1 0.0959651 0.675745 0
578 1 0.114958 0.65839 0
579 1 0.133607 0.639721 0
609 1 0.139307 0.663809 0
550 1 0.157108 0.645095 0
581 1 0.182042 0.653149 0
580 1 0.163825 0.669161 0
611 1 0.186759 0.67712 0
583 1 0.225543 0.64753 0
582 1 0.206624 0.663635 0
584 1 0.230397 0.673709 0
587 1 0.267913 0.635196 0
585 1 0.249648 0.652738 0
586 1 0.274715 0.659287 0
615 1 0.256448 0.67861 0
589 1 0.292181 0.642036 0
590 1 0.300385 0.665689 0
593 1 0.342335 0.65417 0
621 1 0.317544 0.648458 0
622 1 0.324439 0.672426 0
564 1 0.359748 0.636654 0
594 1 0.366141 0.661315 0
595 1 0.384173 0.642253 0
625 1 0.38994 0.667998 0
596 1 0.408174 0.6497 0
598 1 0.432289 0.656241 0
627 1 0.414013 0.673854 0
599 1 0.450392 0.638944 0
629 1 0.474156 0.645056 0
628 1 0.456215 0.663559 0
630 1 0.479824 0.669297 0
632 1 0.00165423 0.717404 0
633 1 0.0327753 0.698916 0
634 1 0.0266528 0.723357 0
602 1 0.00876675 0.691675 0
635 1 0.0571484 0.70559 0
606 1 0.0771815 0.690926 0
636 1 0.0787876 0.715796 0
637 1 0.099855 0.701915 0
608 1 0.120518 0.685956 0
638 1 0.121138 0.715546 0
639 1 0.141608 0.69987 0
610 1 0.164854 0.692786 0
641 1 0.163679 0.716345 0
612 1 0.186523 0.704251 0
613 1 0.208726 0.690806 0
614 1 0.228839 0.702875 0
643 1 0.207634 0.716107 0
645 1 0.226962 0.730127 0
642 1 0.185332 0.729621 0
617 1 0.26662 0.702658 0
616 1 0.248843 0.719833 0
647 1 0.273905 0.727331 0
588 1 0.28241 0.684721 0
619 1 0.306945 0.690758 0
618 1 0.290618 0.70879 0
620 1 0.314096 0.715622 0
592 1 0.348696 0.679387 0
653 1 0.33062 0.69713 0
651 1 0.337834 0.721277 0
624 1 0.355128 0.704089 0
623 1 0.372623 0.686363 0
626 1 0.396052 0.692611 0
655 1 0.379595 0.711335 0
657 1 0.437924 0.680227 0
656 1 0.419916 0.699313 0
686 1 0.40411 0.717985 0
658 1 0.444387 0.70477 0
659 1 0.463136 0.687553 0
660 1 0.468986 0.71176 0
1531 1 0.486141 0.693969 0
662 1 0.0132627 0.762013 0
664 1 0.0333981 0.748523 0
665 1 0.0512783 0.729201 0
666 1 0.0788226 0.740641 0
695 1 0.0574179 0.752364 0
697 1 0.0780981 0.766413 0
667 1 0.100341 0.72877 0
668 1 0.0995403 0.754534 0
669 1 0.12112 0.741732 0
699 1 0.119997 0.768456 0
640 1 0.141987 0.729306 0
670 1 0.141639 0.754728 0
671 1 0.162787 0.742791 0
672 1 0.163026 0.767775 0
673 1 0.184343 0.75444 0
644 1 0.20596 0.741802 0
674 1 0.204984 0.766481 0
675 1 0.229759 0.754978 0
646 1 0.254458 0.745754 0
677 1 0.263232 0.770159 0
648 1 0.280321 0.750739 0
678 1 0.287911 0.776161 0
649 1 0.29826 0.733216 0
650 1 0.321484 0.740604 0
679 1 0.304961 0.758506 0
681 1 0.329067 0.763952 0
652 1 0.345156 0.745433 0
683 1 0.368747 0.753604 0
654 1 0.362436 0.728724 0
685 1 0.386655 0.73552 0
715 1 0.412059 0.741761 0
684 1 0.393551 0.760153 0
714 1 0.417822 0.766039 0
687 1 0.428417 0.722753 0
717 1 0.435451 0.747945 0
688 1 0.458344 0.754376 0
689 1 0.451814 0.730456 0
690 1 0.476678 0.73703 0
719 1 0.483022 0.761015 0
1502 1 0.497591 0.651924 0
694 1 0.0314418 0.779435 0
693 1 0.00690244 0.785981 0
723 1 0.0245807 0.804201 0
870 1 0.473155 0.961627 0
725 1 0.0491276 0.799385 0
696 1 0.0561673 0.776004 0
727 1 0.0758092 0.79192 0
726 1 0.0669062 0.816294 0
728 1 0.0955989 0.807957 0
698 1 0.0986553 0.781229 0
700 1 0.118534 0.795284 0
701 1 0.141752 0.781266 0
731 1 0.141062 0.80669 0
702 1 0.162705 0.793963 0
732 1 0.163164 0.818616 0
703 1 0.184368 0.779849 0
705 1 0.226658 0.779324 0
733 1 0.184491 0.804836 0
704 1 0.205499 0.792839 0
735 1 0.207858 0.817629 0
706 1 0.229053 0.805254 0
676 1 0.248401 0.788479 0
737 1 0.252184 0.813667 0
707 1 0.270438 0.795596 0
709 1 0.31206 0.78195 0
708 1 0.2938 0.801391 0
710 1 0.317625 0.807853 0
680 1 0.335179 0.788341 0
682 1 0.353056 0.771778 0
711 1 0.358778 0.796243 0
741 1 0.340815 0.81456 0
713 1 0.376813 0.777986 0
712 1 0.382285 0.802808 0
743 1 0.401072 0.784195 0
745 1 0.406535 0.809125 0
716 1 0.441515 0.772745 0
747 1 0.448597 0.797227 0
746 1 0.424368 0.791317 0
775 1 0.43069 0.815058 0
718 1 0.464988 0.778894 0
720 1 0.48944 0.785873 0
749 1 0.471929 0.803134 0
1621 1 0.496992 0.810075 0
751 1 0.0174377 0.830289 0
752 1 0.0124419 0.854451 0
753 1 0.0350456 0.847325 0
722 1 0.0422201 0.823175 0
724 1 0.0611366 0.840349 0
755 1 0.0777949 0.859448 0
757 1 0.0855006 0.832488 0
729 1 0.118838 0.820338 0
756 1 0.100641 0.852605 0
759 1 0.123375 0.845081 0
730 1 0.143707 0.832724 0
761 1 0.165348 0.844679 0
760 1 0.142504 0.861099 0
763 1 0.185431 0.82923 0
762 1 0.188822 0.852518 0
734 1 0.211858 0.843209 0
736 1 0.232513 0.829414 0
765 1 0.235054 0.855532 0
738 1 0.276506 0.819922 0
767 1 0.256367 0.837405 0
766 1 0.264947 0.861227 0
768 1 0.283681 0.843188 0
739 1 0.300713 0.825287 0
769 1 0.306792 0.851491 0
740 1 0.323489 0.832903 0
742 1 0.365491 0.820949 0
771 1 0.347283 0.839 0
770 1 0.330393 0.858739 0
773 1 0.371735 0.844754 0
744 1 0.389481 0.827868 0
803 1 0.396224 0.851606 0
774 1 0.414118 0.834274 0
748 1 0.45479 0.821043 0
777 1 0.439013 0.839283 0
776 1 0.421324 0.857961 0
779 1 0.461977 0.845809 0
1561 1 0.49285 0.718187 0
750 1 0.479946 0.828525 0
780 1 0.486473 0.851965 0
783 1 0.0294384 0.872932 0
782 1 0.00477319 0.878586 0
813 1 0.0225927 0.896395 0
784 1 0.0468417 0.889798 0
754 1 0.0544162 0.865038 0
785 1 0.0710513 0.884066 0
786 1 0.0889374 0.901355 0
815 1 0.0645494 0.907832 0
758 1 0.118757 0.870243 0
787 1 0.0944083 0.876854 0
788 1 0.112997 0.894031 0
789 1 0.13665 0.88706 0
791 1 0.160353 0.88098 0
823 1 0.179283 0.901103 0
790 1 0.153473 0.906072 0
764 1 0.208572 0.869313 0
792 1 0.185016 0.876863 0
793 1 0.204007 0.894139 0
795 1 0.226331 0.886122 0
796 1 0.247909 0.877024 0
827 1 0.269936 0.88689 0
825 1 0.246698 0.904812 0
797 1 0.288 0.868847 0
799 1 0.312519 0.875174 0
798 1 0.294417 0.894065 0
829 1 0.319123 0.901264 0
800 1 0.337297 0.882495 0
801 1 0.354726 0.863368 0
802 1 0.361072 0.888177 0
772 1 0.378812 0.869521 0
805 1 0.403873 0.875503 0
804 1 0.38466 0.894222 0
806 1 0.411538 0.900218 0
778 1 0.445298 0.864093 0
807 1 0.428516 0.88266 0
808 1 0.453218 0.888442 0
809 1 0.469231 0.869881 0
1681 1 0.494023 0.87634 0
810 1 0.476829 0.894632 0
692 1 1.62643e-05 0.810804 0
842 1 0.01024 0.945132 0
843 1 0.0165029 0.920565 0
844 1 0.0345707 0.938785 0
814 1 0.0405771 0.914113 0
816 1 0.0823606 0.925485 0
845 1 0.0587789 0.932206 0
846 1 0.076896 0.94957 0
819 1 0.130788 0.912927 0
817 1 0.107036 0.918812 0
818 1 0.124355 0.937228 0
847 1 0.100748 0.943872 0
821 1 0.171907 0.924406 0
820 1 0.148918 0.930646 0
851 1 0.166224 0.948802 0
794 1 0.221652 0.911401 0
824 1 0.197179 0.918446 0
822 1 0.19074 0.942584 0
853 1 0.214896 0.93603 0
855 1 0.241081 0.929944 0
826 1 0.264669 0.921428 0
856 1 0.258971 0.946958 0
828 1 0.300727 0.91901 0
857 1 0.283728 0.938268 0
859 1 0.308161 0.94307 0
831 1 0.343339 0.906709 0
830 1 0.325185 0.925217 0
832 1 0.349664 0.930648 0
860 1 0.333035 0.948889 0
833 1 0.367134 0.912695 0
863 1 0.37498 0.937073 0
834 1 0.392917 0.917756 0
865 1 0.399937 0.942578 0
837 1 0.435401 0.907124 0
835 1 0.4174 0.924918 0
838 1 0.442544 0.931906 0
836 1 0.424296 0.948627 0
839 1 0.458897 0.913459 0
1741 1 0.490875 0.943789 0
840 1 0.484102 0.918408 0
869 1 0.467289 0.937245 0
872 1 0.0213444 0.988047 0
873 1 0.0279461 0.963153 0
871 1 0.00397452 0.970223 0
874 1 0.0454795 0.980909 0
897 1 0.439429 0.997573 0
875 1 0.0518177 0.956827 0
876 1 0.0700541 0.974119 0
7 1 0.0872752 0.992339 0
877 1 0.0938559 0.968382 0
848 1 0.118166 0.961062 0
878 1 0.111366 0.98603 0
879 1 0.135121 0.979443 0
849 1 0.142137 0.954896 0
850 1 0.159436 0.973175 0
11 1 0.176301 0.99162 0
881 1 0.152232 0.997528 0
852 1 0.183597 0.967423 0
882 1 0.200748 0.985087 0
883 1 0.208739 0.959724 0
884 1 0.227125 0.977565 0
886 1 0.244244 0.996722 0
854 1 0.23426 0.95366 0
885 1 0.251214 0.971942 0
17 1 0.268494 0.988708 0
887 1 0.277342 0.96445 0
858 1 0.315314 0.966847 0
888 1 0.294758 0.983742 0
861 1 0.358016 0.954368 0
889 1 0.323746 0.990863 0
891 1 0.340729 0.972868 0
890 1 0.347842 0.997062 0
862 1 0.365029 0.979097 0
864 1 0.381874 0.961444 0
893 1 0.3899 0.984868 0
895 1 0.406935 0.966894 0
896 1 0.414636 0.990894 0
867 1 0.450074 0.955725 0
868 1 0.456854 0.980015 0
866 1 0.432732 0.972562 0
899 1 0.48029 0.985994 0
439 1 0.279647 0.500822 0
902 1 0.535905 0.0244282 0
931 1 0.517694 0.043001 0
901 1 0.511301 0.0177226 0
904 1 0.560825 0.030817 0
906 1 0.577218 0.01345 0
935 1 0.584308 0.0378691 0
905 1 0.553041 0.00537319 0
908 1 0.601114 0.0200744 0
937 1 0.608242 0.0446125 0
939 1 0.62516 0.026214 0
940 1 0.649422 0.0318975 0
971 1 0.672697 0.0385848 0
942 1 0.667167 0.014049 0
941 1 0.642544 0.00747412 0
944 1 0.696145 0.0312245 0
945 1 0.721539 0.0242963 0
943 1 0.704226 0.0080783 0
947 1 0.745274 0.0176292 0
948 1 0.763377 0.0352271 0
918 1 0.769365 0.0110543 0
946 1 0.739087 0.0417208 0
919 1 0.793299 0.00413591 0
949 1 0.787943 0.0283557 0
920 1 0.811133 0.021736 0
979 1 0.805213 0.0465964 0
951 1 0.835277 0.0163613 0
952 1 0.853753 0.0330561 0
922 1 0.859873 0.0098771 0
950 1 0.829161 0.0393656 0
953 1 0.877548 0.027259 0
955 1 0.901568 0.020299 0
924 1 0.884254 0.00308592 0
954 1 0.895444 0.0456739 0
926 1 0.925145 0.0141675 0
928 1 0.949692 0.00642143 0
957 1 0.942783 0.0312146 0
956 1 0.919 0.0386912 0
930 1 0.991047 0.0185592 0
959 1 0.967055 0.0254136 0
960 1 0.984395 0.0437572 0
929 1 0.973828 0.000626045 0
1346 1 0.919983 0.47958 0
933 1 0.542956 0.0495178 0
932 1 0.524581 0.0665659 0
962 1 0.531164 0.0917843 0
961 1 0.507629 0.0849166 0
934 1 0.566941 0.0560349 0
963 1 0.548088 0.0736823 0
965 1 0.572597 0.0805464 0
936 1 0.590272 0.0630996 0
938 1 0.632089 0.0503852 0
966 1 0.597008 0.0866694 0
967 1 0.613363 0.0685034 0
969 1 0.637743 0.0755673 0
970 1 0.656239 0.0575825 0
999 1 0.662023 0.0821494 0
975 1 0.714816 0.0492463 0
972 1 0.685317 0.0810797 0
973 1 0.690382 0.0568529 0
1003 1 0.708452 0.0743901 0
1004 1 0.72684 0.0921838 0
974 1 0.733044 0.0661851 0
976 1 0.756836 0.0598201 0
1005 1 0.750361 0.084762 0
1007 1 0.7737 0.0771701 0
977 1 0.781447 0.052568 0
978 1 0.798602 0.0706119 0
1009 1 0.81598 0.0884427 0
980 1 0.822448 0.0641036 0
981 1 0.846273 0.0575844 0
1011 1 0.839738 0.0827149 0
982 1 0.864237 0.0760835 0
983 1 0.870739 0.051708 0
984 1 0.887716 0.069292 0
1015 1 0.905435 0.0872939 0
985 1 0.912848 0.063682 0
986 1 0.929474 0.0812528 0
987 1 0.935506 0.0559245 0
988 1 0.952288 0.0742543 0
958 1 0.95942 0.0497079 0
989 1 0.977432 0.0679893 0
990 1 0.994366 0.0853324 0
991 1 0.514164 0.109082 0
992 1 0.520219 0.134881 0
993 1 0.53783 0.116057 0
964 1 0.554906 0.098368 0
994 1 0.561618 0.123042 0
995 1 0.579031 0.105478 0
996 1 0.585981 0.130084 0
968 1 0.620242 0.0937599 0
997 1 0.602996 0.111319 0
1027 1 0.609872 0.136522 0
998 1 0.627712 0.118066 0
1000 1 0.645957 0.101008 0
1001 1 0.678023 0.105917 0
1030 1 0.651043 0.125425 0
1032 1 0.674573 0.13118 0
1031 1 0.696866 0.12271 0
1002 1 0.702903 0.0984166 0
1033 1 0.720516 0.116519 0
1035 1 0.744418 0.109817 0
1006 1 0.767702 0.101541 0
1036 1 0.762078 0.127101 0
1034 1 0.738828 0.134168 0
1008 1 0.790843 0.0950374 0
1037 1 0.785089 0.119014 0
1039 1 0.809257 0.113157 0
1040 1 0.827571 0.130787 0
1010 1 0.834191 0.107287 0
1012 1 0.858033 0.100549 0
1041 1 0.851166 0.125226 0
1043 1 0.875037 0.118167 0
1013 1 0.881763 0.0934009 0
1014 1 0.898833 0.11261 0
1016 1 0.916573 0.130612 0
1017 1 0.922787 0.105442 0
1018 1 0.94624 0.0988412 0
1047 1 0.939734 0.123695 0
1019 1 0.970582 0.0915427 0
1020 1 0.987478 0.110075 0
1049 1 0.963782 0.116878 0
1050 1 0.981695 0.135678 0
1023 1 0.543771 0.140503 0
1021 1 0.50373 0.152375 0
1022 1 0.527049 0.15939 0
1051 1 0.509473 0.177042 0
1025 1 0.567891 0.147597 0
1024 1 0.551659 0.165577 0
1055 1 0.575954 0.172558 0
1029 1 0.634492 0.143872 0
1026 1 0.592138 0.154221 0
1028 1 0.616272 0.161035 0
1057 1 0.599769 0.17958 0
1058 1 0.641662 0.168294 0
1059 1 0.657918 0.149886 0
1060 1 0.666276 0.174442 0
1063 1 0.714769 0.140373 0
1061 1 0.683113 0.155775 0
1062 1 0.70761 0.163487 0
1091 1 0.690555 0.180849 0
1064 1 0.731491 0.157491 0
1065 1 0.755985 0.151034 0
1095 1 0.749586 0.175829 0
1038 1 0.804044 0.13724 0
1066 1 0.773241 0.169406 0
1067 1 0.77962 0.143902 0
1068 1 0.79671 0.161884 0
1099 1 0.814879 0.178878 0
1069 1 0.82066 0.154818 0
1071 1 0.844934 0.14846 0
1070 1 0.838283 0.171714 0
1072 1 0.863106 0.166167 0
1044 1 0.893367 0.136538 0
1042 1 0.869536 0.14293 0
1073 1 0.886402 0.161539 0
1074 1 0.903939 0.179318 0
1045 1 0.911141 0.155468 0
1075 1 0.927595 0.173451 0
1046 1 0.935136 0.149027 0
1077 1 0.951812 0.166704 0
1048 1 0.957967 0.140989 0
1079 1 0.975219 0.160358 0
1080 1 0.993797 0.178615 0
421 1 0.987646 0.476779 0
1053 1 0.534011 0.183703 0
1052 1 0.517084 0.201007 0
1082 1 0.524122 0.225859 0
1083 1 0.5411 0.207872 0
1350 1 0.968521 0.494881 0
1054 1 0.557885 0.190221 0
1085 1 0.565398 0.214512 0
1056 1 0.582619 0.196277 0
1115 1 0.58907 0.221343 0
1086 1 0.6072 0.203697 0
1087 1 0.623022 0.184313 0
1088 1 0.631204 0.209798 0
1089 1 0.648806 0.193028 0
1090 1 0.673246 0.19879 0
1119 1 0.65554 0.217092 0
1121 1 0.679246 0.224911 0
1093 1 0.714807 0.188562 0
1092 1 0.696564 0.206645 0
1123 1 0.720304 0.213441 0
1094 1 0.736851 0.196654 0
1096 1 0.765846 0.1956 0
1125 1 0.745653 0.219858 0
1097 1 0.790318 0.186289 0
1127 1 0.785247 0.210426 0
1098 1 0.807967 0.202806 0
1129 1 0.824893 0.220487 0
1100 1 0.832838 0.196186 0
1101 1 0.855669 0.189916 0
1131 1 0.84878 0.214767 0
1102 1 0.872725 0.209723 0
1103 1 0.879942 0.185673 0
1104 1 0.896519 0.204838 0
1135 1 0.938528 0.216339 0
1105 1 0.920626 0.197799 0
1076 1 0.945016 0.191631 0
1107 1 0.963151 0.21056 0
1078 1 0.969353 0.184741 0
1109 1 0.987005 0.202453 0
1110 1 0.995419 0.225756 0
1111 1 0.506291 0.243408 0
1113 1 0.530693 0.249942 0
1112 1 0.512011 0.267545 0
1084 1 0.547831 0.232522 0
1143 1 0.554961 0.258084 0
1114 1 0.572139 0.238752 0
1145 1 0.578219 0.26318 0
1117 1 0.613004 0.227406 0
1116 1 0.596591 0.245947 0
1147 1 0.619619 0.252631 0
1146 1 0.602025 0.270156 0
1118 1 0.637089 0.234734 0
1149 1 0.643818 0.259424 0
1120 1 0.661576 0.242515 0
1150 1 0.668221 0.266529 0
1151 1 0.685943 0.248624 0
1122 1 0.702823 0.231147 0
1153 1 0.709901 0.254879 0
1152 1 0.691575 0.272956 0
1126 1 0.769218 0.228303 0
1124 1 0.727498 0.237783 0
1154 1 0.733185 0.262242 0
1155 1 0.751776 0.244788 0
1156 1 0.757603 0.270039 0
1157 1 0.776311 0.252241 0
1128 1 0.795061 0.234519 0
1158 1 0.800086 0.260514 0
1159 1 0.819013 0.243801 0
1160 1 0.826373 0.26721 0
1130 1 0.843425 0.24734 0
1191 1 0.849862 0.27385 0
1133 1 0.88875 0.232907 0
1132 1 0.864446 0.232652 0
1161 1 0.867822 0.257245 0
1163 1 0.892018 0.262767 0
1134 1 0.911935 0.243311 0