LAMMPS data file via write_data, version 17 Nov 2016, timestep = 220000

1800 atoms
1 atom types

1.3860750070276424e+00 1.6361392499297148e+02 xlo xhi
1.3860750070276424e+00 1.6361392499297148e+02 ylo yhi
0.0000000000000000e+00 5.5000000000000000e+00 zlo zhi

Masses

1 83.798

Atoms # atomic

2 1 3.4313447146994229e+00 2.4860949610961840e+00 0.0000000000000000e+00 0 0 0
33 1 6.4878227239390398e+00 5.1329573073863326e+00 0.0000000000000000e+00 0 0 0
31 1 2.6351849355196371e+00 6.3926013858357633e+00 0.0000000000000000e+00 0 0 0
4 1 1.0231351035205098e+01 3.6870034488425447e+00 0.0000000000000000e+00 0 0 0
6 1 1.4111962115663095e+01 2.3837328595645428e+00 0.0000000000000000e+00 0 0 0
35 1 1.3310693678034287e+01 6.4378701480607434e+00 0.0000000000000000e+00 0 0 0
34 1 9.5169668600190072e+00 7.7062459205524565e+00 0.0000000000000000e+00 0 0 0
37 1 1.7226252070667254e+01 5.1995044684761744e+00 0.0000000000000000e+00 0 0 0
39 1 2.0862147704977950e+01 3.8344654788014894e+00 0.0000000000000000e+00 0 0 0
38 1 2.0143623616151906e+01 7.8436844427422576e+00 0.0000000000000000e+00 0 0 0
40 1 2.3933597001418583e+01 6.3930530545832420e+00 0.0000000000000000e+00 0 0 0
10 1 2.4816583527130263e+01 2.4846772876720244e+00 0.0000000000000000e+00 0 0 0
42 1 2.7722652342833843e+01 5.1769685006491626e+00 0.0000000000000000e+00 0 0 0
73 1 3.0897820050628070e+01 7.6931630743382202e+00 0.0000000000000000e+00 0 0 0
43 1 3.1345871117154772e+01 3.7131622738989432e+00 0.0000000000000000e+00 0 0 0
14 1 3.5292461078588502e+01 2.4314852811280718e+00 0.0000000000000000e+00 0 0 0
44 1 3.4573740811591705e+01 6.3842932510555759e+00 0.0000000000000000e+00 0 0 0
45 1 3.8527170319012519e+01 5.0261987005670967e+00 0.0000000000000000e+00 0 0 0
16 1 4.2445122512460031e+01 3.8599179849664367e+00 0.0000000000000000e+00 0 0 0
75 1 4.1506787479172225e+01 7.8179235885067015e+00 0.0000000000000000e+00 0 0 0
46 1 4.5593492077814588e+01 6.3539783329302439e+00 0.0000000000000000e+00 0 0 0
18 1 4.6452288927971196e+01 2.2667492452983589e+00 0.0000000000000000e+00 0 0 0
49 1 4.9431252758232027e+01 5.0250839986042344e+00 0.0000000000000000e+00 0 0 0
20 1 5.2123607206002177e+01 2.0002577938782391e+00 0.0000000000000000e+00 0 0 0
51 1 5.3413422282879672e+01 5.7385489872747106e+00 0.0000000000000000e+00 0 0 0
22 1 5.7188087858618637e+01 6.7220445470683892e+00 0.0000000000000000e+00 0 0 0
21 1 5.9995991874133765e+01 3.6861930106218428e+00 0.0000000000000000e+00 0 0 0
890 1 5.5987853052752648e+01 2.6118185746313203e+00 0.0000000000000000e+00 0 1 0
24 1 6.3980170102174363e+01 4.8090664911912739e+00 0.0000000000000000e+00 0 0 0
53 1 6.1174011264293192e+01 7.7808135059324020e+00 0.0000000000000000e+00 0 0 0
894 1 6.6908329501498329e+01 1.9698708882666331e+00 0.0000000000000000e+00 0 1 0
25 1 6.7801506049116142e+01 6.0219441207390423e+00 0.0000000000000000e+00 0 0 0
26 1 7.1730727148076895e+01 6.9063517247138888e+00 0.0000000000000000e+00 0 0 0
27 1 7.0671886558338798e+01 2.9801445465931033e+00 0.0000000000000000e+00 0 0 0
898 1 7.4555304065888933e+01 4.0154386590359259e+00 0.0000000000000000e+00 0 1 0
28 1 7.5537388057312128e+01 8.1693327490233933e+00 0.0000000000000000e+00 0 0 0
29 1 7.8536689650269125e+01 5.1347108603753231e+00 0.0000000000000000e+00 0 0 0
900 1 8.1276538684170092e+01 1.9912526472166192e+00 0.0000000000000000e+00 0 1 0
30 1 8.2374194171045886e+01 6.0476238214910252e+00 0.0000000000000000e+00 0 0 0
32 1 5.8391684815767375e+00 9.0471242900444206e+00 0.0000000000000000e+00 0 0 0
62 1 5.0666711198935062e+00 1.3054224094096622e+01 0.0000000000000000e+00 0 0 0
61 1 1.9546909478377663e+00 1.0378652471233444e+01 0.0000000000000000e+00 0 0 0
63 1 8.8892966121016848e+00 1.1779081466406623e+01 0.0000000000000000e+00 0 0 0
65 1 1.2676436947348391e+01 1.0478518436266627e+01 0.0000000000000000e+00 0 0 0
66 1 1.5772598872854028e+01 1.3157312171270217e+01 0.0000000000000000e+00 0 0 0
64 1 1.1925463337067326e+01 1.4349134061639424e+01 0.0000000000000000e+00 0 0 0
36 1 1.6456544803487866e+01 9.1753159797353803e+00 0.0000000000000000e+00 0 0 0
67 1 1.9579368204042904e+01 1.1809131824401417e+01 0.0000000000000000e+00 0 0 0
69 1 2.3226088093330674e+01 1.0399299238560900e+01 0.0000000000000000e+00 0 0 0
68 1 2.2666728453886559e+01 1.4578672320136771e+01 0.0000000000000000e+00 0 0 0
71 1 2.7099207812658264e+01 9.2103149969919684e+00 0.0000000000000000e+00 0 0 0
72 1 3.0258593725345776e+01 1.1829261759303794e+01 0.0000000000000000e+00 0 0 0
70 1 2.6372421738750059e+01 1.3156600806569219e+01 0.0000000000000000e+00 0 0 0
74 1 3.7761309203510208e+01 8.9968449424504318e+00 0.0000000000000000e+00 0 0 0
103 1 3.3985381340193562e+01 1.0423202431914989e+01 0.0000000000000000e+00 0 0 0
105 1 3.7067145385292299e+01 1.3085815488580961e+01 0.0000000000000000e+00 0 0 0
101 1 3.3421677544156793e+01 1.4452745910389897e+01 0.0000000000000000e+00 0 0 0
77 1 4.4747318585508388e+01 1.0310919944263006e+01 0.0000000000000000e+00 0 0 0
76 1 4.0974107773361922e+01 1.1746367053810570e+01 0.0000000000000000e+00 0 0 0
137 1 4.3970879628532749e+01 1.4370052963612677e+01 0.0000000000000000e+00 0 0 0
47 1 4.8765194182557671e+01 9.1534380180554713e+00 0.0000000000000000e+00 0 0 0
48 1 5.1515439072788773e+01 1.2470605670048082e+01 0.0000000000000000e+00 0 0 0
78 1 4.7638064875783449e+01 1.2983462797729812e+01 0.0000000000000000e+00 0 0 0
50 1 5.4432694180997444e+01 9.6660444172512552e+00 0.0000000000000000e+00 0 0 0
81 1 5.5416910761999702e+01 1.3644181913895292e+01 0.0000000000000000e+00 0 0 0
52 1 5.8227263262635930e+01 1.0713615425923313e+01 0.0000000000000000e+00 0 0 0
82 1 5.9497786703865664e+01 1.4720935983049745e+01 0.0000000000000000e+00 0 0 0
55 1 6.5009959967435123e+01 8.8332536992501467e+00 0.0000000000000000e+00 0 0 0
83 1 6.2212665301752146e+01 1.1944485507696603e+01 0.0000000000000000e+00 0 0 0
54 1 6.6149730053308275e+01 1.2831130253538683e+01 0.0000000000000000e+00 0 0 0
57 1 7.2996419692271743e+01 1.1134139783901906e+01 0.0000000000000000e+00 0 0 0
85 1 7.0095692137831080e+01 1.3994149097310224e+01 0.0000000000000000e+00 0 0 0
56 1 6.8990035119457346e+01 1.0016816352542248e+01 0.0000000000000000e+00 0 0 0
87 1 7.3821700622706942e+01 1.5134941052284612e+01 0.0000000000000000e+00 0 0 0
59 1 7.9539721284199430e+01 9.0775937843290357e+00 0.0000000000000000e+00 0 0 0
58 1 7.6863868416496274e+01 1.2026362522703526e+01 0.0000000000000000e+00 0 0 0
89 1 8.0559701698597351e+01 1.3089602344153921e+01 0.0000000000000000e+00 0 0 0
93 1 8.0262437079889644e+00 1.5742453261554921e+01 0.0000000000000000e+00 0 0 0
990 1 4.0612720361796395e+00 1.7028531073676461e+01 0.0000000000000000e+00 1 0 0
92 1 7.1557520005091986e+00 1.9600044538201843e+01 0.0000000000000000e+00 0 0 0
91 1 3.0750364599996725e+00 2.0799161940424568e+01 0.0000000000000000e+00 0 0 0
94 1 1.1128523616026166e+01 1.8313560521763147e+01 0.0000000000000000e+00 0 0 0
95 1 1.4989183491334806e+01 1.6990834044194649e+01 0.0000000000000000e+00 0 0 0
125 1 1.4103418101037368e+01 2.0860663677416760e+01 0.0000000000000000e+00 0 0 0
123 1 1.0219229243423149e+01 2.2145666390863180e+01 0.0000000000000000e+00 0 0 0
96 1 1.7899639929076397e+01 1.9817682287040316e+01 0.0000000000000000e+00 0 0 0
97 1 1.8928705009002837e+01 1.5900855774092076e+01 0.0000000000000000e+00 0 0 0
98 1 2.1887180995679802e+01 1.8548368198123544e+01 0.0000000000000000e+00 0 0 0
127 1 2.1115260268443372e+01 2.2366305766212577e+01 0.0000000000000000e+00 0 0 0
99 1 2.5767575355149830e+01 1.7240708674907467e+01 0.0000000000000000e+00 0 0 0
100 1 2.9508051565767605e+01 1.5794609035466205e+01 0.0000000000000000e+00 0 0 0
130 1 2.8826359399791567e+01 1.9839037129147641e+01 0.0000000000000000e+00 0 0 0
129 1 2.4972542801130189e+01 2.1122866734703983e+01 0.0000000000000000e+00 0 0 0
131 1 3.2632802296638218e+01 1.8596103902684963e+01 0.0000000000000000e+00 0 0 0
102 1 3.6473086984210006e+01 1.7187142596133420e+01 0.0000000000000000e+00 0 0 0
133 1 3.5721565745776566e+01 2.1093064932225719e+01 0.0000000000000000e+00 0 0 0
132 1 3.1886531994647115e+01 2.2497453257988941e+01 0.0000000000000000e+00 0 0 0
104 1 3.9356745609122378e+01 1.9763879530453295e+01 0.0000000000000000e+00 0 0 0
106 1 4.0235677173479964e+01 1.5845513444869843e+01 0.0000000000000000e+00 0 0 0
135 1 4.3313248698858331e+01 1.8330372288769979e+01 0.0000000000000000e+00 0 0 0
165 1 4.2348256955948052e+01 2.2185353736927382e+01 0.0000000000000000e+00 0 0 0
107 1 4.7101059140172026e+01 1.7045033960962076e+01 0.0000000000000000e+00 0 0 0
109 1 5.0007610789419047e+01 1.9776613315030822e+01 0.0000000000000000e+00 0 0 0
79 1 5.2472065879527811e+01 1.6445346144801299e+01 0.0000000000000000e+00 0 0 0
108 1 4.6368655316428963e+01 2.1346424474082742e+01 0.0000000000000000e+00 0 0 0
80 1 5.6452724726300509e+01 1.7598455892723564e+01 0.0000000000000000e+00 0 0 0
110 1 5.3814071278392120e+01 2.0629689370660905e+01 0.0000000000000000e+00 0 0 0
141 1 5.7697562884202632e+01 2.1541788157470677e+01 0.0000000000000000e+00 0 0 0
111 1 6.0482705070595252e+01 1.8643368956696108e+01 0.0000000000000000e+00 0 0 0
113 1 6.3352987441212157e+01 1.5911660495155385e+01 0.0000000000000000e+00 0 0 0
84 1 6.7193086914079615e+01 1.6866833314068039e+01 0.0000000000000000e+00 0 0 0
112 1 6.4377139411189887e+01 1.9925585941544888e+01 0.0000000000000000e+00 0 0 0
115 1 6.8260008841753063e+01 2.0870348918137474e+01 0.0000000000000000e+00 0 0 0
86 1 7.0983471739165509e+01 1.7979909061637503e+01 0.0000000000000000e+00 0 0 0
116 1 7.2024427687650729e+01 2.2077256449904922e+01 0.0000000000000000e+00 0 0 0
117 1 7.4874675692998210e+01 1.9095956578458509e+01 0.0000000000000000e+00 0 0 0
88 1 7.7638498647962479e+01 1.6134856949196880e+01 0.0000000000000000e+00 0 0 0
90 1 8.1535332717689826e+01 1.7106111893459563e+01 0.0000000000000000e+00 0 0 0
119 1 7.8831279477411442e+01 2.0068541720669245e+01 0.0000000000000000e+00 0 0 0
122 1 6.1450850874110738e+00 2.3495950954998314e+01 0.0000000000000000e+00 0 0 0
152 1 5.3442017678394933e+00 2.7530913377751091e+01 0.0000000000000000e+00 0 0 0
121 1 2.2081743703066210e+00 2.4724349667462374e+01 0.0000000000000000e+00 0 0 0
151 1 1.5150440460004171e+00 2.8739034206360071e+01 0.0000000000000000e+00 0 0 0
153 1 9.1838037489954836e+00 2.6098703926617727e+01 0.0000000000000000e+00 0 0 0
124 1 1.3141317965615908e+01 2.4931400945476767e+01 0.0000000000000000e+00 0 0 0
154 1 1.2396496023226131e+01 2.8889044760794683e+01 0.0000000000000000e+00 0 0 0
155 1 1.6350370060103064e+01 2.7672848157742365e+01 0.0000000000000000e+00 0 0 0
126 1 1.7175988778659232e+01 2.3772146881007728e+01 0.0000000000000000e+00 0 0 0
157 1 2.0331690343263165e+01 2.6361372435739224e+01 0.0000000000000000e+00 0 0 0
158 1 2.3097904838488027e+01 2.9209500358812903e+01 0.0000000000000000e+00 0 0 0
128 1 2.4121950875120561e+01 2.5251998916814813e+01 0.0000000000000000e+00 0 0 0
159 1 2.7977597171285133e+01 2.3742054151626370e+01 0.0000000000000000e+00 0 0 0
160 1 2.7379223615183992e+01 2.7824988030636920e+01 0.0000000000000000e+00 0 0 0
161 1 3.1142948897072465e+01 2.6502990519683355e+01 0.0000000000000000e+00 0 0 0
163 1 3.4859444220859466e+01 2.5097915887010107e+01 0.0000000000000000e+00 0 0 0
162 1 3.4254902788657034e+01 2.9256775451711309e+01 0.0000000000000000e+00 0 0 0
134 1 3.8825326049668696e+01 2.3906024534402174e+01 0.0000000000000000e+00 0 0 0
136 1 4.4697224507509361e+01 2.5249909250153141e+01 0.0000000000000000e+00 0 0 0
164 1 4.1133873846856858e+01 2.7432555610364187e+01 0.0000000000000000e+00 0 0 0
167 1 4.5273630672564522e+01 2.9212769223051410e+01 0.0000000000000000e+00 0 0 0
139 1 5.1071523885673130e+01 2.3628371769898738e+01 0.0000000000000000e+00 0 0 0
138 1 4.8391157871425882e+01 2.6405764566147454e+01 0.0000000000000000e+00 0 0 0
169 1 5.2152064634440052e+01 2.7498812622728259e+01 0.0000000000000000e+00 0 0 0
140 1 5.4933251299310648e+01 2.4557497634930407e+01 0.0000000000000000e+00 0 0 0
142 1 5.8755811008039416e+01 2.5827976199699123e+01 0.0000000000000000e+00 0 0 0
171 1 5.5939606504314064e+01 2.8865172052247672e+01 0.0000000000000000e+00 0 0 0
143 1 6.1619475812845245e+01 2.2921178985368829e+01 0.0000000000000000e+00 0 0 0
114 1 6.5521666460459642e+01 2.4083542335943353e+01 0.0000000000000000e+00 0 0 0
173 1 6.2655420588317526e+01 2.6922470245127087e+01 0.0000000000000000e+00 0 0 0
144 1 6.6462260025929993e+01 2.8044324798010841e+01 0.0000000000000000e+00 0 0 0
145 1 6.9356941656247841e+01 2.5103891471921393e+01 0.0000000000000000e+00 0 0 0
146 1 7.0360435537532297e+01 2.9060351036169362e+01 0.0000000000000000e+00 0 0 0
147 1 7.3238198989516746e+01 2.5964144772151478e+01 0.0000000000000000e+00 0 0 0
118 1 7.6035562305604657e+01 2.3111245730867829e+01 0.0000000000000000e+00 0 0 0
149 1 8.0020333905229052e+01 2.4088831242416425e+01 0.0000000000000000e+00 0 0 0
148 1 7.7263645553674451e+01 2.7104315831434935e+01 0.0000000000000000e+00 0 0 0
150 1 8.1089987845441613e+01 2.7990235994168291e+01 0.0000000000000000e+00 0 0 0
183 1 8.5800677212773255e+00 3.0186548335144138e+01 0.0000000000000000e+00 0 0 0
182 1 7.4449375004510614e+00 3.4035517723827546e+01 0.0000000000000000e+00 0 0 0
1080 1 4.5311581748209404e+00 3.1387505455812928e+01 0.0000000000000000e+00 1 0 0
211 1 3.6604461766080232e+00 3.5303579540532112e+01 0.0000000000000000e+00 0 0 0
184 1 1.1536345591191052e+01 3.3022972393950468e+01 0.0000000000000000e+00 0 0 0
185 1 1.5356959528606170e+01 3.1657589769237514e+01 0.0000000000000000e+00 0 0 0
215 1 1.4579135213126703e+01 3.5712465074273069e+01 0.0000000000000000e+00 0 0 0
186 1 1.8371632203778425e+01 3.4223915591839607e+01 0.0000000000000000e+00 0 0 0
156 1 1.9208470686877600e+01 3.0352830972972772e+01 0.0000000000000000e+00 0 0 0
187 1 2.2312906322605997e+01 3.3073554881207684e+01 0.0000000000000000e+00 0 0 0
189 1 2.6289480636197137e+01 3.1696651981228786e+01 0.0000000000000000e+00 0 0 0
191 1 3.0231223545516766e+01 3.0976318676942952e+01 0.0000000000000000e+00 0 0 0
190 1 2.8963195947964241e+01 3.4896876561415439e+01 0.0000000000000000e+00 0 0 0
188 1 2.5147706037510904e+01 3.5828617421182230e+01 0.0000000000000000e+00 0 0 0
221 1 3.2741024956651280e+01 3.6019333530310405e+01 0.0000000000000000e+00 0 0 0
192 1 3.5495950140190139e+01 3.3176244224490119e+01 0.0000000000000000e+00 0 0 0
193 1 3.8158317325102814e+01 3.0144969565735771e+01 0.0000000000000000e+00 0 0 0
195 1 3.9458362853251955e+01 3.4567703355245293e+01 0.0000000000000000e+00 0 0 0
166 1 4.2247230338724854e+01 3.1670554458465304e+01 0.0000000000000000e+00 0 0 0
196 1 4.3180254127267446e+01 3.5855475600140167e+01 0.0000000000000000e+00 0 0 0
168 1 4.9064557232128472e+01 3.0423259057685922e+01 0.0000000000000000e+00 0 0 0
197 1 4.6104510661751455e+01 3.3184701246903430e+01 0.0000000000000000e+00 0 0 0
199 1 4.9974114796695709e+01 3.4392043319576089e+01 0.0000000000000000e+00 0 0 0
170 1 5.2849783732400354e+01 3.1580574587795912e+01 0.0000000000000000e+00 0 0 0
172 1 5.9751875108347569e+01 2.9678852684497230e+01 0.0000000000000000e+00 0 0 0
201 1 5.6871268936461632e+01 3.2700291162398443e+01 0.0000000000000000e+00 0 0 0
200 1 5.3929242884960779e+01 3.5399668260086997e+01 0.0000000000000000e+00 0 0 0
202 1 5.7854838341429470e+01 3.6584297809658970e+01 0.0000000000000000e+00 0 0 0
203 1 6.0697819641332345e+01 3.3775298149346177e+01 0.0000000000000000e+00 0 0 0
174 1 6.3628501005789907e+01 3.0919918520636532e+01 0.0000000000000000e+00 0 0 0
204 1 6.4855274827194364e+01 3.4869133874101749e+01 0.0000000000000000e+00 0 0 0
175 1 6.7520466925501424e+01 3.1886810329426897e+01 0.0000000000000000e+00 0 0 0
177 1 7.4312972189139870e+01 2.9979725322071044e+01 0.0000000000000000e+00 0 0 0
205 1 6.8662561740067218e+01 3.5846635615871037e+01 0.0000000000000000e+00 0 0 0
176 1 7.1435875884098778e+01 3.2945952087191131e+01 0.0000000000000000e+00 0 0 0
178 1 7.5347620323526982e+01 3.4057545816048695e+01 0.0000000000000000e+00 0 0 0
179 1 7.8243952276261737e+01 3.1053567365184350e+01 0.0000000000000000e+00 0 0 0
180 1 8.2138705655652359e+01 3.2062815134137864e+01 0.0000000000000000e+00 0 0 0
209 1 7.9234037542971308e+01 3.5080682610386177e+01 0.0000000000000000e+00 0 0 0
212 1 6.7498768119605241e+00 3.8110390636748768e+01 0.0000000000000000e+00 0 0 0
1140 1 3.0083992136686373e+00 3.9184217097281589e+01 0.0000000000000000e+00 1 0 0
1169 1 2.4021327831639647e+00 4.2986616619088544e+01 0.0000000000000000e+00 1 0 0
241 1 6.3836512285483211e+00 4.3654983525338892e+01 0.0000000000000000e+00 0 0 0
213 1 1.0469423936458588e+01 3.7042178163069117e+01 0.0000000000000000e+00 0 0 0
243 1 9.5568329230868621e+00 4.1294661402286486e+01 0.0000000000000000e+00 0 0 0
214 1 1.3498156845270776e+01 3.9576490317571306e+01 0.0000000000000000e+00 0 0 0
244 1 1.3259088141530535e+01 4.3373276908364844e+01 0.0000000000000000e+00 0 0 0
216 1 1.7488338329229833e+01 3.8899381490743210e+01 0.0000000000000000e+00 0 0 0
217 1 2.1117885492417013e+01 3.6900357209650693e+01 0.0000000000000000e+00 0 0 0
247 1 2.0288503712521958e+01 4.1958827519870162e+01 0.0000000000000000e+00 0 0 0
218 1 2.3611046315541142e+01 3.9846656008889440e+01 0.0000000000000000e+00 0 0 0
219 1 2.7224559026979470e+01 4.1657791988851159e+01 0.0000000000000000e+00 0 0 0
220 1 2.9934637530545810e+01 3.8825772540462964e+01 0.0000000000000000e+00 0 0 0
222 1 3.0963996747315448e+01 4.2985945101522354e+01 0.0000000000000000e+00 0 0 0
194 1 3.6490210032695934e+01 3.7260982985187880e+01 0.0000000000000000e+00 0 0 0
223 1 3.3648532138470209e+01 4.0053895615469543e+01 0.0000000000000000e+00 0 0 0
224 1 3.7591856665188246e+01 4.1433982237166667e+01 0.0000000000000000e+00 0 0 0
225 1 4.0352061946268897e+01 3.8618168567898401e+01 0.0000000000000000e+00 0 0 0
227 1 4.4179512315453032e+01 3.9792866396292609e+01 0.0000000000000000e+00 0 0 0
226 1 4.1461087098674113e+01 4.2673135701166068e+01 0.0000000000000000e+00 0 0 0
198 1 4.7166821560975301e+01 3.7214592629553849e+01 0.0000000000000000e+00 0 0 0
228 1 4.8076676805934646e+01 4.1221326344341030e+01 0.0000000000000000e+00 0 0 0
229 1 5.1006691231693658e+01 3.8295327212978798e+01 0.0000000000000000e+00 0 0 0
230 1 5.1915838079372726e+01 4.2316189370974740e+01 0.0000000000000000e+00 0 0 0
231 1 5.4935115751236722e+01 3.9510221192738179e+01 0.0000000000000000e+00 0 0 0
232 1 5.8864213004494133e+01 4.0574183298577744e+01 0.0000000000000000e+00 0 0 0
261 1 5.5941139430482160e+01 4.3461885431869192e+01 0.0000000000000000e+00 0 0 0
233 1 6.1731930672588213e+01 3.7719294419248790e+01 0.0000000000000000e+00 0 0 0
234 1 6.2729939472101314e+01 4.1605219096154705e+01 0.0000000000000000e+00 0 0 0
235 1 6.5636577175234819e+01 3.8898368114451749e+01 0.0000000000000000e+00 0 0 0
265 1 6.6675214461471981e+01 4.2682773110643410e+01 0.0000000000000000e+00 0 0 0
207 1 7.2465908888684879e+01 3.7027231176954480e+01 0.0000000000000000e+00 0 0 0
206 1 6.9503645700743107e+01 3.9873353930790834e+01 0.0000000000000000e+00 0 0 0
237 1 7.3431106327253076e+01 4.0962089382054621e+01 0.0000000000000000e+00 0 0 0
236 1 7.0439539115345951e+01 4.3704658397006753e+01 0.0000000000000000e+00 0 0 0
208 1 7.6337669183357036e+01 3.7901698965825716e+01 0.0000000000000000e+00 0 0 0
210 1 8.0108297557980308e+01 3.9098557271932343e+01 0.0000000000000000e+00 0 0 0
239 1 7.7276109645576980e+01 4.2011378543874756e+01 0.0000000000000000e+00 0 0 0
240 1 8.1226322092229466e+01 4.3115827332546409e+01 0.0000000000000000e+00 0 0 0
271 1 7.0753099868377252e+00 4.8071295256667916e+01 0.0000000000000000e+00 0 0 0
1170 1 3.3403008759462418e+00 4.6733280439662565e+01 0.0000000000000000e+00 1 0 0
1200 1 3.7910708536935820e+00 5.0705731163350904e+01 0.0000000000000000e+00 1 0 0
242 1 9.9947578670707120e+00 4.5445104434663271e+01 0.0000000000000000e+00 0 0 0
273 1 1.0702193577742706e+01 4.9574821578550761e+01 0.0000000000000000e+00 0 0 0
275 1 1.4080801611008649e+01 4.7363592819866376e+01 0.0000000000000000e+00 0 0 0
245 1 1.7079550612937219e+01 4.4639957312207990e+01 0.0000000000000000e+00 0 0 0
246 1 1.7827850161178787e+01 4.8815718220690975e+01 0.0000000000000000e+00 0 0 0
248 1 2.0808551915594787e+01 4.6227824982046492e+01 0.0000000000000000e+00 0 0 0
279 1 2.1445126305618846e+01 5.0225674445480365e+01 0.0000000000000000e+00 0 0 0
249 1 2.4056730583997062e+01 4.3940668746789896e+01 0.0000000000000000e+00 0 0 0
251 1 2.7758757336541894e+01 4.5562495592022849e+01 0.0000000000000000e+00 0 0 0
250 1 2.4562670477136418e+01 4.8014175585872735e+01 0.0000000000000000e+00 0 0 0
281 1 2.8550668096133137e+01 4.9579257469779414e+01 0.0000000000000000e+00 0 0 0
253 1 3.4814763318132442e+01 4.4326026771435934e+01 0.0000000000000000e+00 0 0 0
252 1 3.1566180431960241e+01 4.6988951756318912e+01 0.0000000000000000e+00 0 0 0
254 1 3.5292558255878866e+01 4.8258582874184441e+01 0.0000000000000000e+00 0 0 0
255 1 3.8646392583576926e+01 4.5504902378171444e+01 0.0000000000000000e+00 0 0 0
257 1 4.5310981480935695e+01 4.4122586258694042e+01 0.0000000000000000e+00 0 0 0
256 1 4.2385101534214613e+01 4.6863755363863042e+01 0.0000000000000000e+00 0 0 0
285 1 3.9261291840073412e+01 4.9617391367719669e+01 0.0000000000000000e+00 0 0 0
259 1 4.9049569851711695e+01 4.5304702659746262e+01 0.0000000000000000e+00 0 0 0
258 1 4.6146927485999761e+01 4.8088498599879799e+01 0.0000000000000000e+00 0 0 0
289 1 5.0023134549103247e+01 4.9310906753831240e+01 0.0000000000000000e+00 0 0 0
260 1 5.2915089601391863e+01 4.6266976934545134e+01 0.0000000000000000e+00 0 0 0
263 1 5.9736901609708930e+01 4.4535097112335713e+01 0.0000000000000000e+00 0 0 0
262 1 5.6856206006769298e+01 4.7403475509877048e+01 0.0000000000000000e+00 0 0 0
291 1 5.4032490321807387e+01 5.0408911143077724e+01 0.0000000000000000e+00 0 0 0
293 1 6.0804077704886602e+01 4.8431740103093041e+01 0.0000000000000000e+00 0 0 0
264 1 6.3605590067342845e+01 4.5490975002919114e+01 0.0000000000000000e+00 0 0 0
295 1 6.4705870298810993e+01 4.9386681442274480e+01 0.0000000000000000e+00 0 0 0
266 1 6.7542506862347423e+01 4.6558014613570052e+01 0.0000000000000000e+00 0 0 0
238 1 7.4499947655868013e+01 4.4811403679388540e+01 0.0000000000000000e+00 0 0 0
267 1 7.1527912864123721e+01 4.7477032674872049e+01 0.0000000000000000e+00 0 0 0
297 1 6.8760423069553170e+01 5.0473956821448795e+01 0.0000000000000000e+00 0 0 0
268 1 7.5589569091203415e+01 4.8798038372178901e+01 0.0000000000000000e+00 0 0 0
269 1 7.8448641811867958e+01 4.5978400310238243e+01 0.0000000000000000e+00 0 0 0
270 1 7.9474574500045392e+01 4.9880597901621549e+01 0.0000000000000000e+00 0 0 0
1141 1 8.2393378030417125e+01 4.6899170536357467e+01 0.0000000000000000e+00 0 0 0
301 1 4.2801461942034464e+00 5.4597322034985638e+01 0.0000000000000000e+00 0 0 0
272 1 7.5745599315963332e+00 5.2051684125304511e+01 0.0000000000000000e+00 0 0 0
303 1 8.0895805229105271e+00 5.6132987649341409e+01 0.0000000000000000e+00 0 0 0
276 1 1.4617808982553486e+01 5.1381137446444725e+01 0.0000000000000000e+00 0 0 0
274 1 1.1277382135291933e+01 5.3739497245381777e+01 0.0000000000000000e+00 0 0 0
305 1 1.5109269143313718e+01 5.5226345456628856e+01 0.0000000000000000e+00 0 0 0
304 1 1.1889226616894030e+01 5.7661532097586594e+01 0.0000000000000000e+00 0 0 0
277 1 1.8334608255768021e+01 5.2823128889494882e+01 0.0000000000000000e+00 0 0 0
278 1 2.2048843812353137e+01 5.4166762295369310e+01 0.0000000000000000e+00 0 0 0
307 1 1.8981705719474412e+01 5.6644084478969859e+01 0.0000000000000000e+00 0 0 0
280 1 2.5366147084956296e+01 5.1900850395310606e+01 0.0000000000000000e+00 0 0 0
311 1 2.5955765862798071e+01 5.5954910494189342e+01 0.0000000000000000e+00 0 0 0
282 1 2.9209309575199359e+01 5.3518061081308538e+01 0.0000000000000000e+00 0 0 0
312 1 2.9715813017815655e+01 5.7645917580471874e+01 0.0000000000000000e+00 0 0 0
283 1 3.2386767951941906e+01 5.1030470153839538e+01 0.0000000000000000e+00 0 0 0
284 1 3.6180983492817354e+01 5.2261991793582609e+01 0.0000000000000000e+00 0 0 0
313 1 3.2931624208942125e+01 5.4998470236092793e+01 0.0000000000000000e+00 0 0 0
315 1 3.6812108711096784e+01 5.6242999507483574e+01 0.0000000000000000e+00 0 0 0
287 1 4.3110957681204383e+01 5.1068870346123198e+01 0.0000000000000000e+00 0 0 0
286 1 3.9963386980976388e+01 5.3778113614426182e+01 0.0000000000000000e+00 0 0 0
317 1 4.3924860511950421e+01 5.5049046007809167e+01 0.0000000000000000e+00 0 0 0
316 1 4.0841359088894777e+01 5.7769637358041379e+01 0.0000000000000000e+00 0 0 0
288 1 4.6906757332195859e+01 5.2188264481105257e+01 0.0000000000000000e+00 0 0 0
318 1 4.7720861259627270e+01 5.6131199049351657e+01 0.0000000000000000e+00 0 0 0
290 1 5.0872881601072109e+01 5.3160641442833473e+01 0.0000000000000000e+00 0 0 0
319 1 5.1967117167577662e+01 5.7105800065556970e+01 0.0000000000000000e+00 0 0 0
292 1 5.7927514273615010e+01 5.1533277849053292e+01 0.0000000000000000e+00 0 0 0
321 1 5.5002729134772650e+01 5.4205478779638852e+01 0.0000000000000000e+00 0 0 0
323 1 5.9038214361541890e+01 5.5342515134442941e+01 0.0000000000000000e+00 0 0 0
324 1 6.2844701857849373e+01 5.6388002458516830e+01 0.0000000000000000e+00 0 0 0
294 1 6.1711264994068145e+01 5.2408455767684877e+01 0.0000000000000000e+00 0 0 0
325 1 6.6698793432969040e+01 5.7438753427559242e+01 0.0000000000000000e+00 0 0 0
296 1 6.5742285170157771e+01 5.3403069338678748e+01 0.0000000000000000e+00 0 0 0
298 1 7.2487308315214079e+01 5.1529806558250819e+01 0.0000000000000000e+00 0 0 0
327 1 6.9631130553406564e+01 5.4436427487608974e+01 0.0000000000000000e+00 0 0 0
328 1 7.3441712855068630e+01 5.5554226087538929e+01 0.0000000000000000e+00 0 0 0
329 1 7.7362397882890392e+01 5.6708426812932139e+01 0.0000000000000000e+00 0 0 0
299 1 7.6529273843346346e+01 5.2893665440289055e+01 0.0000000000000000e+00 0 0 0
300 1 8.0522574984517348e+01 5.3921084950910917e+01 0.0000000000000000e+00 0 0 0
1201 1 8.1558281665109178e+01 5.7764241748693209e+01 0.0000000000000000e+00 0 0 0
302 1 4.7101369643092017e+00 5.8560630724894132e+01 0.0000000000000000e+00 0 0 0
332 1 5.3903695544259511e+00 6.2469127591362025e+01 0.0000000000000000e+00 0 0 0
331 1 1.4836501724554847e+00 6.0915847662635635e+01 0.0000000000000000e+00 0 0 0
333 1 8.5366942569800734e+00 6.0041726173154188e+01 0.0000000000000000e+00 0 0 0
335 1 1.2480819558376885e+01 6.1640237764067962e+01 0.0000000000000000e+00 0 0 0
334 1 9.1810384600235437e+00 6.4041455691210871e+01 0.0000000000000000e+00 0 0 0
306 1 1.5782321635378981e+01 5.9178149699313089e+01 0.0000000000000000e+00 0 0 0
337 1 1.6418204237732237e+01 6.3176316095679041e+01 0.0000000000000000e+00 0 0 0
308 1 1.9568394783743020e+01 6.0775464893750055e+01 0.0000000000000000e+00 0 0 0
309 1 2.2663868705930387e+01 5.8233469928980526e+01 0.0000000000000000e+00 0 0 0
339 1 2.3203839945288504e+01 6.2322864847535421e+01 0.0000000000000000e+00 0 0 0
338 1 1.9942006151571935e+01 6.4772703489434917e+01 0.0000000000000000e+00 0 0 0
310 1 2.6388344238686802e+01 5.9910624030127906e+01 0.0000000000000000e+00 0 0 0
341 1 2.7015739643699924e+01 6.3955873949982688e+01 0.0000000000000000e+00 0 0 0
343 1 3.0301344417551096e+01 6.1553995819146373e+01 0.0000000000000000e+00 0 0 0
314 1 3.3731833182123111e+01 5.8932115469746321e+01 0.0000000000000000e+00 0 0 0
344 1 3.4272843848113183e+01 6.2932665330461127e+01 0.0000000000000000e+00 0 0 0
345 1 3.7625914469468547e+01 6.0320196422179791e+01 0.0000000000000000e+00 0 0 0
375 1 3.8095619054852421e+01 6.4361362438899562e+01 0.0000000000000000e+00 0 0 0
347 1 4.4642954539536227e+01 5.9006467211612886e+01 0.0000000000000000e+00 0 0 0
346 1 4.1500618659648268e+01 6.1836274891209769e+01 0.0000000000000000e+00 0 0 0
377 1 4.5505970203931270e+01 6.3138313646642430e+01 0.0000000000000000e+00 0 0 0
349 1 4.8901513032454183e+01 5.9988667073231703e+01 0.0000000000000000e+00 0 0 0
348 1 4.9575777649784406e+01 6.4027743632954412e+01 0.0000000000000000e+00 0 0 0
350 1 5.2865210186633448e+01 6.1020073891311306e+01 0.0000000000000000e+00 0 0 0
320 1 5.5945822276959149e+01 5.8096471964856619e+01 0.0000000000000000e+00 0 0 0
351 1 5.7031601687149667e+01 6.1977627556496408e+01 0.0000000000000000e+00 0 0 0
322 1 5.9918060943819690e+01 5.9306016825986077e+01 0.0000000000000000e+00 0 0 0
353 1 6.0931294078656819e+01 6.3284661325608951e+01 0.0000000000000000e+00 0 0 0
355 1 6.3970240074713082e+01 6.0481314047446432e+01 0.0000000000000000e+00 0 0 0
354 1 6.5060534163597367e+01 6.4335497937377852e+01 0.0000000000000000e+00 0 0 0
356 1 6.7835857193745596e+01 6.1481374759557788e+01 0.0000000000000000e+00 0 0 0
326 1 7.0596477114389472e+01 5.8638330469034869e+01 0.0000000000000000e+00 0 0 0
357 1 7.1680067048124457e+01 6.2622890685192331e+01 0.0000000000000000e+00 0 0 0
359 1 7.4488201708811729e+01 5.9456150662994034e+01 0.0000000000000000e+00 0 0 0
358 1 7.5639045337751313e+01 6.3484639903509567e+01 0.0000000000000000e+00 0 0 0
330 1 7.8549967999582449e+01 6.0632978468520250e+01 0.0000000000000000e+00 0 0 0
360 1 7.9625325889860008e+01 6.4651191125716821e+01 0.0000000000000000e+00 0 0 0
361 1 1.9767513234352032e+00 6.4985307507823052e+01 0.0000000000000000e+00 0 0 0
363 1 5.9736773290422649e+00 6.6356530700724619e+01 0.0000000000000000e+00 0 0 0
362 1 2.6528296333232237e+00 6.8976745701397277e+01 0.0000000000000000e+00 0 0 0
364 1 6.5100406701296700e+00 7.0326889786633373e+01 0.0000000000000000e+00 0 0 0
336 1 1.2985906180247834e+01 6.5580683087443447e+01 0.0000000000000000e+00 0 0 0
365 1 9.7056346339155013e+00 6.8076079987071154e+01 0.0000000000000000e+00 0 0 0
366 1 1.3490570595899241e+01 6.9585714307057358e+01 0.0000000000000000e+00 0 0 0
395 1 1.0232372668211594e+01 7.1860702187626387e+01 0.0000000000000000e+00 0 0 0
367 1 1.6782719062995504e+01 6.7319564054483095e+01 0.0000000000000000e+00 0 0 0
369 1 2.0453805401216208e+01 6.8715564798210394e+01 0.0000000000000000e+00 0 0 0
368 1 1.7117764532277064e+01 7.1327728471996053e+01 0.0000000000000000e+00 0 0 0
340 1 2.3726221443524746e+01 6.6344662522183526e+01 0.0000000000000000e+00 0 0 0
370 1 2.4321110744089570e+01 7.0476205369641363e+01 0.0000000000000000e+00 0 0 0
371 1 2.7503878235597625e+01 6.8068085974975261e+01 0.0000000000000000e+00 0 0 0