LAMMPS (17 Nov 2016)
variable InitLatPar equal 5.5
variable Tinit equal 10
variable Tequi equal 10
variable Pequi equal 1.0
variable TimeStep equal 4.0
variable Steps equal 500000


# ---- INITIALIZATION ----------------------------------------------------------
atom_style       atomic
units            real
dimension        2


# ---- READ THE LAST CONFIGURATION ---------------------------------------------
read_data        ./data/data.equi_100_100
  orthogonal box = (1.22428 1.22428 0) to (163.776 163.776 5.5)
  2 by 2 by 1 MPI processor grid
  reading atoms ...
  1800 atoms
  reading velocities ...
  1800 velocities


# ---- SPECIFY THE INTERACTION -------------------------------------------------
#defiine how the atoms interact: Lennard-Jones potential with cut
pair_style       lj/cut 12
pair_coeff       * * 0.3228 3.65


# ---- EQUILIBRIATION ----------------------------------------------------------
reset_timestep   0
timestep         ${TimeStep}
timestep         4
fix              1 all npt temp ${Tequi} ${Tequi} 100 iso ${Pequi} ${Pequi} 100
fix              1 all npt temp 10 ${Tequi} 100 iso ${Pequi} ${Pequi} 100
fix              1 all npt temp 10 10 100 iso ${Pequi} ${Pequi} 100
fix              1 all npt temp 10 10 100 iso 1 ${Pequi} 100
fix              1 all npt temp 10 10 100 iso 1 1 100


# ---- SET THERMO OUTPUT -------------------------------------------------------
thermo           100
thermo_style     custom step lx ly lz press pxx pyy pzz pe temp


# ---- PERFORMING FEWER STEPS FOR EQUILIBRIATION -------------------------------
variable         tempSteps equal "v_Steps/10"
run              100000
Neighbor list info ...
  1 neighbor list requests
  update every 1 steps, delay 10 steps, check yes
  max neighbors/atom: 2000, page size: 100000
  master list distance cutoff = 14
  ghost atom cutoff = 14
  binsize = 7 -> bins = 24 24 1
Memory usage per processor = 2.35567 Mbytes
Step Lx Ly Lz Press Pxx Pyy Pzz PotEng Temp 
       0    162.55145    162.55145          5.5    36.070835   -31.314037    103.45571            0   -1859.1919    10.517918 
     100     162.3782     162.3782          5.5    223.84017     154.5088    293.17155            0   -1858.6043    10.401982 
     200    162.50742    162.50742          5.5     106.9499     35.54167    178.35814            0   -1857.8807    10.198037 
     300    162.41407    162.41407          5.5    198.19084    150.83819     245.5435            0   -1858.1878    10.231969 
     400     162.2264     162.2264          5.5    383.52373    332.99185    434.05561            0   -1858.5469    9.9759994 
     500     162.3666     162.3666          5.5    250.39555    177.67725    323.11385            0   -1858.5029    10.047831 
     600    162.46779    162.46779          5.5    171.10287    107.78072    234.42503            0   -1857.7177    10.036962 
     700    162.35567    162.35567          5.5    270.28235    194.05841     346.5063            0   -1858.0414    9.9048011 
     800    162.23077    162.23077          5.5    368.88118    302.43495    435.32742            0   -1859.7217    10.107155 
     900    162.49558    162.49558          5.5    140.08443    44.530731    235.63812            0   -1857.5544    10.231143 
    1000    162.56576    162.56576          5.5     66.88196   -21.387068    155.15099            0    -1857.728    10.503463 
    1100    162.35048    162.35048          5.5    283.27649    224.83303    341.71996            0    -1858.301    10.238839 
    1200    162.28028    162.28028          5.5    352.06742    327.87146    376.26339            0   -1858.5227    9.9285011 
    1300    162.54994    162.54994          5.5    113.29417    32.663091    193.92524            0   -1857.0372    9.8573837 
    1400    162.53759    162.53759          5.5    58.301299   -19.616289    136.21889            0   -1860.2944    10.004266 
    1500    162.51016    162.51016          5.5    141.35722    92.937466    189.77697            0   -1857.3808     9.935459 
    1600    162.49094    162.49094          5.5    130.15402    80.653306    179.65474            0   -1858.1184    9.9358384 
    1700    162.25509    162.25509          5.5    386.45581    307.89653     465.0151            0   -1857.5224    9.9008715 
    1800    162.33679    162.33679          5.5    256.91603    169.92226    343.90981            0    -1858.976    9.4536334 
    1900    162.47401    162.47401          5.5    113.39262    53.289311    173.49593            0   -1858.8627    9.6457032 
    2000     162.5556     162.5556          5.5    58.834037     5.179301    112.48877            0   -1857.4889    10.203494 
    2100    162.50821    162.50821          5.5     69.22302    15.011863    123.43418            0   -1858.7715    10.228745 
    2200    162.44535    162.44535          5.5    163.08113    84.701191    241.46106            0   -1858.1417    10.435283 
    2300    162.52662    162.52662          5.5    43.401889   -43.746629    130.55041            0   -1859.2505    10.319772 
    2400     162.5216     162.5216          5.5     35.60655   -16.038031    87.251132            0   -1858.9143    10.099016 
    2500    162.34591    162.34591          5.5    213.37877    156.19642    270.56113            0   -1859.3909    9.8617076 
    2600    162.57237    162.57237          5.5    35.218969   -84.831449    155.26939            0   -1857.3444    9.8445045 
    2700    162.50752    162.50752          5.5    156.27002    63.287425    249.25262            0    -1855.585     9.793662 
    2800    162.45232    162.45232          5.5    154.90243    82.359766     227.4451            0   -1858.5343    10.087003 
    2900    162.25747    162.25747          5.5    367.55087    279.53556    455.56617            0   -1858.4912    10.410609 
    3000    162.34626    162.34626          5.5    251.84342     199.0703    304.61654            0    -1859.054     9.807685 
    3100    162.54238    162.54238          5.5    68.092492    5.6927695    130.49221            0   -1858.1115    9.7477349 
    3200    162.44119    162.44119          5.5    181.96987    111.44704     252.4927            0    -1857.796    9.9105682 
    3300    162.45729    162.45729          5.5    133.63832    59.790499    207.48614            0    -1858.834    9.9833323 
    3400    162.45396    162.45396          5.5    153.61786    21.889165    285.34655            0   -1858.4052    10.293141 
    3500    162.32574    162.32574          5.5    314.95998     196.7005    433.21947            0   -1857.2224      10.4114 
    3600    162.40709    162.40709          5.5    202.13913    89.426938    314.85132            0   -1858.3495    9.8645913 
    3700    162.42739    162.42739          5.5    194.15563    97.103835    291.20742            0   -1857.4181    10.067826 
    3800    162.37968    162.37968          5.5    193.67525     119.1129     268.2376            0   -1859.5188    9.8609963 
    3900    162.49354    162.49354          5.5     96.21199   -9.9323946    202.35638            0   -1858.7233    9.9036977 
    4000    162.51196    162.51196          5.5    118.54558    36.033606    201.05755            0   -1856.6753    10.006041 
    4100    162.34592    162.34592          5.5    259.20372    200.70142    317.70602            0   -1858.1833    9.9533162 
    4200    162.54704    162.54704          5.5     55.16052   -2.7790079    113.10005            0   -1857.6764    9.6835315 
    4300     162.4931     162.4931          5.5     130.5881     32.74607    228.43013            0   -1857.6728    10.028571 
    4400    162.52575    162.52575          5.5    87.753389   -27.519514    203.02629            0   -1858.9084    10.134818 
    4500    162.51489    162.51489          5.5    92.574854   -12.378607    197.52832            0   -1859.3184    10.485017 
    4600    162.51973    162.51973          5.5    101.00402     2.250034    199.75802            0   -1858.4382    10.166123 
    4700    162.40577    162.40577          5.5    218.11139    172.73495    263.48783            0   -1858.3108    10.079154 
    4800    162.37171    162.37171          5.5     239.5416    206.02647    273.05673            0   -1858.8194    10.347682 
    4900    162.55092    162.55092          5.5     54.76932  -0.10381712    109.64246            0    -1858.718    10.549222 
    5000    162.43784    162.43784          5.5    175.36008    146.52321    204.19695            0   -1858.4298    10.293268 
    5100    162.41141    162.41141          5.5    209.09639    195.95846    222.23432            0   -1857.9817    10.141301 
    5200     162.5182     162.5182          5.5    78.670036    71.307525    86.032548            0   -1858.2263    10.100856 
    5300    162.47787    162.47787          5.5    95.322123     61.63018    129.01407            0    -1859.817    10.094006 
    5400     162.3414     162.3414          5.5    269.50933    261.73816    277.28051            0   -1859.2718    10.040009 
    5500    162.50669    162.50669          5.5    150.03923    103.98003    196.09843            0   -1856.6394    10.337042 
    5600    162.55442    162.55442          5.5    80.432829    10.610299    150.25536            0   -1857.8328     10.57198 
    5700     162.4739     162.4739          5.5    154.55514    92.072951    217.03733            0   -1857.9187     10.24442 
    5800    162.35592    162.35592          5.5    219.60407    156.60159    282.60654            0   -1860.0219     10.19305 
    5900    162.44449    162.44449          5.5    126.74375    34.943807     218.5437            0   -1859.8421    10.201451 
    6000    162.25552    162.25552          5.5    329.10299    245.87182    412.33417            0   -1860.1878    10.087912 
    6100    162.49224    162.49224          5.5    119.61604     82.73109    156.50098            0   -1858.4882    10.356504 
    6200    162.53243    162.53243          5.5    115.08154    44.086801    186.07628            0   -1857.1053    10.370463 
    6300    162.38558    162.38558          5.5    262.18317    199.86005    324.50629            0   -1857.4028     10.11423 
    6400    162.50355    162.50355          5.5    101.13762    26.240294    176.03494            0   -1858.4733    10.096524 
    6500    162.43418    162.43418          5.5     167.3374    112.05777    222.61703            0   -1858.9528    9.8726715 
    6600     162.3701     162.3701          5.5    296.60837    223.23288    369.98386            0   -1856.3732    9.7476705 
    6700    162.40431    162.40431          5.5    268.99426    153.11971    384.86881            0   -1856.5885    9.9304578 
    6800    162.53264    162.53264          5.5    87.824902    -14.77399    190.42379            0   -1857.6369    9.9213281 
    6900    162.42045    162.42045          5.5    146.47205    62.543348    230.40074            0   -1859.9516    10.322145 
    7000    162.28489    162.28489          5.5    301.77874    222.18948      381.368            0   -1859.3001    10.112116 
    7100    162.59959    162.59959          5.5    38.463414   -25.594446    102.52128            0   -1856.4924    10.152103 
    7200    162.40568    162.40568          5.5    194.70715    103.92331      285.491            0   -1858.6916    10.024256 
    7300    162.45247    162.45247          5.5    160.22414    47.604483    272.84381            0   -1858.2824    10.281477 
    7400     162.2577     162.2577          5.5    369.08625    281.72268    456.44982            0   -1858.0095    10.218584 
    7500     162.3386     162.3386          5.5    256.49753    176.92796    336.06711            0    -1859.006    10.006588 
    7600    162.47887    162.47887          5.5    75.018754    -4.368493      154.406            0   -1860.1964    9.8348528 
    7700    162.40234    162.40234          5.5    230.82212    149.83498    311.80925            0   -1857.3372    10.053809 
    7800    162.23985    162.23985          5.5     396.7141    310.02816    483.40003            0     -1857.71    9.9338978 
    7900    162.41281    162.41281          5.5    166.25284    114.13811    218.36757            0   -1859.9299    10.150877 
    8000    162.57222    162.57222          5.5    57.690082  -0.26338452    115.64355            0   -1858.0836    10.186787 
    8100    162.38127    162.38127          5.5    255.46515    199.18243    311.74786            0   -1858.6796    10.315307 
    8200    162.59333    162.59333          5.5    30.406854   -30.300619    91.114327            0   -1857.7586    9.9804077 
    8300    162.48021    162.48021          5.5    132.56698    34.201023    230.93293            0   -1858.6639    9.9128536 
    8400    162.45597    162.45597          5.5    159.36451    124.07584    194.65318            0   -1858.6597    10.187423 
    8500    162.26415    162.26415          5.5     360.1749    307.71785    412.63194            0   -1859.0342    10.608896 
    8600    162.38118    162.38118          5.5    230.78885    153.40423    308.17347            0   -1858.4124     10.25108 
    8700    162.52713    162.52713          5.5    70.711679    17.467651    123.95571            0   -1858.9042    10.198346 
    8800    162.40999    162.40999          5.5    229.49329    180.60008    278.38649            0   -1856.9031    10.058211 
    8900    162.15656    162.15656          5.5    458.74423    383.34168    534.14677            0   -1858.4882     9.720132 
    9000    162.42341    162.42341          5.5    175.53064    88.084389    262.97689            0   -1858.6801    9.7975355 
    9100    162.53699    162.53699          5.5    68.952393    6.2548201    131.64997            0   -1858.0838    10.015608 
    9200    162.41032    162.41032          5.5    218.81988    168.54389    269.09587            0   -1857.9522    10.104883 
    9300    162.54339    162.54339          5.5    72.690054    24.454732    120.92538            0   -1857.9768    9.9564173 
    9400    162.36726    162.36726          5.5    271.37108    218.57954    324.16262            0   -1857.9165    10.069107 
    9500    162.32472    162.32472          5.5     313.9126    238.23362    389.59159            0   -1857.7135    10.164657 
    9600    162.48293    162.48293          5.5    126.67844    40.232829    213.12406            0   -1858.4453     10.16749 
    9700    162.48617    162.48617          5.5    137.96312    81.996071    193.93017            0   -1858.0373    10.202408 
    9800    162.56416    162.56416          5.5    80.537609    45.149706    115.92551            0   -1857.5617    10.171269 
    9900    162.35428    162.35428          5.5    253.60005    197.46524    309.73486            0   -1859.9423    9.9946367 
   10000    162.41904    162.41904          5.5    266.62647    192.02673     341.2262            0   -1856.4993    10.196107 
   10100    162.42183    162.42183          5.5    205.79895    145.95844    265.63947            0   -1858.8642    10.096993 
   10200    162.58484    162.58484          5.5    67.033789   -11.576072    145.64365            0   -1856.9807      10.2252 
   10300    162.44809    162.44809          5.5    169.37358    138.82963    199.91753            0   -1858.4851     10.49591 
   10400    162.42231    162.42231          5.5    168.51226    123.16703    213.85749            0   -1859.4678    10.223734 
   10500    162.40363    162.40363          5.5    181.19988    143.17252    219.22723            0   -1859.3678    10.086476 
   10600    162.36694    162.36694          5.5     251.7166    214.82838    288.60482            0   -1857.4041    10.176728 
   10700    162.54665    162.54665          5.5    51.113635    39.900489    62.326782            0   -1857.6218    10.295416 
   10800    162.39158    162.39158          5.5    190.75562    172.10241    209.40883            0   -1858.5295    9.8987055 
   10900    162.34445    162.34445          5.5    253.79504    227.59876    279.99132            0   -1858.6615    9.9056647 
   11000    162.55712    162.55712          5.5    46.166787    52.701281    39.632293            0    -1857.436    9.6000612 
   11100    162.57316    162.57316          5.5    11.281656    46.697171   -24.133859            0   -1858.6669    9.7921898 
   11200    162.47799    162.47799          5.5    122.06801    102.40857    141.72746            0   -1858.7703    9.8755447 
   11300    162.55961    162.55961          5.5    67.849182    47.970926    87.727437            0   -1857.9763    10.219231 
   11400    162.51729    162.51729          5.5    98.249562    46.836687    149.66244            0   -1858.9632     10.18422 
   11500    162.45297    162.45297          5.5    192.43817     146.2066    238.66974            0   -1857.6306    10.366166 
   11600    162.50103    162.50103          5.5    102.52664    61.503254    143.55003            0   -1858.4292    10.424578 
   11700    162.43033    162.43033          5.5    139.12565    110.22473    168.02656            0   -1859.4712     9.893134 
   11800    162.32147    162.32147          5.5    299.66688    279.87619    319.45756            0    -1857.662    9.8021326 
   11900    162.36776    162.36776          5.5    261.22932    253.74294     268.7157            0    -1857.467    9.8306777 
   12000    162.51499    162.51499          5.5    89.207471    96.920793    81.494149            0    -1858.671    9.6640241 
   12100    162.39052    162.39052          5.5    229.57168    243.57847    215.56489            0   -1858.2458    9.6837396 
   12200    162.15896    162.15896          5.5    485.69268    443.03484    528.35052            0   -1858.1617    9.8868035 
   12300    162.36122    162.36122          5.5    237.85706    189.21139    286.50272            0   -1859.0173    9.6063877 
   12400    162.51122    162.51122          5.5    98.834748    42.519533    155.14996            0   -1857.3925    10.232447 
   12500    162.37839    162.37839          5.5    214.44788    200.37189    228.52386            0   -1858.5021    9.8706756 
   12600     162.5547     162.5547          5.5     34.06359   -27.766886    95.894066            0   -1858.0097    9.8458812 
   12700    162.42784    162.42784          5.5    144.77548    127.65218    161.89878            0   -1859.5504    9.9976973 
   12800    162.45253    162.45253          5.5    156.91349    115.63688     198.1901            0   -1858.4737     10.35792 
   12900    162.27408    162.27408          5.5    349.18138    315.24855    383.11421            0   -1858.6858    10.765821 
   13000    162.42728    162.42728          5.5    137.69595    87.285341    188.10655            0   -1860.2177    9.9391211 
   13100     162.5103     162.5103          5.5    78.762014    26.496675    131.02735            0   -1858.7251    9.9294829 
   13200    162.60184    162.60184          5.5     26.29454   -5.4256752    58.014756            0   -1857.1479    9.7973639 
   13300    162.60083    162.60083          5.5    11.481903   -33.330262    56.294068            0   -1857.7448     9.706007 
   13400    162.56237    162.56237          5.5    45.337116   -21.714484    112.38872            0    -1858.802    9.8630599 
   13500    162.58878    162.58878          5.5    32.802599   -45.829091    111.43429            0   -1858.6112    10.847973 
   13600    162.60824    162.60824          5.5    19.731448   -56.756545     96.21944            0   -1858.0942    10.284115 
   13700    162.40133    162.40133          5.5    206.43045     138.5729    274.28799            0   -1859.3614    10.008477 
   13800    162.51561    162.51561          5.5    117.80298    72.243403    163.36255            0   -1858.4949    10.212228 
   13900    162.58059    162.58059          5.5    55.266898  -0.60227242    111.13607            0    -1858.209    10.226428 
   14000    162.51001    162.51001          5.5    103.21415    72.442785    133.98552            0   -1858.9949      10.1149 
   14100    162.47722    162.47722          5.5    119.32615     80.80959    157.84271            0   -1859.2438    10.230558 
   14200    162.53727    162.53727          5.5    57.598732    19.376125    95.821339            0   -1858.1905    10.496764 
   14300    162.50687    162.50687          5.5    55.092056  0.024870988    110.15924            0   -1859.1595    10.312531 
   14400    162.23971    162.23971          5.5      320.924    259.70843    382.13958            0    -1860.061    9.9276216 
   14500    162.39607    162.39607          5.5    183.65512    119.59711    247.71313            0   -1858.9056    9.9317215 
   14600      162.495      162.495          5.5    86.023124    30.521968    141.52428            0   -1858.8995    9.8542453 
   14700    162.52374    162.52374          5.5    19.852621   -53.229059    92.934301            0   -1859.8565    9.4838837 
   14800    162.61163    162.61163          5.5   -39.378625   -70.994271   -7.7629786            0   -1859.3874    9.7763071 
   14900    162.68024    162.68024          5.5   -97.929208   -154.37128   -41.487138            0   -1859.3173    9.9120366 
   15000    162.61396    162.61396          5.5   -16.332953   -76.920255     44.25435            0   -1859.0233    10.212413 
   15100    162.64272    162.64272          5.5   -54.750202   -88.472758   -21.027645            0   -1859.2807    10.205231 
   15200    162.78468    162.78468          5.5   -229.93691    -252.0469   -207.82692            0    -1859.906    10.226298 
   15300    162.69386    162.69386          5.5    -119.5703   -133.99081   -105.14979            0   -1858.8985    10.282119 
   15400    162.65454    162.65454          5.5   -99.358193   -131.61177   -67.104612            0   -1858.9377     9.790295 
   15500     162.8904     162.8904          5.5    -357.6645   -367.84507   -347.48393            0   -1859.0034    9.8008421 
   15600     162.6975     162.6975          5.5   -123.52344   -152.62812   -94.418763            0   -1858.2215     10.03263 
   15700    162.69153    162.69153          5.5   -87.515137   -105.52854   -69.501731            0   -1857.0192    9.8823344 
   15800     162.8491     162.8491          5.5   -314.17977   -300.40586   -327.95367            0   -1859.2684    9.9022102 
   15900    162.66997    162.66997          5.5   -112.87372   -128.77013   -96.977318            0   -1859.1418    9.8794775 
   16000    162.71652    162.71652          5.5   -135.44235   -151.56913   -119.31557            0   -1858.0694    10.028982 
   16100    162.72378    162.72378          5.5   -151.47719   -174.39758    -128.5568            0   -1858.7256    10.190365 
   16200    162.73994    162.73994          5.5    -149.7853   -159.36088   -140.20972            0   -1858.6666    10.394509 
   16300    162.67808    162.67808          5.5   -123.98241   -102.51019   -145.45463            0   -1860.5991    10.064153 
   16400    162.70963    162.70963          5.5    -106.8626   -107.74353   -105.98166            0   -1858.7355    9.8519383 
   16500    162.74603    162.74603          5.5   -153.79914   -173.16553   -134.43275            0   -1858.7982    9.7955259 
   16600    162.70362    162.70362          5.5   -118.26859   -127.09412   -109.44306            0   -1858.7967    10.101606 
   16700    162.65229    162.65229          5.5   -95.531122   -95.276758   -95.785486            0   -1860.2485    9.9972469 
   16800    162.61334    162.61334          5.5   -7.3783315   -6.6847842   -8.0718788            0   -1859.0407    10.064593 
   16900    162.64822    162.64822          5.5    -41.01809   -66.146852   -15.889328            0   -1858.9605    10.433015 
   17000    162.75501    162.75501          5.5   -140.58263   -187.44441   -93.720839            0   -1858.1313    10.175642 
   17100    162.60192    162.60192          5.5   -48.330317   -98.088657    1.4280236            0   -1859.8445     9.365494 
   17200    162.67595    162.67595          5.5    -109.2668   -166.17825   -52.355349            0    -1859.381    9.7360715 
   17300    162.65822    162.65822          5.5   -70.570447   -119.34643   -21.794465            0   -1859.1085     9.910159 
   17400    162.66762    162.66762          5.5   -109.13399   -157.15577   -61.112205            0   -1859.6758    9.7475568 
   17500     162.7904     162.7904          5.5   -158.89482   -232.26071   -85.528933            0   -1856.4602    10.211968 
   17600     162.6424     162.6424          5.5   -51.706118   -132.26359    28.851357            0   -1859.3308     10.09601 
   17700    162.66274    162.66274          5.5    -94.12442   -151.28219   -36.966651            0   -1860.2207     10.47901 
   17800    162.61408    162.61408          5.5   -8.1879202   -65.241108    48.865268            0   -1858.3373    10.252101 
   17900     162.6696     162.6696          5.5   -90.469654   -169.18298   -11.756332            0   -1859.1935    10.768536 
   18000    162.67417    162.67417          5.5   -92.786838   -151.29049    -34.28319            0   -1859.1412    10.322648 
   18100    162.68184    162.68184          5.5   -150.40753   -220.32672   -80.488351            0   -1860.7391    9.6412607 
   18200     162.6115     162.6115          5.5   -57.111382   -105.02101   -9.2017578            0   -1859.6863    9.6784551 
   18300    162.67895    162.67895          5.5   -91.785207   -183.92816   0.35774496            0   -1858.0236    9.7472251 
   18400    162.60687    162.60687          5.5   -47.560047   -127.92991    32.809817            0   -1859.3219    10.021689 
   18500    162.64605    162.64605          5.5    -64.61625   -137.32355    8.0910441            0   -1858.3535    10.173464 
   18600    162.61819    162.61819          5.5   -51.284292   -143.22759    40.659004            0   -1858.9854    9.8344126 
   18700    162.59093    162.59093          5.5   -49.550417   -139.24846    40.147628            0     -1859.75    9.6076422 
   18800    162.59618    162.59618          5.5   -50.170329    -121.2894    20.948742            0   -1859.6567    9.8700961 
   18900    162.56846    162.56846          5.5    1.2057022   -80.365726    82.777131            0   -1858.3895     9.716476 
   19000    162.59875    162.59875          5.5   -26.893071   -91.592698    37.806556            0    -1858.706    9.8115413 
   19100    162.57473    162.57473          5.5     -14.1642   -61.259358    32.930959            0   -1859.5258    9.8439005 
   19200    162.62425    162.62425          5.5   -43.931014   -102.10385    14.241821            0   -1858.8887    10.031066 
   19300    162.51385    162.51385          5.5    26.605516   -41.901886    95.112917            0   -1861.3932    10.175297 
   19400     162.4821     162.4821          5.5    92.933216    16.568945    169.29749            0   -1859.9359    10.037828 
   19500    162.36474    162.36474          5.5    230.10083    191.31865    268.88301            0   -1858.9127    10.102312 
   19600     162.4584     162.4584          5.5    78.522639    28.347557    128.69772            0   -1860.8676    9.7868262 
   19700    162.38823    162.38823          5.5    140.80214    76.279163    205.32512            0    -1860.945    9.8242459 
   19800    162.23421    162.23421          5.5    345.49943    264.96162    426.03724            0   -1860.0769    10.095712 
   19900    162.42416    162.42416          5.5    148.10319    15.714225    280.49216            0   -1860.0605      9.53167 
   20000    162.52287    162.52287          5.5    64.218265   -3.9938507    132.43038            0   -1859.7392    9.7466496 
   20100    162.55543    162.55543          5.5     21.62394   -54.257936    97.505816            0   -1859.6734    9.9036758 
   20200    162.56817    162.56817          5.5    58.930348   -9.6975362    127.55823            0   -1857.2504    9.9587729 
   20300    162.56138    162.56138          5.5     31.39026   -87.691263    150.47178            0   -1858.2002    9.8924844 
   20400    162.53219    162.53219          5.5    20.024926    -98.06502    138.11487            0   -1860.4895    10.157071 
   20500     162.4474     162.4474          5.5    121.77848    31.094505    212.46245            0   -1860.7515      10.2308 
   20600     162.5308     162.5308          5.5    47.060571    -67.16785    161.28899            0   -1860.2151    10.123874 
   20700     162.5622     162.5622          5.5   -2.3120036    -79.19267    74.568663            0    -1860.526     9.727111 
   20800     162.6694     162.6694          5.5   -94.302238   -148.73559   -39.868889            0   -1859.1329    10.275523 
   20900    162.73021    162.73021          5.5   -129.52694   -168.99674   -90.057142            0    -1857.714     10.04806 
   21000    162.55289    162.55289          5.5   -36.572879   -91.798689    18.652931            0   -1861.3017    10.178072 
   21100    162.58261    162.58261          5.5   -66.268376   -130.10746   -2.4292929            0   -1860.4733    10.069864 
   21200    162.79263    162.79263          5.5   -248.06928   -363.76595    -132.3726            0   -1858.4139    10.202915 
   21300    162.63855    162.63855          5.5   -88.578747   -163.38677   -13.770724            0   -1858.8283    10.031777 
   21400    162.59145    162.59145          5.5   -49.932174   -117.94963    18.085281            0   -1859.9647     10.26296 
   21500    162.66322    162.66322          5.5   -124.29455   -185.55534   -63.033761            0   -1859.8644    9.9908485 
   21600    162.68238    162.68238          5.5   -114.61627   -193.26674   -35.965807            0    -1858.876    10.171228 
   21700    162.83601    162.83601          5.5   -305.42925   -390.51394   -220.34456            0   -1860.8465    10.123156 
   21800    162.72277    162.72277          5.5   -190.03047   -289.53538   -90.525562            0   -1861.1366    9.9343672 
   21900    162.75852    162.75852          5.5   -132.30338   -224.56781   -40.038945            0   -1857.4037    9.9632862 
   22000     162.6713     162.6713          5.5   -85.931362   -158.92272   -12.940003            0   -1859.9877    9.7049801 
   22100    162.66095    162.66095          5.5   -87.993713   -206.31591    30.328485            0   -1860.6326    9.8315467 
   22200      162.717      162.717          5.5   -157.40161   -250.40623   -64.396988            0   -1860.3681    9.9015469 
   22300     162.6206     162.6206          5.5   -36.945146   -136.40623    62.515935            0   -1859.0212    9.7867438 
   22400    162.64683    162.64683          5.5   -90.051064   -193.88899    13.786864            0   -1860.2779    9.7713513 
   22500    162.55939    162.55939          5.5   -12.081498   -129.58338    105.42038            0   -1860.4628    9.6611903 
   22600    162.53318    162.53318          5.5    29.270754   -59.952789     118.4943            0   -1859.3116    9.5362884 
   22700    162.55221    162.55221          5.5    21.339648   -50.703606    93.382903            0    -1859.236    9.9215011 
   22800    162.49264    162.49264          5.5    56.730785      10.6744    102.78717            0   -1860.2488    9.9141683 
   22900    162.41292    162.41292          5.5    133.96952    43.738327    224.20072            0   -1860.3259    9.5698815 
   23000    162.24897    162.24897          5.5    324.11179    211.52042    436.70316            0   -1859.7646    9.7965457 
   23100    162.32134    162.32134          5.5    243.45798    136.61308    350.30288            0   -1859.7074    10.051908 
   23200    162.46576    162.46576          5.5     61.70755   -40.776204     164.1913            0   -1860.9294    10.361889 
   23300    162.33095    162.33095          5.5    209.36676    107.71201     311.0215            0    -1861.188    10.285136 
   23400    162.46754    162.46754          5.5    67.269032   -16.717622    151.25569            0   -1860.2914    9.9967397 
   23500    162.45618    162.45618          5.5    152.51585     110.7031    194.32861            0   -1857.8443    10.190497 
   23600    162.47538    162.47538          5.5     35.73791   -54.798487    126.27431            0   -1861.9749    9.8706123 
   23700    162.56887    162.56887          5.5   -35.024191   -160.55253    90.504148            0   -1860.7948    9.5434622 
   23800    162.73854    162.73854          5.5   -227.83133   -317.21907   -138.44359            0   -1861.4787    9.7497905 
   23900    162.69893    162.69893          5.5   -119.60216   -238.72415  -0.48016952            0   -1858.9365    10.453302 
   24000    162.68499    162.68499          5.5   -131.47772   -231.51727   -31.438176            0    -1859.519    10.234928 
   24100    162.58674    162.58674          5.5   -85.079663   -177.54538    7.3860553            0   -1861.8815    9.8829443 
   24200    162.74263    162.74263          5.5    -178.5766   -246.73631   -110.41688            0   -1858.8537    10.196797 
   24300    162.61205    162.61205          5.5   -109.80854   -165.96005   -53.657021            0   -1861.9058    10.000651 
   24400    162.57852    162.57852          5.5    -51.04354   -104.41622    2.3291407            0   -1860.2757    9.8685014 
   24500    162.64986    162.64986          5.5   -113.58922   -188.97879   -38.199647            0   -1859.9524    9.4135069 
   24600     162.5526     162.5526          5.5   -27.141116   -126.96926    72.687028            0   -1860.6425    9.7040538 
   24700     162.5143     162.5143          5.5    12.499414   -95.826184    120.82501            0   -1860.2716    9.7857063 
   24800    162.49882    162.49882          5.5    22.370942   -110.44019    155.18208            0   -1860.6647    9.9033684 
   24900    162.48692    162.48692          5.5    64.759158   -26.563672    156.08199            0   -1859.7236     10.00511 
   25000     162.3298     162.3298          5.5    172.42567    78.515116    266.33623            0   -1862.2599    9.5384813 
   25100     162.2515     162.2515          5.5    274.38798     202.9449    345.83105            0   -1862.1663     9.994753 
   25200    162.41078    162.41078          5.5    111.02338   -5.4675949    227.51436            0   -1861.3832    9.9263986 
   25300    162.30436    162.30436          5.5    250.10954    95.569958    404.64913            0   -1859.9684    9.3756501 
   25400     162.3409     162.3409          5.5     191.5122    50.696326    332.32808            0   -1861.8565    9.8094187 
   25500    162.56359    162.56359          5.5    31.217681    -95.26677    157.70213            0   -1859.1973    10.168158 
   25600    162.60757    162.60757          5.5    -37.98503   -161.69692    85.726858            0   -1860.2213    10.108354 
   25700    162.61696    162.61696          5.5   -98.365367    -248.2444    51.513668            0   -1861.9351    9.8275804 
   25800    162.61209    162.61209          5.5   -87.723302    -262.3137    86.867094            0   -1861.4084    9.7355943 
   25900    162.83668    162.83668          5.5   -332.49513   -464.56313   -200.42713            0   -1860.9023    9.2219741 
   26000    162.60699    162.60699          5.5   -95.971607   -243.13035    51.187135            0   -1861.4176    9.9178294 
   26100    162.62356    162.62356          5.5   -120.94148   -245.01949    3.1365257            0   -1861.6502    9.9291388 
   26200    162.55937    162.55937          5.5   -89.680525   -217.97972    38.618666            0   -1862.7553    9.7585025 
   26300    162.59237    162.59237          5.5   -80.956279   -225.40834    63.495784            0   -1861.1579    9.9863793 
   26400    162.49257    162.49257          5.5    39.225713   -108.84996    187.30139            0   -1860.1339     9.861407 
   26500    162.42306    162.42306          5.5    80.001539    -40.76489    200.76797            0   -1860.9753    9.9998764 
   26600    162.35247    162.35247          5.5    133.55871    5.2960384    261.82138            0   -1862.7295    9.8723338 
   26700    162.32257    162.32257          5.5    201.66849    104.50922    298.82776            0   -1862.2988    9.8688397 
   26800    162.19144    162.19144          5.5    387.78443    284.75911    490.80975            0    -1861.552     10.26314 
   26900    162.42382    162.42382          5.5    123.40564    37.955518    208.85576            0   -1862.4949    10.081727 
   27000    162.51226    162.51226          5.5    19.737942   -76.156767    115.63265            0   -1861.9438    9.9904217 
   27100    162.55673    162.55673          5.5   -53.288368    -150.4937    43.916961            0   -1862.6666    9.9305161 
   27200    162.67721    162.67721          5.5   -154.40605   -268.84013   -39.971965            0   -1861.2839    10.178024 
   27300    162.76504    162.76504          5.5   -259.04527   -404.76414   -113.32639            0    -1861.395    10.213069 
   27400    162.67061    162.67061          5.5   -155.90256   -243.42738   -68.377743            0   -1861.3354    10.005847 
   27500    162.61456    162.61456          5.5   -117.65618   -203.93846   -31.373898            0   -1861.9552    9.8440387 
   27600    162.62097    162.62097          5.5   -90.234351   -188.47281    8.0041065            0   -1861.0658    10.131826 
   27700    162.61478    162.61478          5.5   -93.337523   -161.11166   -25.563382            0   -1861.7247    10.302144 
   27800    162.56416    162.56416          5.5   -80.225519   -179.68279    19.231756            0   -1863.2865    10.126383 
   27900    162.45883    162.45883          5.5     55.24434   -53.178591    163.66727            0   -1862.1651    10.199986 
   28000    162.40447    162.40447          5.5    106.62645    12.365593    200.88731            0   -1862.1648     10.29976 
   28100    162.41208    162.41208          5.5    132.88651    39.716089    226.05694            0   -1859.8367    10.081524 
   28200    162.28988    162.28988          5.5    199.00824      68.9791    329.03738            0   -1862.9018     9.910077 
   28300    162.13204    162.13204          5.5    388.61016    274.80577    502.41454            0   -1862.7147    10.381132 
   28400    162.37151    162.37151          5.5    105.37794   -27.242613     237.9985            0   -1863.1335    10.241004 
   28500    162.45856    162.45856          5.5   -2.8834983   -120.53131    114.76431            0   -1863.1521    9.9722468 
   28600    162.55312    162.55312          5.5   -77.483168    -193.7653    38.798966            0    -1862.584    9.9748513 
   28700    162.77045    162.77045          5.5   -258.61765   -362.26232   -154.97298            0   -1861.1369    9.8776256 
   28800    162.74864    162.74864          5.5   -221.80491   -297.97937   -145.63044            0   -1861.2246    9.8888361 
   28900    162.69501    162.69501          5.5   -139.68202   -235.54312   -43.820921            0   -1859.7226    9.7690887 
   29000     162.5894     162.5894          5.5   -98.341924   -245.07882    48.394969            0   -1862.5794    10.410956 
   29100    162.61592    162.61592          5.5   -97.671756   -210.77877    15.435257            0   -1861.4432    10.382278 
   29200    162.59033    162.59033          5.5   -101.59991   -194.58819    -8.611625            0   -1863.1302    9.9710126 
   29300     162.5388     162.5388          5.5   -27.984583     -130.876    74.906831            0   -1862.4072    9.8963605 
   29400    162.48807    162.48807          5.5    58.175695    -28.34434    144.69573            0   -1860.2244    10.016838 
   29500    162.42511    162.42511          5.5    87.677773    10.076822    165.27872            0    -1861.774    10.000924 
   29600    162.27757    162.27757          5.5    182.78023    96.472293    269.08816            0   -1864.3929     9.552557 
   29700    162.14661    162.14661          5.5    391.98991    249.03303    534.94678            0   -1861.9436    10.051901 
   29800    162.38547    162.38547          5.5    172.60134    59.416976    285.78571            0   -1860.0357    9.4854422 
   29900    162.45907    162.45907          5.5    48.007438   -40.000955    136.01583            0   -1862.4032    10.037649 
   30000    162.55484    162.55484          5.5   -45.185833   -116.75764    26.385978            0   -1862.2623    9.7079096 
   30100    162.65397    162.65397          5.5    -112.1145   -208.31847    -15.91053            0   -1860.5617    10.145962 
   30200    162.78823    162.78823          5.5   -286.27415   -393.27412   -179.27417            0   -1861.6049    9.9529933 
   30300    162.71274    162.71274          5.5   -186.66296   -316.01412   -57.311794            0   -1861.0415    9.6841157 
   30400     162.6408     162.6408          5.5   -124.05244   -237.43669   -10.668188            0   -1862.1264    10.013778 
   30500    162.62478    162.62478          5.5   -98.515693   -216.03201    19.000621            0   -1861.9441    10.265283 
   30600    162.62799    162.62799          5.5     -88.1542   -205.70963    29.401229            0   -1861.6226    10.262072 
   30700    162.65548    162.65548          5.5   -111.96254   -204.91133    -19.01375            0    -1861.809     10.09276 
   30800    162.55393    162.55393          5.5  -0.93596589   -89.521174    87.649243            0   -1861.1871     9.752636 
   30900    162.45495    162.45495          5.5    72.181915   -41.913179    186.27701            0   -1861.7186    9.6400468 
   31000    162.38699    162.38699          5.5    116.88021   -22.195964    255.95639            0   -1862.7298    10.132314 
   31100    162.35956    162.35956          5.5    164.22256    21.813108      306.632            0   -1861.2953    9.9485787 
   31200    162.17889    162.17889          5.5    359.88615     239.3834     480.3889            0   -1861.1294    9.8894974 
   31300    162.25101    162.25101          5.5    275.33777    122.13591    428.53964            0    -1861.748    9.9283334 
   31400     162.4335     162.4335          5.5    68.199095   -60.191822    196.59001            0   -1862.1318    9.6570649 
   31500    162.51197    162.51197          5.5   -14.172824   -150.64553    122.29988            0   -1862.1629    10.018414 
   31600     162.5663     162.5663          5.5    -84.47337   -221.72741    52.780665            0   -1862.9025    9.8312611 
   31700    162.78507    162.78507          5.5   -286.20209   -427.16936   -145.23483            0   -1861.8748    10.135543 
   31800    162.70765    162.70765          5.5   -199.77024   -343.67334   -55.867137            0   -1861.8499     10.12912 
   31900    162.61328    162.61328          5.5   -123.52176   -237.36668   -9.6768329            0   -1862.9891    10.430903 
   32000    162.61714    162.61714          5.5   -104.40338   -216.09525    7.2884918            0   -1861.6965    10.160233 
   32100    162.58294    162.58294          5.5   -85.108098   -170.84275   0.62655173            0   -1862.2875     10.44508 
   32200    162.62636    162.62636          5.5   -106.35919   -208.34639   -4.3719953            0   -1861.6015    10.048256 
   32300    162.50571    162.50571          5.5    9.3270414   -145.54831    164.20239            0    -1862.149    9.9534652 
   32400    162.43375    162.43375          5.5    80.718277   -61.290624    222.72718            0   -1861.7358    10.288919 
   32500     162.3344     162.3344          5.5    146.41238    51.667161     241.1576            0   -1863.0519    9.7418425 
   32600    162.31708    162.31708          5.5     210.2362    153.78146    266.69095            0   -1861.2388    9.9238299 
   32700    162.15913    162.15913          5.5    395.26432     326.3433    464.18535            0   -1860.9143    10.078005 
   32800    162.34771    162.34771          5.5    153.22508    61.147834    245.30233            0   -1862.2372     9.948648 
   32900    162.43972    162.43972          5.5    10.135829   -76.208301     96.47996            0   -1863.3963    9.7763587 
   33000    162.51879    162.51879          5.5    -68.58348   -113.90149   -23.265473            0   -1863.0578    10.010516 
   33100    162.69673    162.69673          5.5   -214.15892   -248.30802   -180.00982            0   -1861.0657    10.327798 
   33200    162.71181    162.71181          5.5   -231.16512   -259.22447   -203.10578            0   -1861.2129     10.20043 
   33300    162.59264    162.59264          5.5   -138.05806   -194.24918   -81.866944            0   -1863.1681    9.7959572 
   33400    162.57599    162.57599          5.5   -110.62914   -156.06134   -65.196939            0   -1862.7323     9.759539 
   33500     162.5312     162.5312          5.5    -83.56583   -152.03741   -15.094249            0   -1863.1968     9.924771 
   33600    162.46849    162.46849          5.5   -28.862147   -93.322831    35.598536            0   -1863.9267     9.774762 
   33700    162.39448    162.39448          5.5    95.798218    13.229425    178.36701            0   -1862.5474     9.364484 
   33800    162.37542    162.37542          5.5    146.20011    71.364032     221.0362            0   -1862.0718    9.9127289 
   33900     162.2365     162.2365          5.5    226.42793    205.52175    247.33411            0   -1864.9461    9.6918245 
   34000    162.22469    162.22469          5.5     261.9853     248.5563     275.4143            0   -1863.4978    10.041697 
   34100    162.46011    162.46011          5.5    1.9447826   -16.674573    20.564139            0   -1863.8731     10.20463 
   34200    162.56624    162.56624          5.5   -70.419054   -117.24277   -23.595341            0   -1862.1866     9.916938 
   34300    162.76144    162.76144          5.5   -262.94938   -336.39551   -189.50326            0   -1861.6826    9.8466568 
   34400    162.65654    162.65654          5.5   -211.55215   -265.10662   -157.99768            0   -1863.9289    9.5677087 
   34500     162.6191     162.6191          5.5   -116.46974   -155.91133   -77.028148            0   -1862.1345    9.9341187 
   34600    162.56609    162.56609          5.5   -89.925286   -136.45224   -43.398331            0   -1864.0345    10.066926 
   34700    162.57077    162.57077          5.5   -96.909216   -141.82425   -51.994184            0   -1863.8769    10.491422 
   34800    162.44254    162.44254          5.5    47.278667   -14.592347    109.14968            0   -1863.2021    10.203817 
   34900    162.30745    162.30745          5.5    131.45002    56.265095    206.63495            0   -1865.5325    10.661489 
   35000    162.30314    162.30314          5.5    207.28177    141.04753    273.51602            0   -1862.3627    10.091784 
   35100    162.20387    162.20387          5.5    354.10491    278.56626    429.64355            0   -1860.1229    9.8934759 
   35200     162.3627     162.3627          5.5    117.85027    78.702091    156.99844            0   -1863.0009    9.8501072 
   35300    162.48364    162.48364          5.5     4.626236   0.29873656    8.9537354            0   -1862.6309    9.6340978 
   35400    162.53313    162.53313          5.5   -73.892468   -84.832478   -62.952459            0   -1863.1711    9.6403991 
   35500      162.722      162.722          5.5    -273.8736   -300.80474   -246.94247            0   -1862.9389    9.8925018 
   35600    162.63107    162.63107          5.5   -172.55251   -222.17748   -122.92754            0   -1862.9184    10.213455 
   35700    162.55756    162.55756          5.5   -115.91043   -184.88855   -46.932319            0   -1863.6958     10.72781 
   35800    162.53067    162.53067          5.5   -92.037225   -143.05417   -41.020282            0   -1862.8329    10.148797 
   35900    162.56982    162.56982          5.5   -114.10887   -148.37709   -79.840653            0   -1862.4343    10.044901 
   36000    162.44295    162.44295          5.5    20.451524    -28.03578    68.938827            0   -1862.7517    9.8120888 
   36100    162.35951    162.35951          5.5    108.32814    45.532715    171.12356            0   -1863.0342    9.6875582 
   36200     162.3353     162.3353          5.5     155.9987    94.055191    217.94221            0   -1862.3182    10.229059 
   36300    162.17177    162.17177          5.5    279.06543    207.67959    350.45128            0   -1864.2559    9.8594073 
   36400     162.2818     162.2818          5.5     210.6496    168.25327    253.04592            0   -1861.6759    9.9441701 
   36500    162.43145    162.43145          5.5    61.182382   -34.128354    156.49312            0   -1861.6435    9.8806229 
   36600    162.47602    162.47602          5.5   -34.363607   -147.14963    78.422421            0   -1863.6273    9.9405566 
   36700     162.5924     162.5924          5.5   -132.26382   -232.12578   -32.401859            0   -1862.5538    9.6048707 
   36800    162.70843    162.70843          5.5   -233.29709   -305.41805   -161.17612            0   -1861.4916    9.7637436 
   36900     162.6061     162.6061          5.5   -142.59665   -192.49699   -92.696303            0   -1862.2303    9.9960563 
   37000    162.54794    162.54794          5.5   -105.78275   -184.24243   -27.323065            0    -1863.176    10.057071 
   37100    162.53097    162.53097          5.5   -83.245354   -108.96956   -57.521149            0   -1863.5621    10.510784 
   37200    162.56916    162.56916          5.5   -99.763351   -136.15058   -63.376123            0   -1862.6505     10.37887 
   37300    162.38556    162.38556          5.5    69.662462    65.024168    74.300756            0   -1863.6561    10.090751 
   37400    162.34313    162.34313          5.5    127.05535    139.06213    115.04857            0   -1862.9811    10.128615 
   37500    162.27887    162.27887          5.5    181.93379    161.33927    202.52831            0   -1863.0862    9.8894059 
   37600    162.07084    162.07084          5.5    418.68634    401.16541    436.20728            0   -1862.6774    9.6062872 
   37700    162.38025    162.38025          5.5    98.763787     64.46598    133.06159            0   -1862.3219    9.8056279 
   37800    162.48116    162.48116          5.5   0.95528068   -90.705988    92.616549            0   -1861.7932    9.8206737 
   37900    162.53764    162.53764          5.5   -79.550665   -162.46382    3.3624897            0   -1863.2214    9.9310467 
   38000    162.72938    162.72938          5.5   -309.81895   -393.05202   -226.58589            0    -1864.409    9.8080344 
   38100    162.58812    162.58812          5.5    -137.5667   -181.42842   -93.704975            0   -1863.6544    10.279745 
   38200    162.57114    162.57114          5.5   -105.15493   -143.63361   -66.676238            0   -1862.6574     9.867845 
   38300    162.56193    162.56193          5.5   -90.230553   -162.28743    -18.17368            0   -1862.8289    9.5933562 
   38400    162.49355    162.49355          5.5   -16.835709   -97.950298    64.278881            0   -1862.5653      9.96592 
   38500    162.36127    162.36127          5.5    100.74502    35.999426    165.49061            0   -1863.7776    10.080637 
   38600    162.34087    162.34087          5.5    160.89883    54.180862     267.6168            0   -1863.0137    10.300602 
   38700    162.22626    162.22626          5.5    295.03834    202.00604    388.07065            0   -1862.8636     10.15035 
   38800    162.21539    162.21539          5.5    289.19556     154.6174    423.77371            0   -1863.6208    9.9392483 
   38900    162.43789    162.43789          5.5    28.405447   -61.020954    117.83185            0   -1863.9064     9.601867 
   39000    162.52364    162.52364          5.5   -57.772119   -158.08824    42.543998            0   -1862.8669    9.9026835 
   39100    162.67176    162.67176          5.5   -174.16971   -297.08181   -51.257607            0    -1860.928    9.7365309 
   39200    162.71928    162.71928          5.5   -269.17282   -362.32677   -176.01887            0   -1863.4396    9.6761381 
   39300    162.63006    162.63006          5.5   -131.52137   -240.38615   -22.656586            0   -1862.2283    9.8655842 
   39400    162.60672    162.60672          5.5   -101.73495   -189.29909   -14.170821            0   -1862.4562    9.9363554 
   39500    162.55208    162.55208          5.5   -80.833773   -157.21955    -4.447997            0   -1864.1006    9.9625704 
   39600    162.46321    162.46321          5.5   -11.187196   -114.36914    91.994749            0   -1864.6667    10.246365 
   39700    162.40366    162.40366          5.5    81.152958    -3.228889    165.53481            0   -1862.4876    10.186222 
   39800    162.30548    162.30548          5.5    146.13861    48.362566    243.91466            0   -1863.9259    9.9832235 
   39900    162.23483    162.23483          5.5     240.9324    113.68543    368.17937            0   -1863.6737    10.072493 
   40000    162.28474    162.28474          5.5    228.95196    129.13183    328.77208            0    -1862.193     10.33548 
   40100    162.45023    162.45023          5.5    46.304068   -68.111154    160.71929            0   -1862.0313    9.8813876 
   40200    162.51586    162.51586          5.5   -39.141804   -133.82936    55.545749            0   -1862.3862    9.7333121 
   40300    162.60107    162.60107          5.5   -134.84001   -220.05954   -49.620486            0   -1862.6725     9.796073 
   40400    162.72132    162.72132          5.5   -281.02367   -366.70022   -195.34712            0   -1863.3512    9.7253371 
   40500    162.58945    162.58945          5.5   -126.43359   -188.18446   -64.682722            0    -1861.944    9.5539052 
   40600    162.54165    162.54165          5.5   -102.37529   -196.30299    -8.447586            0   -1862.7156    9.8608913 
   40700    162.54316    162.54316          5.5   -84.291675   -153.90074   -14.682613            0   -1862.5691    9.7039705 
   40800    162.50153    162.50153          5.5     -20.1003   -62.460868    22.260267            0   -1862.2431    9.5887624 
   40900    162.38892    162.38892          5.5    78.273629    14.440596    142.10666            0    -1863.187    9.9110607 
   41000    162.34897    162.34897          5.5    136.17645    37.684156    234.66874            0   -1862.7218    10.266015 
   41100    162.26637    162.26637          5.5    200.83053    117.31771    284.34335            0   -1864.3243    10.093469 
   41200    162.20112    162.20112          5.5     292.2986    228.07038    356.52683            0   -1863.6127    10.173992 
   41300    162.43831    162.43831          5.5    12.364705   -91.498489     116.2279            0   -1863.7886    9.6625641 
   41400    162.55839    162.55839          5.5   -84.555192   -171.08589    1.9755031            0   -1862.6767     9.810838 
   41500    162.79207    162.79207          5.5   -315.72442   -378.19496   -253.25388            0    -1862.287     9.956027 
   41600    162.61119    162.61119          5.5   -149.75896   -215.48076   -84.037158            0   -1863.6414    10.001382 
   41700    162.61199    162.61199          5.5   -111.66561    -188.8844   -34.446817            0   -1862.6177     10.45278 
   41800    162.58617    162.58617          5.5   -86.336441   -170.36985   -2.3030285            0   -1862.4543    10.255599 
   41900    162.56105    162.56105          5.5   -101.57183   -216.59474    13.451082            0   -1863.9515    10.278542 
   42000    162.39959    162.39959          5.5    74.020995    -11.28751     159.3295            0   -1863.3574    10.195567 
   42100    162.31241    162.31241          5.5    129.20544    34.290755    224.12013            0   -1864.1548    9.7691708 
   42200    162.24783    162.24783          5.5    200.61042    96.650594    304.57026            0   -1864.1474    9.9167297 
   42300    162.16181    162.16181          5.5    346.30942    236.67919    455.93965            0   -1861.9802    9.8107224 
   42400    162.38583    162.38583          5.5    78.794832    2.0594764    155.53019            0   -1862.7534    9.9019624 
   42500    162.48843    162.48843          5.5   -30.741004   -109.08572    47.603708            0   -1863.0472    9.5916909 
   42600     162.5532     162.5532          5.5   -116.89347    -163.9607   -69.826243            0   -1863.8078    9.8050469 
   42700    162.77763    162.77763          5.5   -286.29636   -354.52742    -218.0653            0   -1861.1775    9.9305692 
   42800    162.58936    162.58936          5.5   -145.91636    -229.2956   -62.537119            0   -1863.9221    10.165644 
   42900    162.53306    162.53306          5.5   -97.586206   -166.72961   -28.442803            0   -1865.0696    10.256063 
   43000    162.58065    162.58065          5.5   -84.252124    -162.2628   -6.2414517            0   -1862.3843    10.062902 
   43100     162.5125     162.5125          5.5   -16.924585   -61.392671      27.5435            0   -1862.2607    9.8791981 
   43200    162.40678    162.40678          5.5    87.721191    25.828904    149.61348            0   -1862.7137    10.020964 
   43300    162.31753    162.31753          5.5    148.07873    44.520668     251.6368            0   -1864.0427    9.5284684 
   43400    162.24106    162.24106          5.5    249.14197    123.05052    375.23343            0   -1863.5946    9.7265982 
   43500    162.26935    162.26935          5.5    230.37383    108.15488    352.59277            0   -1862.9532    10.160619 
   43600    162.45033    162.45033          5.5    10.499344   -106.81289    127.81158            0   -1863.7066    9.8889695 
   43700    162.54537    162.54537          5.5   -60.023263   -176.41317    56.366646            0   -1862.5676    9.8372637 
   43800      162.717      162.717          5.5   -226.88805   -362.48471     -91.2914            0   -1861.8118    9.8415531 
   43900    162.67067    162.67067          5.5   -234.61528   -363.22571   -106.00485            0   -1864.4266    9.7636875 
   44000    162.65982    162.65982          5.5   -113.81749    -217.8371   -9.7978674            0   -1860.4284    10.140083 
   44100    162.57934    162.57934          5.5   -90.337476   -168.35322   -12.321733            0   -1863.5774    10.203374 
   44200    162.59855    162.59855          5.5   -92.456059   -181.70319    -3.208931            0   -1863.0883    10.073341 
   44300    162.46989    162.46989          5.5     33.01637   -49.521496    115.55424            0   -1863.6996    9.8644036 
   44400    162.39956    162.39956          5.5    108.07868      16.4389    199.71847            0   -1863.0535    9.8723643 
   44500    162.33975    162.33975          5.5    169.17697    75.230864    263.12308            0   -1863.0378    10.007128 
   44600    162.14641    162.14641          5.5    366.11872    265.34169    466.89576            0   -1863.2049    9.9846102 
   44700    162.29592    162.29592          5.5      220.527    164.03613    277.01787            0   -1862.3774    9.8665804 
   44800     162.4418     162.4418          5.5    17.238367   -38.909535    73.386268            0   -1864.0976    9.3187556 
   44900    162.54257    162.54257          5.5   -62.320459   -101.19355   -23.447366            0   -1862.6034     9.731989 
   45000    162.68446    162.68446          5.5   -212.29732   -280.80522   -143.78942            0   -1862.0952    9.9242073 
   45100    162.72269    162.72269          5.5   -243.37125   -263.88174   -222.86076            0   -1861.6435    10.106317 
   45200    162.56928    162.56928          5.5   -132.27059   -154.19612   -110.34506            0   -1863.1514    10.139493 
   45300    162.51944    162.51944          5.5   -97.652143   -157.65366   -37.650631            0   -1864.3642     10.26471 
   45400    162.49708    162.49708          5.5   -74.633389   -173.54639    24.279613            0   -1864.4101    10.354023 
   45500     162.4195     162.4195          5.5    33.592292   -37.752037    104.93662            0    -1863.396    10.091525 
   45600    162.38091    162.38091          5.5    97.929067    38.230973    157.62716            0   -1862.4961     10.31979 
   45700    162.32942    162.32942          5.5    154.80319    73.746622    235.85975            0   -1862.7774    10.357123 
   45800    162.21406    162.21406          5.5     281.2802    226.12725    336.43315            0   -1862.4849    10.511995 
   45900    162.15234    162.15234          5.5    302.18002    238.77321    365.58683            0    -1864.982    10.152923 
   46000    162.43018    162.43018          5.5    18.863684   -39.295158    77.022527            0   -1864.3212    9.9774768 
   46100    162.52627    162.52627          5.5   -51.313007   -102.31827  -0.30774655            0   -1862.5411    9.8442964 
   46200     162.6636     162.6636          5.5   -184.31673   -240.80957   -127.82389            0   -1862.4294    9.8384076 
   46300    162.71535    162.71535          5.5   -253.34614   -277.11875   -229.57352            0   -1863.3131     9.628207 
   46400    162.61951    162.61951          5.5    -128.7947   -172.35058   -85.238811            0   -1862.2341     9.915454 
   46500    162.53631    162.53631          5.5   -96.427472   -179.76097   -13.093975            0   -1864.2665    9.8905336 
   46600    162.55391    162.55391          5.5   -81.448828    -143.7609    -19.13676            0    -1862.987    9.6942336 
   46700    162.43241    162.43241          5.5    33.564263   -25.947474       93.076            0   -1863.4853    9.9107885 
   46800    162.33892    162.33892          5.5    124.39543    113.77651    135.01434            0   -1864.0548    9.6637789 
   46900    162.32194    162.32194          5.5    194.18955    172.51246    215.86664            0   -1862.5144    10.305427 
   47000    162.05097    162.05097          5.5    416.69154    366.89615    466.48692            0   -1865.1809    10.150461 
   47100    162.39784    162.39784          5.5      49.5344     2.434893    96.633906            0   -1864.9074    9.8719893 
   47200     162.5226     162.5226          5.5   -44.742891   -87.094415   -2.3913665            0   -1863.0143    9.7013177 
   47300    162.66084    162.66084          5.5   -209.47889   -235.08243   -183.87534            0   -1863.4117    9.9187562 
   47400    162.64573    162.64573          5.5   -199.37526   -264.24804   -134.50248            0   -1863.4377    9.8166674 
   47500    162.57587    162.57587          5.5   -109.51657   -169.81431    -49.21884            0   -1864.0312    10.086072 
   47600    162.59217    162.59217          5.5   -92.834264   -143.44578   -42.222743            0   -1862.7198    10.382356 
   47700    162.53427    162.53427          5.5   -95.708918   -144.69469   -46.723146            0   -1864.8814    10.019353 
   47800    162.35798    162.35798          5.5    92.156643    23.010808    161.30248            0   -1864.7461    10.078065 
   47900    162.30543    162.30543          5.5    160.95626    99.454282    222.45823            0   -1864.3146    10.224641 
   48000    162.11885    162.11885          5.5     391.2992    355.51412    427.08429            0   -1863.0834    10.172589 
   48100    162.37333    162.37333          5.5     125.6321    68.342266    182.92194            0    -1863.297    10.249987 
   48200    162.49997    162.49997          5.5   -18.416985   -76.573416    39.739446            0   -1863.8073    10.314321 
   48300    162.59231    162.59231          5.5   -101.63742    -144.8622   -58.412635            0   -1863.1868    10.583461 
   48400    162.78023    162.78023          5.5   -303.01209   -330.94504   -275.07915            0   -1862.5686    10.267471 
   48500     162.5924     162.5924          5.5   -155.04991   -177.40374   -132.69607            0   -1864.9662    10.160958 
   48600    162.59263    162.59263          5.5   -101.48238   -140.80291   -62.161853            0   -1863.2902    9.8119679 
   48700     162.5933     162.5933          5.5   -87.813583   -88.226847   -87.400318            0   -1863.0013    9.7763101 
   48800    162.49247    162.49247          5.5   -17.739037   -49.604794     14.12672            0   -1864.3543    9.7985016 
   48900    162.36397    162.36397          5.5    108.84839    64.762751    152.93403            0   -1864.1316    9.9357232 
   49000    162.31267    162.31267          5.5    183.60281    124.47068    242.73495            0   -1863.0027    10.104186 
   49100    162.05367    162.05367          5.5    428.50132    362.85607    494.14658            0   -1863.6922    9.7286427 
   49200    162.40309    162.40309          5.5    80.577268    4.4781183    156.67642            0   -1862.9197     9.595538 
   49300    162.50793    162.50793          5.5   -25.018566    -80.74348    30.706348            0   -1863.1618    9.8669341 
   49400       162.61       162.61          5.5   -116.02571   -199.55714   -32.494271            0    -1863.075    10.113076 
   49500    162.74658    162.74658          5.5   -306.71994   -376.85847   -236.58141            0   -1864.8119    9.9108166 
   49600    162.59556    162.59556          5.5   -116.48674   -197.45137   -35.522109            0   -1863.8441    9.9845623 
   49700    162.60055    162.60055          5.5   -102.64925   -167.55774   -37.740773            0   -1863.2327    10.666783 
   49800    162.62292    162.62292          5.5   -112.39524   -154.79151   -69.998963            0   -1862.4469    10.448808 
   49900    162.46361    162.46361          5.5   -2.4498935   -47.092725    42.192938            0   -1864.1571    9.8518417 
   50000    162.32959    162.32959          5.5    106.16552    62.675275    149.65577            0   -1864.6701    9.8526307 
   50100    162.28122    162.28122          5.5    172.37346    118.01054    226.73637            0   -1863.3057    9.9576082 
   50200    162.03119    162.03119          5.5    401.87543     346.9745    456.77636            0   -1864.8086    10.096266 
   50300    162.35349    162.35349          5.5    64.646241    9.4644447    119.82804            0   -1864.5529    10.303371 
   50400    162.50928    162.50928          5.5    -44.61135   -131.03437    41.811667            0   -1863.0754    10.077376 
   50500    162.63991    162.63991          5.5   -217.50455   -297.48223   -137.52688            0   -1865.1735    9.7752627 
   50600    162.60188    162.60188          5.5   -158.18801   -270.03975   -46.336266            0   -1864.8655    9.9166118 
   50700    162.59114    162.59114          5.5   -102.89385   -166.56188   -39.225821            0   -1863.0836    10.126054 
   50800    162.56456    162.56456          5.5   -97.331349   -148.67571   -45.986987            0   -1864.1049    10.417619 
   50900    162.42732    162.42732          5.5    44.678618     -43.3735    132.73074            0   -1864.6633    10.069163 
   51000    162.39694    162.39694          5.5    111.18822    71.368222    151.00821            0   -1863.2183    10.512352 
   51100    162.33592    162.33592          5.5    196.35931    136.97542     255.7432            0   -1862.7141    10.435607 
   51200     162.0759     162.0759          5.5    431.06715    336.16564    525.96865            0   -1864.5898    10.258399 
   51300    162.42516    162.42516          5.5    59.885216    28.469226    91.301207            0   -1863.5192     10.10939 
   51400    162.48835    162.48835          5.5   -24.427042   -60.635317    11.781232            0   -1864.2481     10.06202 
   51500    162.61925    162.61925          5.5   -130.66636   -172.37614   -88.956585            0   -1863.0682    9.9896881 
   51600    162.76916    162.76916          5.5   -269.10821    -304.2783   -233.93812            0    -1862.295    9.5608995 
   51700    162.62317    162.62317          5.5   -129.91517   -181.13395   -78.696392            0   -1862.3569    9.8673922 
   51800    162.53984    162.53984          5.5   -95.260866   -173.08282   -17.438913            0   -1864.2285    9.8990945 
   51900    162.58292    162.58292          5.5   -87.378142   -162.00752   -12.748761            0   -1862.4825    10.421112 
   52000    162.45428    162.45428          5.5  -0.27337322   -72.556891    72.010145            0   -1863.5483    9.9479131 
   52100    162.30378    162.30378          5.5    116.78066    82.294926    151.26639            0   -1865.7382     9.729564 
   52200    162.29068    162.29068          5.5    190.88178    160.76771    220.99586            0   -1863.6688    9.9183053 
   52300    162.15585    162.15585          5.5     398.1754    353.75754    442.59326            0   -1861.7248    9.8574439 
   52400    162.38846    162.38846          5.5    108.19354    67.772306    148.61478            0   -1863.2539    9.7169871 
   52500    162.51536    162.51536          5.5   -30.919554   -107.94233    46.103226            0   -1863.8219    9.6483361 
   52600    162.63418    162.63418          5.5   -122.31541   -192.89198    -51.73885            0   -1862.6444    9.6109547 
   52700    162.75612    162.75612          5.5    -273.3256   -285.52795   -261.12326            0    -1863.178     9.888625 
   52800    162.56303    162.56303          5.5    -123.3552   -128.86608   -117.84433            0   -1864.9666    9.4263264 
   52900    162.53929    162.53929          5.5   -95.037962   -114.10417   -75.971758            0   -1865.1786    10.415322 
   53000    162.55936    162.55936          5.5   -85.110175   -144.13976   -26.080588            0    -1863.706    10.150071 
   53100    162.37953    162.37953          5.5    77.416906     9.224183    145.60963            0    -1864.227    10.275949 
   53200    162.31123    162.31123          5.5    163.37219    100.56746    226.17691            0   -1863.3514    10.317173 
   53300    162.09225    162.09225          5.5    356.55411    301.90728    411.20094            0   -1865.3493    10.217138 
   53400    162.38786    162.38786          5.5    60.674121    31.975221    89.373022            0   -1864.5118    10.227515 
   53500    162.51771    162.51771          5.5   -48.336218   -94.618217   -2.0542194            0   -1863.1127    10.012379 
   53600     162.6932     162.6932          5.5   -248.84291   -281.77975   -215.90607            0   -1863.5938    9.8975626 
   53700    162.60122    162.60122          5.5   -155.04003   -200.52076   -109.55929            0   -1863.7276    10.011669 
   53800    162.55424    162.55424          5.5   -104.79195   -161.66328   -47.920623            0   -1864.0222    10.092133 
   53900    162.52694    162.52694          5.5    -85.10728   -136.31463   -33.899932            0   -1864.8101    10.355274 
   54000    162.43224    162.43224          5.5    25.952942   -65.118999    117.02488            0   -1864.2759    10.187861 
   54100     162.3212     162.3212          5.5    123.36963    23.892577    222.84669            0   -1865.0018    9.3807585 
   54200    162.24201    162.24201          5.5    235.06424    99.146953    370.98153            0   -1864.4369    10.072906 
   54300    162.29566    162.29566          5.5    156.59371    22.325073    290.86235            0   -1864.4931    10.481159 
   54400    162.48046    162.48046          5.5   -12.103275   -150.96987    126.76332            0   -1863.0927       10.046 
   54500    162.58352    162.58352          5.5   -114.98673   -192.61981   -37.353658            0   -1862.9235    10.052643 
   54600    162.77564    162.77564          5.5   -309.57949   -360.87729   -258.28169            0   -1863.0262    9.7741562 
   54700    162.56327    162.56327          5.5   -121.81493   -184.88345   -58.746418            0   -1864.4089    9.5059192 
   54800    162.56835    162.56835          5.5   -104.65817   -138.78577   -70.530563            0   -1863.4124    10.030019 
   54900    162.57003    162.57003          5.5   -104.68685   -153.23727   -56.136418            0   -1863.5412    10.273214 
   55000    162.40622    162.40622          5.5    34.603445   -67.886308     137.0932            0   -1864.6526    10.200176 
   55100    162.31166    162.31166          5.5    129.69141    66.028777    193.35405            0    -1864.863    10.260442 
   55200    162.25459    162.25459          5.5    229.22365    183.73306    274.71423            0    -1863.397    10.127656 
   55300    162.24447    162.24447          5.5    212.10226    171.56073    252.64379            0   -1864.3845    9.6583306 
   55400    162.46621    162.46621          5.5    8.8050644   -64.474258    82.084387            0   -1863.0277    9.8475796 
   55500    162.54304    162.54304          5.5   -86.026136   -127.19343   -44.858842            0   -1863.2165    9.7159522 
   55600    162.75353    162.75353          5.5   -329.99251   -356.23437   -303.75064            0   -1863.8186     9.549479 
   55700    162.55851    162.55851          5.5   -135.75973   -121.69752   -149.82194            0    -1864.029    9.6759453 
   55800    162.54616    162.54616          5.5   -101.14001    -123.3157   -78.964308            0   -1863.5805    9.6651066 
   55900    162.57356    162.57356          5.5   -94.115666   -99.411362   -88.819969            0   -1862.6986    9.9414978 
   56000    162.43708    162.43708          5.5    24.108825    7.5123725    40.705278            0   -1863.3758    9.8487471 
   56100    162.33502    162.33502          5.5    111.68051    100.85485    122.50617            0   -1864.1011    9.8608243 
   56200    162.23471    162.23471          5.5    191.58756    175.96097    207.21416            0    -1865.405    9.9903343 
   56300    162.09187    162.09187          5.5    328.28278    303.99659    352.56896            0     -1865.93    10.142316 
   56400    162.43926    162.43926          5.5    5.2326752   -43.034393    53.499743            0   -1864.3605    10.642028 
   56500    162.55482    162.55482          5.5   -95.278486   -154.99903   -35.557943            0   -1863.6355    10.374052 
   56600    162.79284    162.79284          5.5   -344.71934   -402.79149   -286.64718            0   -1863.5906    9.9836167 
   56700    162.58427    162.58427          5.5   -115.53484   -169.51863   -61.551053            0    -1863.831    9.9771482 
   56800    162.56893    162.56893          5.5   -98.628836    -156.6021   -40.655572            0   -1864.5769     10.13323 
   56900    162.55279    162.55279          5.5   -90.616784   -133.90554   -47.328029            0   -1864.8013    10.397541 
   57000    162.40618    162.40618          5.5    67.553602    10.530285    124.57692            0   -1864.1946    10.169897 
   57100    162.30946    162.30946          5.5    163.47991    115.77899    211.18083            0   -1863.9358    10.019412 
   57200    162.11842    162.11842          5.5    376.39014     330.2198    422.56048            0     -1864.16    10.142373 
   57300    162.39374    162.39374          5.5    82.385446    7.6891472    157.08174            0    -1863.625    10.228216 
   57400    162.47239    162.47239          5.5   -35.928659   -85.367154    13.509836            0    -1865.014    10.074519 
   57500    162.61454    162.61454          5.5   -191.18412   -252.11349   -130.25475            0   -1865.6281    10.383227 
   57600     162.6063     162.6063          5.5   -133.65164   -196.69005   -70.613238            0   -1863.1417    10.015473 
   57700    162.52752    162.52752          5.5   -100.80131   -162.08562   -39.516997            0   -1864.3741    9.7628916 
   57800    162.51994    162.51994          5.5    -84.08575     -142.208     -25.9635            0     -1864.28    10.007729 
   57900    162.41397    162.41397          5.5    39.854921    18.635293    61.074549            0   -1864.4801    10.264078 
   58000    162.33161    162.33161          5.5    142.41522     89.05354    195.77691            0   -1863.9374    10.090453 
   58100    162.17801    162.17801          5.5    276.26735    243.82098    308.71371            0     -1865.18     9.941079 
   58200    162.35298    162.35298          5.5    78.885738    47.752923    110.01855            0   -1865.6551    10.056945 
   58300    162.50857    162.50857          5.5   -44.775866   -83.271724   -6.2800071            0   -1864.4261    10.276398 
   58400    162.70923    162.70923          5.5   -253.24132   -287.46979   -219.01284            0   -1864.3204    10.174925 
   58500    162.59799    162.59799          5.5   -130.30209   -193.49416   -67.110019            0    -1864.227    10.203719 
   58600     162.5789     162.5789          5.5   -103.29675   -155.86318   -50.730315            0   -1863.6925    10.063409 
   58700    162.53646    162.53646          5.5   -87.174516   -116.04617   -58.302862            0   -1864.5864    9.6880544 
   58800    162.45387    162.45387          5.5     47.53708    4.7252615    90.348899            0   -1862.7487    9.9796956 
   58900    162.37545    162.37545          5.5    127.45999    65.806196    189.11378            0   -1862.6252    10.136834 
   59000    162.23639    162.23639          5.5    210.93682     134.4409    287.43275            0   -1864.7793    9.9450807 
   59100    162.18048    162.18048          5.5    295.41201    235.92195    354.90206            0   -1863.5022     9.960171 
   59200    162.45935    162.45935          5.5    35.356194   -43.549751    114.26214            0   -1862.0649    10.119549 
   59300    162.50888    162.50888          5.5   -64.300179   -102.92094   -25.679413            0    -1864.233    9.9881584 
   59400      162.678      162.678          5.5   -243.71663   -315.73434   -171.69892            0   -1864.4398    9.8282282 
   59500    162.59191    162.59191          5.5   -146.92662   -192.13814   -101.71511            0   -1864.1969    10.021041 
   59600    162.56794    162.56794          5.5   -101.78946   -99.640334   -103.93858            0   -1862.9324    9.8920737 
   59700    162.54605    162.54605          5.5   -98.463367    -137.7244   -59.202335            0   -1863.1532    9.9803574 
   59800    162.40578    162.40578          5.5    10.649479   -36.030583    57.329541            0   -1864.5717    9.7585704 
   59900    162.29239    162.29239          5.5    113.35164     66.83633    159.86694            0   -1865.0036    9.6528065 
   60000    162.24317    162.24317          5.5    205.68618     134.8825    276.48986            0   -1863.6561    10.155499 
   60100    162.10608    162.10608          5.5    349.79421    307.74367    391.84474            0   -1864.2455    10.239964 
   60200    162.40786    162.40786          5.5    44.751175     -22.1287    111.63105            0   -1863.5365    9.9961761 
   60300    162.47442    162.47442          5.5   -68.607746   -123.87855   -13.336944            0   -1865.4679    10.157917 
   60400    162.74458    162.74458          5.5   -298.40409    -326.2556   -270.55257            0   -1863.6327    10.018142 
   60500    162.59288    162.59288          5.5   -121.02669    -121.3122   -120.74118            0   -1864.1613    9.9774686 
   60600    162.54484    162.54484          5.5   -93.689036   -69.293847   -118.08422            0   -1865.1667     10.02791 
   60700    162.55638    162.55638          5.5   -91.013615   -120.47876   -61.548465            0   -1864.3754    10.515728 
   60800    162.39738    162.39738          5.5    68.230208    7.1234741    129.33694            0   -1864.9077    10.283351 
   60900    162.30409    162.30409          5.5    170.36572     135.4633    205.26814            0   -1864.6916    10.066661 
   61000    162.07666    162.07666          5.5    421.05426    373.68702    468.42151            0   -1863.5363    10.055846 
   61100    162.39382    162.39382          5.5    53.201508      14.7258    91.677215            0   -1864.3446    9.9022035 
   61200    162.51166    162.51166          5.5   -30.569101   -46.890616   -14.247585            0   -1862.5873    10.156401 
   61300    162.60487    162.60487          5.5   -187.04163   -200.71382   -173.36943            0   -1864.2669    9.8661546 
[...]
   86800    162.72713    162.72713          5.5   -287.19171   -348.05291    -226.3305            0   -1864.7524    10.311184 
   86900     162.5648     162.5648          5.5   -113.70144   -163.80142   -63.601457            0   -1863.9916    10.116912 
   87000    162.55684    162.55684          5.5   -104.56004   -138.06424   -71.055834            0   -1863.1557    9.9253229 
   87100    162.52368    162.52368          5.5   -102.62496   -131.98472   -73.265194            0   -1864.5069    9.7847896 
   87200     162.3581     162.3581          5.5    65.015922     42.43787    87.593974            0   -1864.8291    9.6134607 
   87300    162.31656    162.31656          5.5    138.49961    98.714505    178.28471            0   -1863.5704    9.9630211 
   87400    162.16161    162.16161          5.5    286.87236     270.0936    303.65112            0   -1864.3432    9.8772459 
   87500    162.27692    162.27692          5.5      154.236    118.59387    189.87813            0   -1864.4821     9.823194 
   87600    162.46669    162.46669          5.5   -20.407623   -78.394925    37.579678            0    -1863.909    10.286204 
   87700    162.57218    162.57218          5.5     -155.791   -207.86559   -103.71642            0   -1864.9665    10.483485 
   87800    162.61138    162.61138          5.5   -195.36623   -248.11715    -142.6153            0   -1864.3953    10.092577 
   87900    162.54237    162.54237          5.5   -101.95882    -117.0412   -86.876442            0   -1863.6395    9.9044825 
   88000    162.49977    162.49977          5.5    -88.04995    -110.6927   -65.407197            0   -1864.7684    9.7445021 
   88100    162.39088    162.39088          5.5    46.014426    1.2055782    90.823273            0   -1864.2125    10.031424 
   88200    162.27406    162.27406          5.5    137.26507    99.044455    175.48568            0    -1865.729    10.406806 
   88300    162.14093    162.14093          5.5     315.6218    228.97061      402.273            0   -1863.8204     10.07547 
   88400    162.33613    162.33613          5.5    111.28174    19.081977    203.48151            0   -1864.0568    9.9648693 
   88500    162.43744    162.43744          5.5   -18.227626   -116.42419    79.968939            0   -1864.8326    10.066675 
   88600    162.59632    162.59632          5.5   -149.21547   -233.60825   -64.822687            0   -1863.1537    10.104941 
   88700    162.60263    162.60263          5.5   -200.89704   -314.58743   -87.206656            0   -1864.9014     9.562306 
   88800    162.51986    162.51986          5.5   -99.378349   -200.81215    2.0554529            0    -1864.496    9.9455858 
   88900    162.50008    162.50008          5.5   -84.754706   -169.63668   0.12726676            0   -1864.3636    9.1653128 
   89000     162.4052     162.4052          5.5    35.505111   -46.559359    117.56958            0   -1864.4557    9.8585552 
   89100    162.31829    162.31829          5.5    129.71505    70.474577    188.95553            0    -1864.416    9.7722032 
   89200    162.20839    162.20839          5.5    262.16237    215.56209    308.76265            0   -1864.1996    10.085973 
   89300    162.26449    162.26449          5.5     141.7535    86.743775    196.76323            0   -1866.3543    9.6909742 
   89400    162.47379    162.47379          5.5   -27.119386   -98.409073    44.170301            0   -1863.7375    10.148522 
   89500    162.62873    162.62873          5.5   -192.67932    -246.2029   -139.15574            0   -1863.8215    9.9831363 
   89600    162.62911    162.62911          5.5   -188.80029   -273.90521   -103.69538            0   -1863.1864    10.077316 
   89700    162.51931    162.51931          5.5   -104.27479   -206.07863   -2.4709436            0   -1864.8967    10.199515 
   89800    162.49234    162.49234          5.5   -86.945216   -188.11922    14.228786            0   -1865.2316    10.112165 
   89900     162.3932     162.3932          5.5    29.540238   -24.657635    83.738112            0   -1864.6783    10.376058 
   90000     162.3066     162.3066          5.5    120.54044    57.412658    183.66823            0   -1864.7325    10.235158 
   90100    162.17674    162.17674          5.5    245.61107    170.30554     320.9166            0   -1865.4275    10.125183 
   90200    162.31752    162.31752          5.5    135.62033    80.772052    190.46861            0   -1863.4594    9.8275552 
   90300    162.45238    162.45238          5.5   -17.790865   -55.145856    19.564125            0   -1864.5088    9.6961183 
   90400    162.58641    162.58641          5.5   -148.83221   -223.32678    -74.33764            0   -1864.9464    9.9656913 
   90500    162.58239    162.58239          5.5     -154.483   -226.42578   -82.540225            0   -1865.0767    10.121334 
   90600    162.51639    162.51639          5.5   -96.164721   -165.08042   -27.249024            0   -1865.1286    10.030555 
   90700    162.52649    162.52649          5.5   -86.222723   -168.35084   -4.0946085            0   -1864.7454     10.24445 
   90800     162.3881     162.3881          5.5    60.059418   -30.702243    150.82108            0     -1865.01    10.402484 
   90900    162.27227    162.27227          5.5    153.41865    47.917031    258.92026            0   -1866.2149    10.183062 
   91000    162.04444    162.04444          5.5     382.9358     314.6542     451.2174            0   -1866.4025    9.9323821 
   91100     162.4016     162.4016          5.5    21.496714   -66.061328    109.05475            0   -1864.2778    9.7542756 
   91200    162.52289    162.52289          5.5   -71.166696   -109.63268   -32.700711            0   -1862.5426    9.8937047 
   91300    162.69359    162.69359          5.5   -302.19497   -347.25962   -257.13031            0    -1864.418    9.9864874 
   91400    162.47639    162.47639          5.5   -106.43514   -170.55847   -42.311817            0   -1865.6231    10.045131 
   91500    162.50875    162.50875          5.5   -95.153214   -137.85204   -52.454388            0   -1864.1624    9.9735399 
   91600     162.4767     162.4767          5.5   -73.940627   -114.00453   -33.876722            0   -1864.7999    9.8109498 
   91700    162.33754    162.33754          5.5    83.123327    27.124955     139.1217            0   -1864.7859    10.346412 
   91800    162.24295    162.24295          5.5    188.92535    168.80171    209.04898            0   -1865.3035    10.228278 
   91900    162.10237    162.10237          5.5    359.32742     357.8678    360.78704            0   -1864.5865    10.208253 
   92000    162.40213    162.40213          5.5    15.831539    19.578398    12.084679            0   -1864.9325    10.066881 
   92100    162.53287    162.53287          5.5   -99.547169   -68.990874   -130.10346            0   -1864.2661    10.138599 
   92200    162.69347    162.69347          5.5   -293.70761   -264.27674   -323.13848            0   -1865.1992    9.4251501 
   92300    162.51332    162.51332          5.5   -94.981662   -79.884059   -110.07927            0   -1865.2078    9.7829874 
   92400    162.54385    162.54385          5.5   -92.108269   -66.661386   -117.55515            0   -1863.5589    9.8694029 
   92500     162.4516     162.4516          5.5   -12.998078   -5.1226497   -20.873506            0   -1863.8968    9.7396359 
   92600    162.32327    162.32327          5.5    101.33144    77.190837    125.47205            0   -1864.7933    10.112762 
   92700    162.20538    162.20538          5.5    220.71347    194.22187    247.20507            0   -1864.8492    10.062063 
   92800    162.24794    162.24794          5.5    201.85573    167.89088    235.82057            0   -1863.7195    10.410376 
   92900     162.4114     162.4114          5.5  -0.22382097    -52.87749    52.429848            0   -1864.5064    10.152108 
   93000    162.48199    162.48199          5.5   -135.26149   -168.39507   -102.12791            0   -1866.9964    10.107305 
   93100    162.56589    162.56589          5.5   -165.79364   -236.68143    -94.90585            0   -1864.4266    10.075739 
   93200    162.47702    162.47702          5.5   -96.674098   -188.99031   -4.3578852            0   -1865.6247    9.8668243 
   93300    162.51776    162.51776          5.5   -87.276581   -182.03292    7.4797537            0   -1863.2299    9.7870342 
   93400     162.3829     162.3829          5.5    34.430087   -10.289139    79.149313            0   -1864.6306    9.9192454 
   93500    162.29829    162.29829          5.5    132.48621    79.328021    185.64439            0   -1864.6362     10.04446 
   93600    162.15731    162.15731          5.5    277.14427    222.36923     331.9193            0   -1865.2646    9.9315662 
   93700    162.33277    162.33277          5.5    86.876636    62.746791    111.00648            0   -1865.1888     9.886218 
   93800    162.46114    162.46114          5.5   -63.785708   -123.25676    -4.314659            0   -1866.1157    10.164783 
   93900    162.73266    162.73266          5.5   -319.94102   -381.88776   -257.99428            0   -1864.6356    10.036783 
   94000    162.56236    162.56236          5.5   -114.73441    -192.3552   -37.113612            0    -1863.615    10.026224 
   94100    162.52682    162.52682          5.5   -97.736668    -176.9673   -18.506032            0   -1865.0262    10.442494 
   94200     162.5075     162.5075          5.5   -94.030105   -172.06416   -15.996049            0    -1865.194    10.146973 
   94300    162.38691    162.38691          5.5    69.058421    9.6714826    128.44536            0   -1864.2619    10.309886 
   94400    162.24071    162.24071          5.5    180.08519    112.81705    247.35332            0   -1866.0857    10.021345 
   94500    162.08838    162.08838          5.5    369.97073    308.14966    431.79179            0   -1864.5036    9.9422247 
   94600    162.43695    162.43695          5.5    29.603302   -35.301256    94.507861            0   -1862.8346    10.351425 
   94700    162.46807    162.46807          5.5   -94.146037   -136.89758    -51.39449            0   -1865.9339    9.7467033 
   94800     162.7313     162.7313          5.5   -339.46009   -390.30442   -288.61575            0   -1864.4343    9.8696519 
   94900    162.48017    162.48017          5.5   -94.540442    -156.8366   -32.244283            0    -1865.721    10.213262 
   95000    162.53842    162.53842          5.5   -95.583703   -156.11655    -35.05086            0   -1863.4338    9.9625099 
   95100    162.43435    162.43435          5.5   -37.830848   -98.813364    23.151668            0   -1865.5522    9.7939303 
   95200    162.31375    162.31375          5.5     102.1305    50.237269    154.02374            0   -1865.1994    9.8038341 
   95300    162.24247    162.24247          5.5    227.28299    163.75893    290.80705            0   -1864.2096     10.26198 
   95400    162.19868    162.19868          5.5    284.56911    211.40662     357.7316            0    -1864.429    10.302002 
   95500    162.42941    162.42941          5.5  -0.78250416   -106.58052    105.01551            0   -1865.6443    10.208655 
   95600    162.56424    162.56424          5.5    -130.7465   -221.16968   -40.323324            0   -1864.5842    10.160624 
   95700    162.62859    162.62859          5.5   -208.13317   -310.57796   -105.68839            0   -1865.0468    10.197107 
   95800    162.54136    162.54136          5.5   -98.612144   -198.96184    1.7375493            0   -1864.7655    10.355626 
   95900    162.52881    162.52881          5.5    -91.13283    -219.9502    37.684544            0   -1864.9849    10.504198 
   96000    162.42039    162.42039          5.5    22.576389   -61.512979    106.66576            0    -1865.509    10.328517 
   96100    162.30499    162.30499          5.5    123.61652    33.682913    213.55013            0   -1865.9306    10.092035 
   96200    162.18273    162.18273          5.5    278.64206    205.33488    351.94924            0   -1864.7223    10.034985 
   96300    162.34216    162.34216          5.5    74.713598    33.471825    115.95537            0   -1865.3699    9.9223096 
   96400    162.49156    162.49156          5.5   -51.804262   -100.04672   -3.5618062            0   -1864.0195    10.114641 
   96500    162.67936    162.67936          5.5   -264.29248   -315.92766   -212.65729            0   -1864.4608    9.8244264 
   96600     162.5528     162.5528          5.5   -121.93772   -208.45345   -35.421993            0   -1864.0072    9.7495608 
   96700    162.54584    162.54584          5.5   -99.188261   -191.88058    -6.495939            0   -1863.1955    9.9256336 
   96800    162.49334    162.49334          5.5   -95.957969   -177.82591   -14.090032            0   -1865.7143    10.073165 
   96900     162.3726     162.3726          5.5    72.041846   -7.7976316    151.88132            0    -1864.341    10.243757 
   97000    162.25636    162.25636          5.5    176.31706    69.663079    282.97105            0   -1865.5368    10.023846 
   97100    162.07509    162.07509          5.5    417.02724    286.69797    547.35651            0   -1863.9212      9.92509 
   97200    162.41899    162.41899          5.5    27.081684   -135.19284    189.35621            0   -1864.7837    9.8610667 
   97300    162.52078    162.52078          5.5   -85.135096   -197.75645    27.486259            0   -1864.4315    9.8667564 
   97400    162.76831    162.76831          5.5   -330.01387   -456.13705   -203.89069            0   -1863.2158    9.9203146 
   97500    162.52437    162.52437          5.5   -108.71671   -229.09908    11.665665            0   -1864.5325     9.669736 
   97600    162.50887    162.50887          5.5   -97.758537    -214.7725    19.255427            0   -1864.3837    10.029346 
   97700    162.42967    162.42967          5.5   -52.950112     -180.867    74.966777            0   -1866.2428    9.9965543 
   97800    162.29982    162.29982          5.5    103.93566    13.781797    194.08953            0   -1866.3074    10.140632 
   97900    162.25284    162.25284          5.5    231.15254    99.657968     362.6471            0   -1862.8825    10.180497 
   98000    162.08262    162.08262          5.5    337.67099    247.34553    427.99646            0   -1866.1611    9.7665283 
   98100    162.44591    162.44591          5.5   -10.143063   -79.796285    59.510158            0     -1864.18    10.008141 
   98200    162.57353    162.57353          5.5   -156.73045     -207.576    -105.8849            0   -1864.2901    9.5584411 
   98300      162.576      162.576          5.5   -185.54506   -256.96464   -114.12548            0   -1865.9303    9.7905228 
   98400    162.58308    162.58308          5.5   -99.636032   -109.15717   -90.114892            0   -1862.4729     10.21329 
   98500    162.52579    162.52579          5.5   -94.465373   -151.78681   -37.143939            0    -1864.983    10.007655 
   98600    162.37883    162.37883          5.5    54.406716    38.322899    70.490534            0   -1865.7941    10.146581 
   98700    162.36158    162.36158          5.5     118.9528    80.858725    157.04687            0   -1864.4049    10.092193 
   98800      162.199      162.199          5.5    293.58231    251.22215    335.94247            0    -1864.537     10.46517 
   98900    162.30363    162.30363          5.5    154.00221    103.57193     204.4325            0   -1864.9737    10.207435 
   99000    162.44895    162.44895          5.5   -17.941336   -65.079681    29.197009            0   -1865.0334    10.302709 
   99100    162.57171    162.57171          5.5   -172.40884   -208.95861   -135.85906            0   -1865.4898    9.4715896 
   99200    162.55295    162.55295          5.5   -135.04172   -165.60547   -104.47797            0   -1864.1597    9.5841653 
   99300    162.52421    162.52421          5.5   -105.47683   -151.95264   -59.001014            0   -1864.5019    10.042908 
   99400    162.52148    162.52148          5.5   -85.138097   -124.54494    -45.73125            0    -1864.194    10.148511 
   99500    162.44649    162.44649          5.5    13.635241   -46.401223    73.671704            0   -1863.5363    10.720745 
   99600    162.27445    162.27445          5.5    136.43526    63.881437    208.98908            0   -1866.3946    9.9397897 
   99700    162.19601    162.19601          5.5    252.87346    206.68496    299.06195            0   -1865.4591    9.9956998 
   99800    162.40455    162.40455          5.5    68.295753    25.020799    111.57071            0    -1864.159    9.7513056 
   99900    162.47955    162.47955          5.5   -48.800905   -70.251686   -27.350124            0    -1865.052    9.7212463 
  100000    162.63469    162.63469          5.5   -227.61812   -254.42938   -200.80685            0   -1864.5917    10.041048 
Loop time of 29.1798 on 4 procs for 100000 steps with 1800 atoms

Performance: 1184.379 ns/day, 0.020 hours/ns, 3427.023 timesteps/s
99.9% CPU use with 4 MPI tasks x no OpenMP threads

MPI task timing breakdown:
Section |  min time  |  avg time  |  max time  |%varavg| %total
---------------------------------------------------------------
Pair    | 19.643     | 19.974     | 20.419     |   6.3 | 68.45
Neigh   | 0.18696    | 0.19009    | 0.19386    |   0.6 |  0.65
Comm    | 2.5989     | 3.0773     | 3.4418     |  17.3 | 10.55
Output  | 0.034824   | 0.036337   | 0.040096   |   1.1 |  0.12
Modify  | 5.2819     | 5.3191     | 5.3576     |   1.2 | 18.23
Other   |            | 0.5827     |            |       |  2.00

Nlocal:    450 ave 452 max 448 min
Histogram: 1 0 1 0 0 0 0 1 0 1
Nghost:    366.75 ave 370 max 364 min
Histogram: 1 0 0 1 0 1 0 0 0 1
Neighs:    8480.25 ave 8646 max 8347 min
Histogram: 1 0 0 1 1 0 0 0 0 1

Total # of neighbors = 33921
Ave neighs/atom = 18.845
Neighbor list builds = 669
Dangerous builds = 3
unfix            1


# --- DEFORMATION --------------------------------------------------------------
#since we restart everything set timestep to 0
reset_timestep   0
#directives for computing properties
compute          csym all centro/atom fcc
compute          peratom all pe/atom


# --- STORE INITIAL LENGTH AND SPECIFY STRAIN RATE -----------------------------
# assign varaibles for estimating strain and strain rate
# first store length of the sytem
variable        L0 equal $(lx)
variable        L0 equal 162.63469415650865812
# assign a strain rate which should equilibriate after each step
variable        srate equal 0.013e10
variable        srate1 equal "v_srate / 1.05e15"
print            "${srate1}"
1.23809523809524e-07
# fix for deforming the system in x-direction
fix             2 all deform 1 x erate ${srate1} units box remap x
fix             2 all deform 1 x erate 1.23809523809524e-07 units box remap x
fix             3 all nvt temp ${Tequi} ${Tequi} 100
fix             3 all nvt temp 10 ${Tequi} 100
fix             3 all nvt temp 10 10 100


# ---- SPECIFY COMPUTES --------------------------------------------------------
# Output strain and stress information to file
# for units metal, pressure is in [bar] = 100kPa = 1/10000 [GPa]
# for units real, pressure is in [atm] = 101.325 [kPa] = 101.325e-6 [GPa]
# p1, p2, p3, p4 aer in GPa
variable       strain equal "(lx - v_L0)/v_L0"
variable       p1 equal "v_strain"
variable       p2 equal "-pxx*101.325e-6"
variable       p3 equal "-pyy*101.325e-6"
variable       p4 equal "-pzz*101.325e-6"


# ---- STORE INITIALS AND ENFORCE DEFORMATION ----------------------------------
# fix for writing the strain and stresses to file
fix            1 all print 100 "${p1} ${p2} ${p3} ${p4}" file ./results/stress_strain.txt screen no
# writing trajectory
dump           3 all atom 1000 ./dump/tensiletest/100_100_*.atom
# display thermo
thermo          100
thermo_style   custom step time v_strain temp v_p1 v_p2 v_p3 v_p4 ke pe press
log            ./logfiles/tensiletest/100_100.log
